<?xml version="1.0"?>
<VTKFile type="UnstructuredGrid"  version="0.1"  >
<UnstructuredGrid>
<Piece  NumberOfPoints="201" NumberOfCells="200">
<Points>
<DataArray  type="Float64"  NumberOfComponents="3"  format="ascii">-5 0 0  -4.95 0 0  -4.9 0 0  -4.85 0 0  -4.8 0 0  -4.75 0 0  -4.7 0 0  -4.65 0 0  -4.6 0 0  -4.55 0 0  -4.5 0 0  -4.45 0 0  -4.4 0 0  -4.35 0 0  -4.3 0 0  -4.25 0 0  -4.2 0 0  -4.15 0 0  -4.1 0 0  -4.05 0 0  -4 0 0  -3.95 0 0  -3.9 0 0  -3.85 0 0  -3.8 0 0  -3.75 0 0  -3.7 0 0  -3.65 0 0  -3.6 0 0  -3.55 0 0  -3.5 0 0  -3.45 0 0  -3.4 0 0  -3.35 0 0  -3.3 0 0  -3.25 0 0  -3.2 0 0  -3.15 0 0  -3.1 0 0  -3.05 0 0  -3 0 0  -2.95 0 0  -2.9 0 0  -2.85 0 0  -2.8 0 0  -2.75 0 0  -2.7 0 0  -2.65 0 0  -2.6 0 0  -2.55 0 0  -2.5 0 0  -2.45 0 0  -2.4 0 0  -2.35 0 0  -2.3 0 0  -2.25 0 0  -2.2 0 0  -2.15 0 0  -2.1 0 0  -2.05 0 0  -2 0 0  -1.95 0 0  -1.9 0 0  -1.85 0 0  -1.8 0 0  -1.75 0 0  -1.7 0 0  -1.65 0 0  -1.6 0 0  -1.55 0 0  -1.5 0 0  -1.45 0 0  -1.4 0 0  -1.35 0 0  -1.3 0 0  -1.25 0 0  -1.2 0 0  -1.15 0 0  -1.1 0 0  -1.05 0 0  -1 0 0  -0.9500000000000002 0 0  -0.9000000000000004 0 0  -0.8499999999999996 0 0  -0.7999999999999998 0 0  -0.75 0 0  -0.7000000000000002 0 0  -0.6500000000000004 0 0  -0.5999999999999996 0 0  -0.5499999999999998 0 0  -0.5 0 0  -0.4500000000000002 0 0  -0.4000000000000004 0 0  -0.3499999999999996 0 0  -0.2999999999999998 0 0  -0.25 0 0  -0.2000000000000002 0 0  -0.1500000000000004 0 0  -0.09999999999999964 0 0  -0.04999999999999982 0 0  0 0 0  0.04999999999999982 0 0  0.09999999999999964 0 0  0.1500000000000004 0 0  0.2000000000000002 0 0  0.25 0 0  0.2999999999999998 0 0  0.3499999999999996 0 0  0.4000000000000004 0 0  0.4500000000000002 0 0  0.5 0 0  0.5499999999999998 0 0  0.5999999999999996 0 0  0.6500000000000004 0 0  0.7000000000000002 0 0  0.75 0 0  0.7999999999999998 0 0  0.8499999999999996 0 0  0.9000000000000004 0 0  0.9500000000000002 0 0  1 0 0  1.05 0 0  1.1 0 0  1.15 0 0  1.2 0 0  1.25 0 0  1.3 0 0  1.35 0 0  1.4 0 0  1.45 0 0  1.5 0 0  1.55 0 0  1.6 0 0  1.65 0 0  1.7 0 0  1.75 0 0  1.8 0 0  1.85 0 0  1.9 0 0  1.95 0 0  2 0 0  2.05 0 0  2.1 0 0  2.15 0 0  2.2 0 0  2.25 0 0  2.3 0 0  2.35 0 0  2.4 0 0  2.45 0 0  2.5 0 0  2.55 0 0  2.6 0 0  2.65 0 0  2.7 0 0  2.75 0 0  2.8 0 0  2.85 0 0  2.9 0 0  2.95 0 0  3 0 0  3.050000000000001 0 0  3.1 0 0  3.15 0 0  3.199999999999999 0 0  3.25 0 0  3.300000000000001 0 0  3.35 0 0  3.4 0 0  3.449999999999999 0 0  3.5 0 0  3.550000000000001 0 0  3.6 0 0  3.65 0 0  3.699999999999999 0 0  3.75 0 0  3.800000000000001 0 0  3.85 0 0  3.9 0 0  3.949999999999999 0 0  4 0 0  4.050000000000001 0 0  4.1 0 0  4.15 0 0  4.199999999999999 0 0  4.25 0 0  4.300000000000001 0 0  4.35 0 0  4.4 0 0  4.449999999999999 0 0  4.5 0 0  4.550000000000001 0 0  4.6 0 0  4.65 0 0  4.699999999999999 0 0  4.75 0 0  4.800000000000001 0 0  4.85 0 0  4.9 0 0  4.949999999999999 0 0  5 0 0  </DataArray>
</Points>
<Cells>
<DataArray  type="UInt32"  Name="connectivity"  format="ascii">0 1  1 2  2 3  3 4  4 5  5 6  6 7  7 8  8 9  9 10  10 11  11 12  12 13  13 14  14 15  15 16  16 17  17 18  18 19  19 20  20 21  21 22  22 23  23 24  24 25  25 26  26 27  27 28  28 29  29 30  30 31  31 32  32 33  33 34  34 35  35 36  36 37  37 38  38 39  39 40  40 41  41 42  42 43  43 44  44 45  45 46  46 47  47 48  48 49  49 50  50 51  51 52  52 53  53 54  54 55  55 56  56 57  57 58  58 59  59 60  60 61  61 62  62 63  63 64  64 65  65 66  66 67  67 68  68 69  69 70  70 71  71 72  72 73  73 74  74 75  75 76  76 77  77 78  78 79  79 80  80 81  81 82  82 83  83 84  84 85  85 86  86 87  87 88  88 89  89 90  90 91  91 92  92 93  93 94  94 95  95 96  96 97  97 98  98 99  99 100  100 101  101 102  102 103  103 104  104 105  105 106  106 107  107 108  108 109  109 110  110 111  111 112  112 113  113 114  114 115  115 116  116 117  117 118  118 119  119 120  120 121  121 122  122 123  123 124  124 125  125 126  126 127  127 128  128 129  129 130  130 131  131 132  132 133  133 134  134 135  135 136  136 137  137 138  138 139  139 140  140 141  141 142  142 143  143 144  144 145  145 146  146 147  147 148  148 149  149 150  150 151  151 152  152 153  153 154  154 155  155 156  156 157  157 158  158 159  159 160  160 161  161 162  162 163  163 164  164 165  165 166  166 167  167 168  168 169  169 170  170 171  171 172  172 173  173 174  174 175  175 176  176 177  177 178  178 179  179 180  180 181  181 182  182 183  183 184  184 185  185 186  186 187  187 188  188 189  189 190  190 191  191 192  192 193  193 194  194 195  195 196  196 197  197 198  198 199  199 200  </DataArray>
<DataArray  type="UInt32"  Name="offsets"  format="ascii">2 4 6 8 10 12 14 16 18 20 22 24 26 28 30 32 34 36 38 40 42 44 46 48 50 52 54 56 58 60 62 64 66 68 70 72 74 76 78 80 82 84 86 88 90 92 94 96 98 100 102 104 106 108 110 112 114 116 118 120 122 124 126 128 130 132 134 136 138 140 142 144 146 148 150 152 154 156 158 160 162 164 166 168 170 172 174 176 178 180 182 184 186 188 190 192 194 196 198 200 202 204 206 208 210 212 214 216 218 220 222 224 226 228 230 232 234 236 238 240 242 244 246 248 250 252 254 256 258 260 262 264 266 268 270 272 274 276 278 280 282 284 286 288 290 292 294 296 298 300 302 304 306 308 310 312 314 316 318 320 322 324 326 328 330 332 334 336 338 340 342 344 346 348 350 352 354 356 358 360 362 364 366 368 370 372 374 376 378 380 382 384 386 388 390 392 394 396 398 400 </DataArray>
<DataArray  type="UInt8"  Name="types"  format="ascii">3 3 3 3 3 3 3 3 3 3 3 3 3 3 3 3 3 3 3 3 3 3 3 3 3 3 3 3 3 3 3 3 3 3 3 3 3 3 3 3 3 3 3 3 3 3 3 3 3 3 3 3 3 3 3 3 3 3 3 3 3 3 3 3 3 3 3 3 3 3 3 3 3 3 3 3 3 3 3 3 3 3 3 3 3 3 3 3 3 3 3 3 3 3 3 3 3 3 3 3 3 3 3 3 3 3 3 3 3 3 3 3 3 3 3 3 3 3 3 3 3 3 3 3 3 3 3 3 3 3 3 3 3 3 3 3 3 3 3 3 3 3 3 3 3 3 3 3 3 3 3 3 3 3 3 3 3 3 3 3 3 3 3 3 3 3 3 3 3 3 3 3 3 3 3 3 3 3 3 3 3 3 3 3 3 3 3 3 3 3 3 3 3 3 3 3 3 3 3 3 </DataArray>
</Cells>
<PointData  Vectors="f_5"> 
<DataArray  type="Float64"  Name="f_5"  NumberOfComponents="3" format="ascii">1.0000000000000002e+01 -2.9366036908538051e-47 0.0000000000000000e+00  1.0000000000000002e+01 5.8732073817076112e-47 0.0000000000000000e+00  1.0000000000000002e+01 -2.0556225835976649e-46 0.0000000000000000e+00  1.0000000000000002e+01 7.6351695962198390e-46 0.0000000000000000e+00  1.0000000000000002e+01 -2.8485055801281943e-45 0.0000000000000000e+00  1.0000000000000004e+01 1.0630505360890795e-44 0.0000000000000000e+00  1.0000000000000002e+01 -3.9673515863435009e-44 0.0000000000000000e+00  1.0000000000000004e+01 1.4806355809284929e-43 0.0000000000000000e+00  1.0000000000000002e+01 -5.5258071650795774e-43 0.0000000000000000e+00  1.0000000000000002e+01 2.0622593079389997e-42 0.0000000000000000e+00  1.0000000000000004e+01 -7.6964565152480442e-42 0.0000000000000000e+00  1.0000000000000000e+01 2.8723566753053185e-41 0.0000000000000000e+00  1.0000000000000002e+01 -1.0719781049696474e-40 0.0000000000000000e+00  1.0000000000000002e+01 4.0006767523480263e-40 0.0000000000000000e+00  1.0000000000000004e+01 -1.4930728904422589e-39 0.0000000000000000e+00  1.0000000000000002e+01 5.5722238865342345e-39 0.0000000000000000e+00  1.0000000000000002e+01 -2.0795822655694685e-38 0.0000000000000000e+00  1.0000000000000004e+01 7.7611066736244535e-38 0.0000000000000000e+00  1.0000000000000002e+01 -2.8964844428928117e-37 0.0000000000000000e+00  9.9999999999999982e+00 1.0809827104208897e-36 0.0000000000000000e+00  1.0000000000000002e+01 -4.0342823973942786e-36 0.0000000000000000e+00  1.0000000000000004e+01 1.5056146879156233e-35 0.0000000000000000e+00  1.0000000000000002e+01 -5.6190305119230435e-35 0.0000000000000000e+00  1.0000000000000002e+01 2.0970507359776646e-34 0.0000000000000000e+00  1.0000000000000004e+01 -7.8262998927183237e-34 0.0000000000000000e+00  1.0000000000000004e+01 2.9208148834895762e-33 0.0000000000000000e+00  1.0000000000000002e+01 -1.0900629544686476e-32 0.0000000000000000e+00  1.0000000000000004e+01 4.0681703295256175e-32 0.0000000000000000e+00  1.0000000000000002e+01 -1.5182618363633890e-31 0.0000000000000000e+00  1.0000000000000004e+01 5.6662303125009730e-31 0.0000000000000000e+00  1.0000000000000004e+01 -2.1146659413640595e-30 0.0000000000000000e+00  1.0000000000000002e+01 7.8920407342061436e-30 0.0000000000000000e+00  1.0000000000000004e+01 -2.9453496995460410e-29 0.0000000000000000e+00  1.0000000000000002e+01 1.0992194724763598e-28 0.0000000000000000e+00  1.0000000000000004e+01 -4.1023429199508197e-28 0.0000000000000000e+00  1.0000000000000004e+01 1.5310152207326987e-27 0.0000000000000000e+00  1.0000000000000002e+01 -5.7138265909357155e-27 0.0000000000000000e+00  1.0000000000000004e+01 2.1324291143010081e-26 0.0000000000000000e+00  1.0000000000000002e+01 -7.9583337981104966e-26 0.0000000000000000e+00  1.0000000000000004e+01 2.9700906078140869e-25 0.0000000000000000e+00  1.0000000000000004e+01 -1.1084529051445347e-24 0.0000000000000000e+00  1.0000000000000002e+01 4.1368025597967319e-24 0.0000000000000000e+00  1.0000000000000004e+01 -1.5438757334042333e-23 0.0000000000000000e+00  1.0000000000000002e+01 5.7618226776372851e-23 0.0000000000000000e+00  1.0000000000000004e+01 -2.1503414977144828e-22 0.0000000000000000e+00  1.0000000000000004e+01 8.0251837230942384e-22 0.0000000000000000e+00  1.0000000000000002e+01 -2.9950393394662479e-21 0.0000000000000000e+00  1.0000000000000004e+01 1.1177638985555526e-20 0.0000000000000000e+00  1.0000000000000002e+01 -4.1715516602756045e-20 0.0000000000000000e+00  1.0000000000000004e+01 1.5568442742546805e-19 0.0000000000000000e+00  1.0000000000000004e+01 -5.8102219309911869e-19 0.0000000000000000e+00  1.0000000000000002e+01 2.1684043449710077e-18 0.0000000000000000e+00  9.9281403706749760e+00 7.1289837919620652e-02 0.0000000000000000e+00  9.7917176773578607e+00 2.0734425968832806e-01 0.0000000000000000e+00  9.6562387724742482e+00 3.4339868145703650e-01 0.0000000000000000e+00  9.5217036560241386e+00 4.7945310322574280e-01 0.0000000000000000e+00  9.3881123280075283e+00 6.1550752499444994e-01 0.0000000000000000e+00  9.2554647884244261e+00 7.5156194676315857e-01 0.0000000000000000e+00  9.1237610372748268e+00 8.8761636853186621e-01 0.0000000000000000e+00  8.9930010745587250e+00 1.0236707903005728e+00 0.0000000000000000e+00  8.8631849002761314e+00 1.1597252120692807e+00 0.0000000000000000e+00  8.7343125144270388e+00 1.2957796338379872e+00 0.0000000000000000e+00  8.6063839170114456e+00 1.4318340556066962e+00 0.0000000000000000e+00  8.4793991080293569e+00 1.5678884773754025e+00 0.0000000000000000e+00  8.3533580874807711e+00 1.7039428991441110e+00 0.0000000000000000e+00  8.2282608553656882e+00 1.8399973209128182e+00 0.0000000000000000e+00  8.1041074116841081e+00 1.9760517426815249e+00 0.0000000000000000e+00  7.9808977564360282e+00 2.1121061644502328e+00 0.0000000000000000e+00  7.8586318896214546e+00 2.2481605862189409e+00 0.0000000000000000e+00  7.7373098112403831e+00 2.3842150079876476e+00 0.0000000000000000e+00  7.6169315212928117e+00 2.5202694297563566e+00 0.0000000000000000e+00  7.4974970197787458e+00 2.6563238515250629e+00 0.0000000000000000e+00  7.3790063066981810e+00 2.7923782732937705e+00 0.0000000000000000e+00  7.2614593820511200e+00 2.9284326950624786e+00 0.0000000000000000e+00  7.1448562458375573e+00 3.0644871168311854e+00 0.0000000000000000e+00  7.0291968980575064e+00 3.2005415385998939e+00 0.0000000000000000e+00  6.9144813387109503e+00 3.3365959603685988e+00 0.0000000000000000e+00  6.8007095677978953e+00 3.4726503821373091e+00 0.0000000000000000e+00  6.6878815853183493e+00 3.6087048039060146e+00 0.0000000000000000e+00  6.5759973912723009e+00 3.7447592256747244e+00 0.0000000000000000e+00  6.4650569856597588e+00 3.8808136474434307e+00 0.0000000000000000e+00  6.3550603684807188e+00 4.0168680692121379e+00 0.0000000000000000e+00  6.2460075397351797e+00 4.1529224909808438e+00 0.0000000000000000e+00  6.1378984994231436e+00 4.2889769127495558e+00 0.0000000000000000e+00  6.0307332475446085e+00 4.4250313345182599e+00 0.0000000000000000e+00  5.9245117840995807e+00 4.5610857562869693e+00 0.0000000000000000e+00  5.8192341090880548e+00 4.6971401780556743e+00 0.0000000000000000e+00  5.7149002225100309e+00 4.8331945998243828e+00 0.0000000000000000e+00  5.6115101243655054e+00 4.9692490215930905e+00 0.0000000000000000e+00  5.5090638146544828e+00 5.1053034433617990e+00 0.0000000000000000e+00  5.4075612933769719e+00 5.2413578651305057e+00 0.0000000000000000e+00  5.3070025605329540e+00 5.3774122868992125e+00 0.0000000000000000e+00  5.2073876161224462e+00 5.5134667086679192e+00 0.0000000000000000e+00  5.1087164601454349e+00 5.6495211304366286e+00 0.0000000000000000e+00  5.0109890926019256e+00 5.7855755522053345e+00 0.0000000000000000e+00  4.9142055134919227e+00 5.9216299739740439e+00 0.0000000000000000e+00  4.8183657228154226e+00 6.0576843957427480e+00 0.0000000000000000e+00  4.7234697205724245e+00 6.1937388175114574e+00 0.0000000000000000e+00  4.6295175067629275e+00 6.3297932392801686e+00 0.0000000000000000e+00  4.5365090813869342e+00 6.4658476610488718e+00 0.0000000000000000e+00  4.4444444444444446e+00 6.6019020828175803e+00 0.0000000000000000e+00  4.3533235959354561e+00 6.7379565045862870e+00 0.0000000000000000e+00  4.2631465358599714e+00 6.8740109263549938e+00 0.0000000000000000e+00  4.1739132642179886e+00 7.0100653481237059e+00 0.0000000000000000e+00  4.0856237810095077e+00 7.1461197698924073e+00 0.0000000000000000e+00  3.9982780862345320e+00 7.2821741916611193e+00 0.0000000000000000e+00  3.9618000000000007e+00 7.3396343122977861e+00 0.0000000000000000e+00  3.9618000000000011e+00 7.3396343122977870e+00 0.0000000000000000e+00  3.9618000000000007e+00 7.3396343122977870e+00 0.0000000000000000e+00  3.9618000000000011e+00 7.3396343122977861e+00 0.0000000000000000e+00  3.9618000000000007e+00 7.3396343122977878e+00 0.0000000000000000e+00  3.9618000000000007e+00 7.3396343122977878e+00 0.0000000000000000e+00  3.9618000000000011e+00 7.3396343122977870e+00 0.0000000000000000e+00  3.9618000000000007e+00 7.3396343122977870e+00 0.0000000000000000e+00  3.9618000000000011e+00 7.3396343122977861e+00 0.0000000000000000e+00  3.9618000000000007e+00 7.3396343122977878e+00 0.0000000000000000e+00  3.9618000000000007e+00 7.3396343122977878e+00 0.0000000000000000e+00  3.9618000000000011e+00 7.3396343122977870e+00 0.0000000000000000e+00  3.9618000000000007e+00 7.3396343122977870e+00 0.0000000000000000e+00  3.9618000000000011e+00 7.3396343122977861e+00 0.0000000000000000e+00  3.9618000000000007e+00 7.3396343122977878e+00 0.0000000000000000e+00  3.9618000000000007e+00 7.3396343122977878e+00 0.0000000000000000e+00  3.9618000000000011e+00 7.3396343122977870e+00 0.0000000000000000e+00  3.9618000000000007e+00 7.3396343122977870e+00 0.0000000000000000e+00  3.9618000000000011e+00 7.3396343122977861e+00 0.0000000000000000e+00  3.9618000000000007e+00 7.3396343122977878e+00 0.0000000000000000e+00  3.9618000000000007e+00 7.3396343122977878e+00 0.0000000000000000e+00  3.9618000000000011e+00 7.3396343122977870e+00 0.0000000000000000e+00  3.9618000000000007e+00 7.3396343122977870e+00 0.0000000000000000e+00  3.9618000000000011e+00 7.3396343122977861e+00 0.0000000000000000e+00  3.9618000000000007e+00 7.3396343122977878e+00 0.0000000000000000e+00  3.9618000000000007e+00 7.3396343122977878e+00 0.0000000000000000e+00  3.9618000000000011e+00 7.3396343122977870e+00 0.0000000000000000e+00  3.9618000000000007e+00 7.3396343122977870e+00 0.0000000000000000e+00  3.9618000000000011e+00 7.3396343122977861e+00 0.0000000000000000e+00  3.9618000000000007e+00 7.3396343122977878e+00 0.0000000000000000e+00  3.9618000000000007e+00 7.3396343122977878e+00 0.0000000000000000e+00  3.9618000000000011e+00 7.3396343122977870e+00 0.0000000000000000e+00  3.9618000000000007e+00 7.3396343122977870e+00 0.0000000000000000e+00  3.9618000000000011e+00 7.3396343122977861e+00 0.0000000000000000e+00  3.9618000000000007e+00 7.3396343122977878e+00 0.0000000000000000e+00  3.9618000000000007e+00 7.3396343122977878e+00 0.0000000000000000e+00  3.9618000000000011e+00 7.3396343122977870e+00 0.0000000000000000e+00  3.9618000000000007e+00 7.3396343122977870e+00 0.0000000000000000e+00  3.9618000000000011e+00 7.3396343122977861e+00 0.0000000000000000e+00  3.9618000000000007e+00 7.3396343122977878e+00 0.0000000000000000e+00  3.9618000000000007e+00 7.3396343122977878e+00 0.0000000000000000e+00  3.9618000000000007e+00 7.3396343122977870e+00 0.0000000000000000e+00  3.9618000000000015e+00 7.3396343122977870e+00 0.0000000000000000e+00  9.9999999999999989e-01 2.4037033579794615e-16 0.0000000000000000e+00  1.0000000000000002e+00 -6.4407037361457424e-17 0.0000000000000000e+00  1.0000000000000000e+00 1.7257813647883649e-17 0.0000000000000000e+00  1.0000000000000000e+00 -4.6242172300771946e-18 0.0000000000000000e+00  1.0000000000000002e+00 1.2390552724252770e-18 0.0000000000000000e+00  1.0000000000000002e+00 -3.3200385962387764e-19 0.0000000000000000e+00  1.0000000000000000e+00 8.8960166070233796e-20 0.0000000000000000e+00  1.0000000000000000e+00 -2.3836804657057682e-20 0.0000000000000000e+00  1.0000000000000000e+00 6.3870525579969808e-21 0.0000000000000000e+00  1.0000000000000002e+00 -1.7114055749304404e-21 0.0000000000000000e+00  1.0000000000000002e+00 4.5856974172473236e-22 0.0000000000000000e+00  9.9999999999999989e-01 -1.2287339196848963e-22 0.0000000000000000e+00  1.0000000000000004e+00 3.2923826149230090e-23 0.0000000000000000e+00  9.9999999999999989e-01 -8.8219126284287439e-24 0.0000000000000000e+00  1.0000000000000004e+00 2.3638243644854402e-24 0.0000000000000000e+00  1.0000000000000000e+00 -6.3338482951287501e-25 0.0000000000000000e+00  1.0000000000000002e+00 1.6971495356609926e-25 0.0000000000000000e+00  1.0000000000000002e+00 -4.5474984751522469e-26 0.0000000000000000e+00  9.9999999999999989e-01 1.2184985439987874e-26 0.0000000000000000e+00  1.0000000000000004e+00 -3.2649570084297874e-27 0.0000000000000000e+00  1.0000000000000000e+00 8.7484259373108112e-28 0.0000000000000000e+00  1.0000000000000002e+00 -2.3441336649459210e-28 0.0000000000000000e+00  1.0000000000000002e+00 6.2810872247287687e-29 0.0000000000000000e+00  9.9999999999999989e-01 -1.6830122494554890e-29 0.0000000000000000e+00  1.0000000000000004e+00 4.5096177309329226e-30 0.0000000000000000e+00  1.0000000000000000e+00 -1.2083484291765287e-30 0.0000000000000000e+00  1.0000000000000002e+00 3.2377598577326668e-31 0.0000000000000000e+00  1.0000000000000002e+00 -8.6755513916538757e-32 0.0000000000000000e+00  9.9999999999999989e-01 2.3246069892883225e-32 0.0000000000000000e+00  1.0000000000000004e+00 -6.2287656549955881e-33 0.0000000000000000e+00  1.0000000000000000e+00 1.6689927270987531e-33 0.0000000000000000e+00  1.0000000000000002e+00 -4.4720525339952842e-34 0.0000000000000000e+00  1.0000000000000002e+00 1.1982828649936102e-34 0.0000000000000000e+00  9.9999999999999989e-01 -3.2107892597908481e-35 0.0000000000000000e+00  1.0000000000000004e+00 8.6032838922749280e-36 0.0000000000000000e+00  1.0000000000000000e+00 -2.3052429711907148e-36 0.0000000000000000e+00  1.0000000000000002e+00 6.1768799248807417e-37 0.0000000000000000e+00  1.0000000000000002e+00 -1.6550899876158336e-37 0.0000000000000000e+00  9.9999999999999989e-01 4.4348002558249313e-38 0.0000000000000000e+00  1.0000000000000004e+00 -1.1883011471416652e-38 0.0000000000000000e+00  1.0000000000000000e+00 3.1840433274165779e-39 0.0000000000000000e+00  1.0000000000000002e+00 -8.5316183824985939e-40 0.0000000000000000e+00  1.0000000000000002e+00 2.2860402558286186e-40 0.0000000000000000e+00  9.9999999999999989e-01 -6.1254264081574417e-41 0.0000000000000000e+00  1.0000000000000004e+00 1.6413030743439588e-41 0.0000000000000000e+00  1.0000000000000000e+00 -4.3978588921829664e-42 0.0000000000000000e+00  1.0000000000000002e+00 1.1784048252925495e-42 0.0000000000000000e+00  1.0000000000000002e+00 -3.1576040898723486e-43 0.0000000000000000e+00  9.9999999999999989e-01 8.4636810656370919e-44 0.0000000000000000e+00  1.0000000000000004e+00 -2.2786833638254046e-44 0.0000000000000000e+00  1.0000000000000000e+00 6.5105238966439104e-45 0.0000000000000000e+00  1.0000000000000002e+00 -3.2552619483219540e-45 0.0000000000000000e+00  </DataArray> 
</PointData> 
</Piece>
</UnstructuredGrid>
</VTKFile>