<?xml version="1.0"?>
<VTKFile type="UnstructuredGrid"  version="0.1"  >
<UnstructuredGrid>
<Piece  NumberOfPoints="201" NumberOfCells="200">
<Points>
<DataArray  type="Float64"  NumberOfComponents="3"  format="ascii">-5 0 0  -4.95 0 0  -4.9 0 0  -4.85 0 0  -4.8 0 0  -4.75 0 0  -4.7 0 0  -4.65 0 0  -4.6 0 0  -4.55 0 0  -4.5 0 0  -4.45 0 0  -4.4 0 0  -4.35 0 0  -4.3 0 0  -4.25 0 0  -4.2 0 0  -4.15 0 0  -4.1 0 0  -4.05 0 0  -4 0 0  -3.95 0 0  -3.9 0 0  -3.85 0 0  -3.8 0 0  -3.75 0 0  -3.7 0 0  -3.65 0 0  -3.6 0 0  -3.55 0 0  -3.5 0 0  -3.45 0 0  -3.4 0 0  -3.35 0 0  -3.3 0 0  -3.25 0 0  -3.2 0 0  -3.15 0 0  -3.1 0 0  -3.05 0 0  -3 0 0  -2.95 0 0  -2.9 0 0  -2.85 0 0  -2.8 0 0  -2.75 0 0  -2.7 0 0  -2.65 0 0  -2.6 0 0  -2.55 0 0  -2.5 0 0  -2.45 0 0  -2.4 0 0  -2.35 0 0  -2.3 0 0  -2.25 0 0  -2.2 0 0  -2.15 0 0  -2.1 0 0  -2.05 0 0  -2 0 0  -1.95 0 0  -1.9 0 0  -1.85 0 0  -1.8 0 0  -1.75 0 0  -1.7 0 0  -1.65 0 0  -1.6 0 0  -1.55 0 0  -1.5 0 0  -1.45 0 0  -1.4 0 0  -1.35 0 0  -1.3 0 0  -1.25 0 0  -1.2 0 0  -1.15 0 0  -1.1 0 0  -1.05 0 0  -1 0 0  -0.9500000000000002 0 0  -0.9000000000000004 0 0  -0.8499999999999996 0 0  -0.7999999999999998 0 0  -0.75 0 0  -0.7000000000000002 0 0  -0.6500000000000004 0 0  -0.5999999999999996 0 0  -0.5499999999999998 0 0  -0.5 0 0  -0.4500000000000002 0 0  -0.4000000000000004 0 0  -0.3499999999999996 0 0  -0.2999999999999998 0 0  -0.25 0 0  -0.2000000000000002 0 0  -0.1500000000000004 0 0  -0.09999999999999964 0 0  -0.04999999999999982 0 0  0 0 0  0.04999999999999982 0 0  0.09999999999999964 0 0  0.1500000000000004 0 0  0.2000000000000002 0 0  0.25 0 0  0.2999999999999998 0 0  0.3499999999999996 0 0  0.4000000000000004 0 0  0.4500000000000002 0 0  0.5 0 0  0.5499999999999998 0 0  0.5999999999999996 0 0  0.6500000000000004 0 0  0.7000000000000002 0 0  0.75 0 0  0.7999999999999998 0 0  0.8499999999999996 0 0  0.9000000000000004 0 0  0.9500000000000002 0 0  1 0 0  1.05 0 0  1.1 0 0  1.15 0 0  1.2 0 0  1.25 0 0  1.3 0 0  1.35 0 0  1.4 0 0  1.45 0 0  1.5 0 0  1.55 0 0  1.6 0 0  1.65 0 0  1.7 0 0  1.75 0 0  1.8 0 0  1.85 0 0  1.9 0 0  1.95 0 0  2 0 0  2.05 0 0  2.1 0 0  2.15 0 0  2.2 0 0  2.25 0 0  2.3 0 0  2.35 0 0  2.4 0 0  2.45 0 0  2.5 0 0  2.55 0 0  2.6 0 0  2.65 0 0  2.7 0 0  2.75 0 0  2.8 0 0  2.85 0 0  2.9 0 0  2.95 0 0  3 0 0  3.050000000000001 0 0  3.1 0 0  3.15 0 0  3.199999999999999 0 0  3.25 0 0  3.300000000000001 0 0  3.35 0 0  3.4 0 0  3.449999999999999 0 0  3.5 0 0  3.550000000000001 0 0  3.6 0 0  3.65 0 0  3.699999999999999 0 0  3.75 0 0  3.800000000000001 0 0  3.85 0 0  3.9 0 0  3.949999999999999 0 0  4 0 0  4.050000000000001 0 0  4.1 0 0  4.15 0 0  4.199999999999999 0 0  4.25 0 0  4.300000000000001 0 0  4.35 0 0  4.4 0 0  4.449999999999999 0 0  4.5 0 0  4.550000000000001 0 0  4.6 0 0  4.65 0 0  4.699999999999999 0 0  4.75 0 0  4.800000000000001 0 0  4.85 0 0  4.9 0 0  4.949999999999999 0 0  5 0 0  </DataArray>
</Points>
<Cells>
<DataArray  type="UInt32"  Name="connectivity"  format="ascii">0 1  1 2  2 3  3 4  4 5  5 6  6 7  7 8  8 9  9 10  10 11  11 12  12 13  13 14  14 15  15 16  16 17  17 18  18 19  19 20  20 21  21 22  22 23  23 24  24 25  25 26  26 27  27 28  28 29  29 30  30 31  31 32  32 33  33 34  34 35  35 36  36 37  37 38  38 39  39 40  40 41  41 42  42 43  43 44  44 45  45 46  46 47  47 48  48 49  49 50  50 51  51 52  52 53  53 54  54 55  55 56  56 57  57 58  58 59  59 60  60 61  61 62  62 63  63 64  64 65  65 66  66 67  67 68  68 69  69 70  70 71  71 72  72 73  73 74  74 75  75 76  76 77  77 78  78 79  79 80  80 81  81 82  82 83  83 84  84 85  85 86  86 87  87 88  88 89  89 90  90 91  91 92  92 93  93 94  94 95  95 96  96 97  97 98  98 99  99 100  100 101  101 102  102 103  103 104  104 105  105 106  106 107  107 108  108 109  109 110  110 111  111 112  112 113  113 114  114 115  115 116  116 117  117 118  118 119  119 120  120 121  121 122  122 123  123 124  124 125  125 126  126 127  127 128  128 129  129 130  130 131  131 132  132 133  133 134  134 135  135 136  136 137  137 138  138 139  139 140  140 141  141 142  142 143  143 144  144 145  145 146  146 147  147 148  148 149  149 150  150 151  151 152  152 153  153 154  154 155  155 156  156 157  157 158  158 159  159 160  160 161  161 162  162 163  163 164  164 165  165 166  166 167  167 168  168 169  169 170  170 171  171 172  172 173  173 174  174 175  175 176  176 177  177 178  178 179  179 180  180 181  181 182  182 183  183 184  184 185  185 186  186 187  187 188  188 189  189 190  190 191  191 192  192 193  193 194  194 195  195 196  196 197  197 198  198 199  199 200  </DataArray>
<DataArray  type="UInt32"  Name="offsets"  format="ascii">2 4 6 8 10 12 14 16 18 20 22 24 26 28 30 32 34 36 38 40 42 44 46 48 50 52 54 56 58 60 62 64 66 68 70 72 74 76 78 80 82 84 86 88 90 92 94 96 98 100 102 104 106 108 110 112 114 116 118 120 122 124 126 128 130 132 134 136 138 140 142 144 146 148 150 152 154 156 158 160 162 164 166 168 170 172 174 176 178 180 182 184 186 188 190 192 194 196 198 200 202 204 206 208 210 212 214 216 218 220 222 224 226 228 230 232 234 236 238 240 242 244 246 248 250 252 254 256 258 260 262 264 266 268 270 272 274 276 278 280 282 284 286 288 290 292 294 296 298 300 302 304 306 308 310 312 314 316 318 320 322 324 326 328 330 332 334 336 338 340 342 344 346 348 350 352 354 356 358 360 362 364 366 368 370 372 374 376 378 380 382 384 386 388 390 392 394 396 398 400 </DataArray>
<DataArray  type="UInt8"  Name="types"  format="ascii">3 3 3 3 3 3 3 3 3 3 3 3 3 3 3 3 3 3 3 3 3 3 3 3 3 3 3 3 3 3 3 3 3 3 3 3 3 3 3 3 3 3 3 3 3 3 3 3 3 3 3 3 3 3 3 3 3 3 3 3 3 3 3 3 3 3 3 3 3 3 3 3 3 3 3 3 3 3 3 3 3 3 3 3 3 3 3 3 3 3 3 3 3 3 3 3 3 3 3 3 3 3 3 3 3 3 3 3 3 3 3 3 3 3 3 3 3 3 3 3 3 3 3 3 3 3 3 3 3 3 3 3 3 3 3 3 3 3 3 3 3 3 3 3 3 3 3 3 3 3 3 3 3 3 3 3 3 3 3 3 3 3 3 3 3 3 3 3 3 3 3 3 3 3 3 3 3 3 3 3 3 3 3 3 3 3 3 3 3 3 3 3 3 3 3 3 3 3 3 3 </DataArray>
</Cells>
<PointData  Vectors="f_5"> 
<DataArray  type="Float64"  Name="f_5"  NumberOfComponents="3" format="ascii">1.0000000000000002e+01 0.0000000000000000e+00 0.0000000000000000e+00  1.0000000000000002e+01 0.0000000000000000e+00 0.0000000000000000e+00  1.0000000000000002e+01 0.0000000000000000e+00 0.0000000000000000e+00  1.0000000000000002e+01 0.0000000000000000e+00 0.0000000000000000e+00  1.0000000000000002e+01 0.0000000000000000e+00 0.0000000000000000e+00  1.0000000000000004e+01 0.0000000000000000e+00 0.0000000000000000e+00  1.0000000000000002e+01 0.0000000000000000e+00 0.0000000000000000e+00  1.0000000000000004e+01 0.0000000000000000e+00 0.0000000000000000e+00  1.0000000000000002e+01 0.0000000000000000e+00 0.0000000000000000e+00  1.0000000000000002e+01 0.0000000000000000e+00 0.0000000000000000e+00  1.0000000000000004e+01 0.0000000000000000e+00 0.0000000000000000e+00  1.0000000000000000e+01 0.0000000000000000e+00 0.0000000000000000e+00  1.0000000000000002e+01 0.0000000000000000e+00 0.0000000000000000e+00  1.0000000000000002e+01 0.0000000000000000e+00 0.0000000000000000e+00  1.0000000000000004e+01 0.0000000000000000e+00 0.0000000000000000e+00  1.0000000000000002e+01 0.0000000000000000e+00 0.0000000000000000e+00  1.0000000000000002e+01 0.0000000000000000e+00 0.0000000000000000e+00  1.0000000000000004e+01 0.0000000000000000e+00 0.0000000000000000e+00  1.0000000000000002e+01 0.0000000000000000e+00 0.0000000000000000e+00  9.9999999999999982e+00 0.0000000000000000e+00 0.0000000000000000e+00  1.0000000000000002e+01 0.0000000000000000e+00 0.0000000000000000e+00  1.0000000000000004e+01 0.0000000000000000e+00 0.0000000000000000e+00  1.0000000000000002e+01 0.0000000000000000e+00 0.0000000000000000e+00  1.0000000000000002e+01 0.0000000000000000e+00 0.0000000000000000e+00  1.0000000000000004e+01 0.0000000000000000e+00 0.0000000000000000e+00  1.0000000000000004e+01 0.0000000000000000e+00 0.0000000000000000e+00  1.0000000000000002e+01 0.0000000000000000e+00 0.0000000000000000e+00  1.0000000000000004e+01 0.0000000000000000e+00 0.0000000000000000e+00  1.0000000000000002e+01 0.0000000000000000e+00 0.0000000000000000e+00  1.0000000000000004e+01 0.0000000000000000e+00 0.0000000000000000e+00  1.0000000000000004e+01 0.0000000000000000e+00 0.0000000000000000e+00  1.0000000000000002e+01 0.0000000000000000e+00 0.0000000000000000e+00  1.0000000000000004e+01 0.0000000000000000e+00 0.0000000000000000e+00  1.0000000000000002e+01 0.0000000000000000e+00 0.0000000000000000e+00  1.0000000000000004e+01 0.0000000000000000e+00 0.0000000000000000e+00  9.9634324057166719e+00 3.6245517161014838e-02 0.0000000000000000e+00  9.8618781692990432e+00 1.3725561817111515e-01 0.0000000000000000e+00  9.7608441431726920e+00 2.3826571918121675e-01 0.0000000000000000e+00  9.6603303273376309e+00 3.3927582019131691e-01 0.0000000000000000e+00  9.5603367217938526e+00 4.4028592120141863e-01 0.0000000000000000e+00  9.4608633265413626e+00 5.4129602221152007e-01 0.0000000000000000e+00  9.3619101415801573e+00 6.4230612322162051e-01 0.0000000000000000e+00  9.2634771669102332e+00 7.4331622423172194e-01 0.0000000000000000e+00  9.1655644025316008e+00 8.4432632524182216e-01 0.0000000000000000e+00  9.0681718484442548e+00 9.4533642625192371e-01 0.0000000000000000e+00  8.9712995046481883e+00 1.0463465272620254e+00 0.0000000000000000e+00  8.8749473711434135e+00 1.1473566282721255e+00 0.0000000000000000e+00  8.7791154479299163e+00 1.2483667292822271e+00 0.0000000000000000e+00  8.6838037350077126e+00 1.3493768302923272e+00 0.0000000000000000e+00  8.5890122323767919e+00 1.4503869313024293e+00 0.0000000000000000e+00  8.4947409400371576e+00 1.5513970323125292e+00 0.0000000000000000e+00  8.4009898579888045e+00 1.6524071333226300e+00 0.0000000000000000e+00  8.3077589862317449e+00 1.7534172343327319e+00 0.0000000000000000e+00  8.2150483247659611e+00 1.8544273353428327e+00 0.0000000000000000e+00  8.1228578735914709e+00 1.9554374363529341e+00 0.0000000000000000e+00  8.0311876327082583e+00 2.0564475373630358e+00 0.0000000000000000e+00  7.9400376021163357e+00 2.1574576383731343e+00 0.0000000000000000e+00  7.8494077818157031e+00 2.2584677393832377e+00 0.0000000000000000e+00  7.7592981718063481e+00 2.3594778403933372e+00 0.0000000000000000e+00  7.6697087720882839e+00 2.4604879414034397e+00 0.0000000000000000e+00  7.5806395826615027e+00 2.5614980424135392e+00 0.0000000000000000e+00  7.4920906035260089e+00 2.6625081434236413e+00 0.0000000000000000e+00  7.4040618346818015e+00 2.7635182444337421e+00 0.0000000000000000e+00  7.3165532761288761e+00 2.8645283454438433e+00 0.0000000000000000e+00  7.2295649278672371e+00 2.9655384464539436e+00 0.0000000000000000e+00  7.1430967898968873e+00 3.0665485474640466e+00 0.0000000000000000e+00  7.0571488622178213e+00 3.1675586484741451e+00 0.0000000000000000e+00  6.9717211448300391e+00 3.2685687494842486e+00 0.0000000000000000e+00  6.8868136377335407e+00 3.3695788504943480e+00 0.0000000000000000e+00  6.8024263409283314e+00 3.4705889515044488e+00 0.0000000000000000e+00  6.7185592544144077e+00 3.5715990525145518e+00 0.0000000000000000e+00  6.6352123781917678e+00 3.6726091535246512e+00 0.0000000000000000e+00  6.5523857122604152e+00 3.7736192545347524e+00 0.0000000000000000e+00  6.4700792566203464e+00 3.8746293555448541e+00 0.0000000000000000e+00  6.3882930112715641e+00 3.9756394565549535e+00 0.0000000000000000e+00  6.3070269762140665e+00 4.0766495575650561e+00 0.0000000000000000e+00  6.2262811514478535e+00 4.1776596585751564e+00 0.0000000000000000e+00  6.1460555369729297e+00 4.2786697595852576e+00 0.0000000000000000e+00  6.0663501327892897e+00 4.3796798605953571e+00 0.0000000000000000e+00  5.9871649388969326e+00 4.4806899616054592e+00 0.0000000000000000e+00  5.9084999552958664e+00 4.5817000626155595e+00 0.0000000000000000e+00  5.8303551819860804e+00 4.6827101636256625e+00 0.0000000000000000e+00  5.7527306189675871e+00 4.7837202646357611e+00 0.0000000000000000e+00  5.6756262662403678e+00 4.8847303656458640e+00 0.0000000000000000e+00  5.5990421238044439e+00 4.9857404666559635e+00 0.0000000000000000e+00  5.5229781916598002e+00 5.0867505676660656e+00 0.0000000000000000e+00  5.4474344698064465e+00 5.1877606686761650e+00 0.0000000000000000e+00  5.3724109582443749e+00 5.2887707696862689e+00 0.0000000000000000e+00  5.2979076569735879e+00 5.3897808706963675e+00 0.0000000000000000e+00  5.2239245659940936e+00 5.4907909717064678e+00 0.0000000000000000e+00  5.1504616853058769e+00 5.5918010727165699e+00 0.0000000000000000e+00  5.0775190149089484e+00 5.6928111737266685e+00 0.0000000000000000e+00  5.0050965548033073e+00 5.7938212747367732e+00 0.0000000000000000e+00  4.9331943049889482e+00 5.8948313757468735e+00 0.0000000000000000e+00  4.8618122654658782e+00 5.9958414767569739e+00 0.0000000000000000e+00  4.7909504362340929e+00 6.0968515777670769e+00 0.0000000000000000e+00  4.7206088172935896e+00 6.1978616787771745e+00 0.0000000000000000e+00  4.6507874086443772e+00 6.2988717797872784e+00 0.0000000000000000e+00  4.5814862102864469e+00 6.3998818807973779e+00 0.0000000000000000e+00  4.5127052222198021e+00 6.5008919818074791e+00 0.0000000000000000e+00  4.4444444444444438e+00 6.6019020828175794e+00 0.0000000000000000e+00  4.3767038769603710e+00 6.7029121838276824e+00 0.0000000000000000e+00  4.3094835197675856e+00 6.8039222848377818e+00 0.0000000000000000e+00  4.2427833728660813e+00 6.9049323858478848e+00 0.0000000000000000e+00  4.1766034362558671e+00 7.0059424868579852e+00 0.0000000000000000e+00  4.1109437099369366e+00 7.1069525878680837e+00 0.0000000000000000e+00  4.0458041939092899e+00 7.2079626888781849e+00 0.0000000000000000e+00  3.9811848881729319e+00 7.3089727898882861e+00 0.0000000000000000e+00  3.9618000000000007e+00 7.3396343122977870e+00 0.0000000000000000e+00  3.9618000000000011e+00 7.3396343122977861e+00 0.0000000000000000e+00  3.9618000000000007e+00 7.3396343122977878e+00 0.0000000000000000e+00  3.9618000000000007e+00 7.3396343122977878e+00 0.0000000000000000e+00  3.9618000000000011e+00 7.3396343122977870e+00 0.0000000000000000e+00  3.9618000000000007e+00 7.3396343122977870e+00 0.0000000000000000e+00  3.9618000000000011e+00 7.3396343122977861e+00 0.0000000000000000e+00  3.9618000000000007e+00 7.3396343122977878e+00 0.0000000000000000e+00  3.9618000000000007e+00 7.3396343122977878e+00 0.0000000000000000e+00  3.9618000000000011e+00 7.3396343122977870e+00 0.0000000000000000e+00  3.9618000000000007e+00 7.3396343122977870e+00 0.0000000000000000e+00  3.9618000000000011e+00 7.3396343122977861e+00 0.0000000000000000e+00  3.9618000000000007e+00 7.3396343122977878e+00 0.0000000000000000e+00  3.9618000000000007e+00 7.3396343122977878e+00 0.0000000000000000e+00  3.9618000000000011e+00 7.3396343122977870e+00 0.0000000000000000e+00  3.9618000000000007e+00 7.3396343122977870e+00 0.0000000000000000e+00  3.9618000000000011e+00 7.3396343122977861e+00 0.0000000000000000e+00  3.9618000000000007e+00 7.3396343122977878e+00 0.0000000000000000e+00  3.9618000000000007e+00 7.3396343122977878e+00 0.0000000000000000e+00  3.9618000000000011e+00 7.3396343122977870e+00 0.0000000000000000e+00  3.9618000000000007e+00 7.3396343122977870e+00 0.0000000000000000e+00  3.9618000000000011e+00 7.3396343122977861e+00 0.0000000000000000e+00  3.9618000000000007e+00 7.3396343122977878e+00 0.0000000000000000e+00  3.9618000000000007e+00 7.3396343122977878e+00 0.0000000000000000e+00  3.9618000000000011e+00 7.3396343122977870e+00 0.0000000000000000e+00  3.9618000000000007e+00 7.3396343122977870e+00 0.0000000000000000e+00  3.9618000000000011e+00 7.3396343122977861e+00 0.0000000000000000e+00  3.9618000000000007e+00 7.3396343122977878e+00 0.0000000000000000e+00  3.9618000000000007e+00 7.3396343122977878e+00 0.0000000000000000e+00  3.9618000000000011e+00 7.3396343122977870e+00 0.0000000000000000e+00  3.9618000000000007e+00 7.3396343122977870e+00 0.0000000000000000e+00  3.9618000000000011e+00 7.3396343122977861e+00 0.0000000000000000e+00  3.9618000000000007e+00 7.3396343122977878e+00 0.0000000000000000e+00  3.9618000000000007e+00 7.3396343122977878e+00 0.0000000000000000e+00  3.9618000000000011e+00 7.3396343122977870e+00 0.0000000000000000e+00  3.9618000000000007e+00 7.3396343122977870e+00 0.0000000000000000e+00  3.9618000000000011e+00 7.3396343122977861e+00 0.0000000000000000e+00  3.9618000000000007e+00 7.3396343122977878e+00 0.0000000000000000e+00  3.9618000000000007e+00 7.3396343122977878e+00 0.0000000000000000e+00  3.9618000000000011e+00 7.3396343122977870e+00 0.0000000000000000e+00  3.9618000000000007e+00 7.3396343122977870e+00 0.0000000000000000e+00  3.9618000000000011e+00 7.3396343122977861e+00 0.0000000000000000e+00  3.9618000000000007e+00 7.3396343122977878e+00 0.0000000000000000e+00  3.9618000000000007e+00 7.3396343122977878e+00 0.0000000000000000e+00  3.9618000000000011e+00 7.3396343122977870e+00 0.0000000000000000e+00  3.9618000000000007e+00 7.3396343122977870e+00 0.0000000000000000e+00  3.9618000000000011e+00 7.3396343122977861e+00 0.0000000000000000e+00  3.9618000000000007e+00 7.3396343122977878e+00 0.0000000000000000e+00  3.9618000000000007e+00 7.3396343122977878e+00 0.0000000000000000e+00  3.9618000000000011e+00 7.3396343122977870e+00 0.0000000000000000e+00  3.9618000000000007e+00 7.3396343122977870e+00 0.0000000000000000e+00  3.9618000000000007e+00 7.3396343122977861e+00 0.0000000000000000e+00  3.9618000000000011e+00 7.3396343122977870e+00 0.0000000000000000e+00  3.9618000000000011e+00 7.3396343122977887e+00 0.0000000000000000e+00  3.9618000000000007e+00 7.3396343122977878e+00 0.0000000000000000e+00  3.9618000000000007e+00 7.3396343122977887e+00 0.0000000000000000e+00  3.9618000000000007e+00 7.3396343122977870e+00 0.0000000000000000e+00  1.0000000000000004e+00 7.2111100739382782e-16 0.0000000000000000e+00  1.0000000000000002e+00 -1.9322111208437242e-16 0.0000000000000000e+00  9.9999999999999989e-01 5.1773440943650235e-17 0.0000000000000000e+00  1.0000000000000004e+00 -1.3872651690231710e-17 0.0000000000000000e+00  1.0000000000000000e+00 3.7171658172757743e-18 0.0000000000000000e+00  1.0000000000000002e+00 -9.9601157887161861e-19 0.0000000000000000e+00  1.0000000000000002e+00 2.6688049821070163e-19 0.0000000000000000e+00  9.9999999999999989e-01 -7.1510413971172063e-20 0.0000000000000000e+00  1.0000000000000004e+00 1.9161157673991116e-20 0.0000000000000000e+00  1.0000000000000000e+00 -5.1342167247912423e-21 0.0000000000000000e+00  1.0000000000000002e+00 1.3757092251741781e-21 0.0000000000000000e+00  1.0000000000000002e+00 -3.6862017590547205e-22 0.0000000000000000e+00  9.9999999999999989e-01 9.8771478447688090e-23 0.0000000000000000e+00  1.0000000000000004e+00 -2.6465737885286462e-23 0.0000000000000000e+00  1.0000000000000000e+00 7.0914730934561568e-24 0.0000000000000000e+00  1.0000000000000002e+00 -1.9001544885386135e-24 0.0000000000000000e+00  1.0000000000000002e+00 5.0914486069830205e-25 0.0000000000000000e+00  9.9999999999999989e-01 -1.3642495425456438e-25 0.0000000000000000e+00  1.0000000000000004e+00 3.6554956319963934e-26 0.0000000000000000e+00  1.0000000000000000e+00 -9.7948710252891375e-27 0.0000000000000000e+00  1.0000000000000002e+00 2.6245277811932288e-27 0.0000000000000000e+00  1.0000000000000002e+00 -7.0324009948378257e-28 0.0000000000000000e+00  9.9999999999999989e-01 1.8843261674185921e-28 0.0000000000000000e+00  1.0000000000000004e+00 -5.0490367483666067e-29 0.0000000000000000e+00  1.0000000000000000e+00 1.3528853192801994e-29 0.0000000000000000e+00  1.0000000000000002e+00 -3.6250452875427585e-30 0.0000000000000000e+00  1.0000000000000002e+00 9.7132795736904750e-31 0.0000000000000000e+00  9.9999999999999989e-01 -2.6026654193337348e-31 0.0000000000000000e+00  1.0000000000000004e+00 6.9738210364462374e-32 0.0000000000000000e+00  1.0000000000000000e+00 -1.8686299524471855e-32 0.0000000000000000e+00  1.0000000000000002e+00 5.0069877334262145e-33 0.0000000000000000e+00  1.0000000000000002e+00 -1.3416514092330111e-33 0.0000000000000000e+00  9.9999999999999989e-01 3.5961790350574998e-34 0.0000000000000000e+00  1.0000000000000004e+00 -9.6820204790011043e-35 0.0000000000000000e+00  1.0000000000000000e+00 2.7662915654288433e-35 0.0000000000000000e+00  1.0000000000000002e+00 -1.3831457827144211e-35 0.0000000000000000e+00  </DataArray> 
</PointData> 
</Piece>
</UnstructuredGrid>
</VTKFile>