<?xml version="1.0"?>
<VTKFile type="UnstructuredGrid"  version="0.1"  >
<UnstructuredGrid>
<Piece  NumberOfPoints="201" NumberOfCells="200">
<Points>
<DataArray  type="Float64"  NumberOfComponents="3"  format="ascii">-5 0 0  -4.95 0 0  -4.9 0 0  -4.85 0 0  -4.8 0 0  -4.75 0 0  -4.7 0 0  -4.65 0 0  -4.6 0 0  -4.55 0 0  -4.5 0 0  -4.45 0 0  -4.4 0 0  -4.35 0 0  -4.3 0 0  -4.25 0 0  -4.2 0 0  -4.15 0 0  -4.1 0 0  -4.05 0 0  -4 0 0  -3.95 0 0  -3.9 0 0  -3.85 0 0  -3.8 0 0  -3.75 0 0  -3.7 0 0  -3.65 0 0  -3.6 0 0  -3.55 0 0  -3.5 0 0  -3.45 0 0  -3.4 0 0  -3.35 0 0  -3.3 0 0  -3.25 0 0  -3.2 0 0  -3.15 0 0  -3.1 0 0  -3.05 0 0  -3 0 0  -2.95 0 0  -2.9 0 0  -2.85 0 0  -2.8 0 0  -2.75 0 0  -2.7 0 0  -2.65 0 0  -2.6 0 0  -2.55 0 0  -2.5 0 0  -2.45 0 0  -2.4 0 0  -2.35 0 0  -2.3 0 0  -2.25 0 0  -2.2 0 0  -2.15 0 0  -2.1 0 0  -2.05 0 0  -2 0 0  -1.95 0 0  -1.9 0 0  -1.85 0 0  -1.8 0 0  -1.75 0 0  -1.7 0 0  -1.65 0 0  -1.6 0 0  -1.55 0 0  -1.5 0 0  -1.45 0 0  -1.4 0 0  -1.35 0 0  -1.3 0 0  -1.25 0 0  -1.2 0 0  -1.15 0 0  -1.1 0 0  -1.05 0 0  -1 0 0  -0.9500000000000002 0 0  -0.9000000000000004 0 0  -0.8499999999999996 0 0  -0.7999999999999998 0 0  -0.75 0 0  -0.7000000000000002 0 0  -0.6500000000000004 0 0  -0.5999999999999996 0 0  -0.5499999999999998 0 0  -0.5 0 0  -0.4500000000000002 0 0  -0.4000000000000004 0 0  -0.3499999999999996 0 0  -0.2999999999999998 0 0  -0.25 0 0  -0.2000000000000002 0 0  -0.1500000000000004 0 0  -0.09999999999999964 0 0  -0.04999999999999982 0 0  0 0 0  0.04999999999999982 0 0  0.09999999999999964 0 0  0.1500000000000004 0 0  0.2000000000000002 0 0  0.25 0 0  0.2999999999999998 0 0  0.3499999999999996 0 0  0.4000000000000004 0 0  0.4500000000000002 0 0  0.5 0 0  0.5499999999999998 0 0  0.5999999999999996 0 0  0.6500000000000004 0 0  0.7000000000000002 0 0  0.75 0 0  0.7999999999999998 0 0  0.8499999999999996 0 0  0.9000000000000004 0 0  0.9500000000000002 0 0  1 0 0  1.05 0 0  1.1 0 0  1.15 0 0  1.2 0 0  1.25 0 0  1.3 0 0  1.35 0 0  1.4 0 0  1.45 0 0  1.5 0 0  1.55 0 0  1.6 0 0  1.65 0 0  1.7 0 0  1.75 0 0  1.8 0 0  1.85 0 0  1.9 0 0  1.95 0 0  2 0 0  2.05 0 0  2.1 0 0  2.15 0 0  2.2 0 0  2.25 0 0  2.3 0 0  2.35 0 0  2.4 0 0  2.45 0 0  2.5 0 0  2.55 0 0  2.6 0 0  2.65 0 0  2.7 0 0  2.75 0 0  2.8 0 0  2.85 0 0  2.9 0 0  2.95 0 0  3 0 0  3.050000000000001 0 0  3.1 0 0  3.15 0 0  3.199999999999999 0 0  3.25 0 0  3.300000000000001 0 0  3.35 0 0  3.4 0 0  3.449999999999999 0 0  3.5 0 0  3.550000000000001 0 0  3.6 0 0  3.65 0 0  3.699999999999999 0 0  3.75 0 0  3.800000000000001 0 0  3.85 0 0  3.9 0 0  3.949999999999999 0 0  4 0 0  4.050000000000001 0 0  4.1 0 0  4.15 0 0  4.199999999999999 0 0  4.25 0 0  4.300000000000001 0 0  4.35 0 0  4.4 0 0  4.449999999999999 0 0  4.5 0 0  4.550000000000001 0 0  4.6 0 0  4.65 0 0  4.699999999999999 0 0  4.75 0 0  4.800000000000001 0 0  4.85 0 0  4.9 0 0  4.949999999999999 0 0  5 0 0  </DataArray>
</Points>
<Cells>
<DataArray  type="UInt32"  Name="connectivity"  format="ascii">0 1  1 2  2 3  3 4  4 5  5 6  6 7  7 8  8 9  9 10  10 11  11 12  12 13  13 14  14 15  15 16  16 17  17 18  18 19  19 20  20 21  21 22  22 23  23 24  24 25  25 26  26 27  27 28  28 29  29 30  30 31  31 32  32 33  33 34  34 35  35 36  36 37  37 38  38 39  39 40  40 41  41 42  42 43  43 44  44 45  45 46  46 47  47 48  48 49  49 50  50 51  51 52  52 53  53 54  54 55  55 56  56 57  57 58  58 59  59 60  60 61  61 62  62 63  63 64  64 65  65 66  66 67  67 68  68 69  69 70  70 71  71 72  72 73  73 74  74 75  75 76  76 77  77 78  78 79  79 80  80 81  81 82  82 83  83 84  84 85  85 86  86 87  87 88  88 89  89 90  90 91  91 92  92 93  93 94  94 95  95 96  96 97  97 98  98 99  99 100  100 101  101 102  102 103  103 104  104 105  105 106  106 107  107 108  108 109  109 110  110 111  111 112  112 113  113 114  114 115  115 116  116 117  117 118  118 119  119 120  120 121  121 122  122 123  123 124  124 125  125 126  126 127  127 128  128 129  129 130  130 131  131 132  132 133  133 134  134 135  135 136  136 137  137 138  138 139  139 140  140 141  141 142  142 143  143 144  144 145  145 146  146 147  147 148  148 149  149 150  150 151  151 152  152 153  153 154  154 155  155 156  156 157  157 158  158 159  159 160  160 161  161 162  162 163  163 164  164 165  165 166  166 167  167 168  168 169  169 170  170 171  171 172  172 173  173 174  174 175  175 176  176 177  177 178  178 179  179 180  180 181  181 182  182 183  183 184  184 185  185 186  186 187  187 188  188 189  189 190  190 191  191 192  192 193  193 194  194 195  195 196  196 197  197 198  198 199  199 200  </DataArray>
<DataArray  type="UInt32"  Name="offsets"  format="ascii">2 4 6 8 10 12 14 16 18 20 22 24 26 28 30 32 34 36 38 40 42 44 46 48 50 52 54 56 58 60 62 64 66 68 70 72 74 76 78 80 82 84 86 88 90 92 94 96 98 100 102 104 106 108 110 112 114 116 118 120 122 124 126 128 130 132 134 136 138 140 142 144 146 148 150 152 154 156 158 160 162 164 166 168 170 172 174 176 178 180 182 184 186 188 190 192 194 196 198 200 202 204 206 208 210 212 214 216 218 220 222 224 226 228 230 232 234 236 238 240 242 244 246 248 250 252 254 256 258 260 262 264 266 268 270 272 274 276 278 280 282 284 286 288 290 292 294 296 298 300 302 304 306 308 310 312 314 316 318 320 322 324 326 328 330 332 334 336 338 340 342 344 346 348 350 352 354 356 358 360 362 364 366 368 370 372 374 376 378 380 382 384 386 388 390 392 394 396 398 400 </DataArray>
<DataArray  type="UInt8"  Name="types"  format="ascii">3 3 3 3 3 3 3 3 3 3 3 3 3 3 3 3 3 3 3 3 3 3 3 3 3 3 3 3 3 3 3 3 3 3 3 3 3 3 3 3 3 3 3 3 3 3 3 3 3 3 3 3 3 3 3 3 3 3 3 3 3 3 3 3 3 3 3 3 3 3 3 3 3 3 3 3 3 3 3 3 3 3 3 3 3 3 3 3 3 3 3 3 3 3 3 3 3 3 3 3 3 3 3 3 3 3 3 3 3 3 3 3 3 3 3 3 3 3 3 3 3 3 3 3 3 3 3 3 3 3 3 3 3 3 3 3 3 3 3 3 3 3 3 3 3 3 3 3 3 3 3 3 3 3 3 3 3 3 3 3 3 3 3 3 3 3 3 3 3 3 3 3 3 3 3 3 3 3 3 3 3 3 3 3 3 3 3 3 3 3 3 3 3 3 3 3 3 3 3 3 </DataArray>
</Cells>
<PointData  Vectors="f_5"> 
<DataArray  type="Float64"  Name="f_5"  NumberOfComponents="3" format="ascii">1.0000000000000002e+01 4.1468141847106744e-56 0.0000000000000000e+00  1.0000000000000002e+01 -8.2936283694213507e-56 0.0000000000000000e+00  1.0000000000000002e+01 2.9027699292974741e-55 0.0000000000000000e+00  1.0000000000000002e+01 -1.0781716880247676e-54 0.0000000000000000e+00  1.0000000000000002e+01 4.0224097591693580e-54 0.0000000000000000e+00  1.0000000000000004e+01 -1.5011467348652669e-53 0.0000000000000000e+00  1.0000000000000002e+01 5.6023459635441344e-53 0.0000000000000000e+00  1.0000000000000004e+01 -2.0908237119311279e-52 0.0000000000000000e+00  1.0000000000000002e+01 7.8030602513700376e-52 0.0000000000000000e+00  1.0000000000000002e+01 -2.9121417293549279e-51 0.0000000000000000e+00  1.0000000000000004e+01 1.0868260892282712e-50 0.0000000000000000e+00  1.0000000000000000e+01 -4.0560901839775934e-50 0.0000000000000000e+00  1.0000000000000002e+01 1.5137534646682107e-49 0.0000000000000000e+00  1.0000000000000002e+01 -5.6494048402750387e-49 0.0000000000000000e+00  1.0000000000000004e+01 2.1083865896432130e-48 0.0000000000000000e+00  1.0000000000000002e+01 -7.8686058745453503e-48 0.0000000000000000e+00  1.0000000000000002e+01 2.9366036908538202e-47 0.0000000000000000e+00  1.0000000000000004e+01 -1.0959554175960751e-46 0.0000000000000000e+00  1.0000000000000002e+01 4.0901613012988861e-46 0.0000000000000000e+00  9.9999999999999982e+00 -1.5264689787599601e-45 0.0000000000000000e+00  1.0000000000000002e+01 5.6968597849099543e-45 0.0000000000000000e+00  1.0000000000000004e+01 -2.1260970160879865e-44 0.0000000000000000e+00  1.0000000000000002e+01 7.9347020858609196e-44 0.0000000000000000e+00  1.0000000000000002e+01 -2.9612711327355822e-43 0.0000000000000000e+00  1.0000000000000004e+01 1.1051614322356197e-42 0.0000000000000000e+00  1.0000000000000004e+01 -4.1245186156689379e-42 0.0000000000000000e+00  1.0000000000000002e+01 1.5392913030440139e-41 0.0000000000000000e+00  1.0000000000000004e+01 -5.7447133506091402e-41 0.0000000000000000e+00  1.0000000000000002e+01 2.1439562099392641e-40 0.0000000000000000e+00  1.0000000000000004e+01 -8.0013535046961113e-40 0.0000000000000000e+00  1.0000000000000004e+01 2.9861457808845314e-39 0.0000000000000000e+00  1.0000000000000002e+01 -1.1144447773068519e-38 0.0000000000000000e+00  1.0000000000000004e+01 4.1591645311389392e-38 0.0000000000000000e+00  1.0000000000000002e+01 -1.5522213347248974e-37 0.0000000000000000e+00  1.0000000000000004e+01 5.7929688857856734e-37 0.0000000000000000e+00  1.0000000000000004e+01 -2.1619654208417888e-36 0.0000000000000000e+00  1.0000000000000002e+01 8.0685647947885919e-36 0.0000000000000000e+00  1.0000000000000004e+01 -3.0112293758312466e-35 0.0000000000000000e+00  1.0000000000000002e+01 1.1238061023846177e-34 0.0000000000000000e+00  1.0000000000000004e+01 -4.1941014719553301e-34 0.0000000000000000e+00  1.0000000000000004e+01 1.5652599785436771e-33 0.0000000000000000e+00  1.0000000000000002e+01 -5.8416297669791776e-33 0.0000000000000000e+00  1.0000000000000004e+01 2.1801259089372953e-32 0.0000000000000000e+00  1.0000000000000002e+01 -8.1363406590512995e-32 0.0000000000000000e+00  1.0000000000000004e+01 3.0365236727267785e-31 0.0000000000000000e+00  1.0000000000000004e+01 -1.1332460625002034e-30 0.0000000000000000e+00  1.0000000000000002e+01 4.2293318827281371e-30 0.0000000000000000e+00  1.0000000000000004e+01 -1.5784081468412284e-29 0.0000000000000000e+00  1.0000000000000002e+01 5.8906993990921269e-29 0.0000000000000000e+00  1.0000000000000004e+01 -2.1984389449527196e-28 0.0000000000000000e+00  1.0000000000000004e+01 8.2046858399017023e-28 0.0000000000000000e+00  1.0000000000000002e+01 -3.0620304414654103e-27 0.0000000000000000e+00  1.0000000000000004e+01 1.1427653181871430e-26 0.0000000000000000e+00  1.0000000000000002e+01 -4.2648582286020496e-26 0.0000000000000000e+00  1.0000000000000004e+01 1.5916667596220993e-25 0.0000000000000000e+00  1.0000000000000004e+01 -5.9401812156282187e-25 0.0000000000000000e+00  1.0000000000000002e+01 2.2169058102890782e-24 0.0000000000000000e+00  1.0000000000000004e+01 -8.2736051195934594e-24 0.0000000000000000e+00  1.0000000000000002e+01 3.0877514668084902e-23 0.0000000000000000e+00  1.0000000000000004e+01 -1.1523645355274570e-22 0.0000000000000000e+00  1.0000000000000004e+01 4.3006829954289985e-22 0.0000000000000000e+00  1.0000000000000002e+01 -1.6050367446188544e-21 0.0000000000000000e+00  1.0000000000000004e+01 5.9900786789324951e-21 0.0000000000000000e+00  1.0000000000000002e+01 -2.2355277971111226e-20 0.0000000000000000e+00  1.0000000000000004e+01 8.3431033205512090e-20 0.0000000000000000e+00  1.0000000000000004e+01 -3.1136885485093851e-19 0.0000000000000000e+00  1.0000000000000002e+01 1.1620443861982426e-18 0.0000000000000000e+00  1.0000000000000004e+01 -4.3368086899420154e-18 0.0000000000000000e+00  9.8618781692990396e+00 1.3725561817111520e-01 0.0000000000000000e+00  9.6603303273376291e+00 3.3927582019131813e-01 0.0000000000000000e+00  9.4608633265413609e+00 5.4129602221152007e-01 0.0000000000000000e+00  9.2634771669102367e+00 7.4331622423172050e-01 0.0000000000000000e+00  9.0681718484442513e+00 9.4533642625192404e-01 0.0000000000000000e+00  8.8749473711434135e+00 1.1473566282721250e+00 0.0000000000000000e+00  8.6838037350077109e+00 1.3493768302923290e+00 0.0000000000000000e+00  8.4947409400371559e+00 1.5513970323125301e+00 0.0000000000000000e+00  8.3077589862317414e+00 1.7534172343327310e+00 0.0000000000000000e+00  8.1228578735914692e+00 1.9554374363529345e+00 0.0000000000000000e+00  7.9400376021163366e+00 2.1574576383731352e+00 0.0000000000000000e+00  7.7592981718063525e+00 2.3594778403933381e+00 0.0000000000000000e+00  7.5806395826614992e+00 2.5614980424135405e+00 0.0000000000000000e+00  7.4040618346818006e+00 2.7635182444337412e+00 0.0000000000000000e+00  7.2295649278672425e+00 2.9655384464539432e+00 0.0000000000000000e+00  7.0571488622178187e+00 3.1675586484741474e+00 0.0000000000000000e+00  6.8868136377335425e+00 3.3695788504943498e+00 0.0000000000000000e+00  6.7185592544144059e+00 3.5715990525145496e+00 0.0000000000000000e+00  6.5523857122604126e+00 3.7736192545347516e+00 0.0000000000000000e+00  6.3882930112715668e+00 3.9756394565549535e+00 0.0000000000000000e+00  6.2262811514478535e+00 4.1776596585751573e+00 0.0000000000000000e+00  6.0663501327892897e+00 4.3796798605953580e+00 0.0000000000000000e+00  5.9084999552958664e+00 4.5817000626155613e+00 0.0000000000000000e+00  5.7527306189675844e+00 4.7837202646357602e+00 0.0000000000000000e+00  5.5990421238044448e+00 4.9857404666559644e+00 0.0000000000000000e+00  5.4474344698064430e+00 5.1877606686761677e+00 0.0000000000000000e+00  5.2979076569735897e+00 5.3897808706963675e+00 0.0000000000000000e+00  5.1504616853058778e+00 5.5918010727165699e+00 0.0000000000000000e+00  5.0050965548033082e+00 5.7938212747367714e+00 0.0000000000000000e+00  4.8618122654658791e+00 5.9958414767569721e+00 0.0000000000000000e+00  4.7206088172935905e+00 6.1978616787771772e+00 0.0000000000000000e+00  4.5814862102864469e+00 6.3998818807973787e+00 0.0000000000000000e+00  4.4444444444444438e+00 6.6019020828175803e+00 0.0000000000000000e+00  4.3094835197675847e+00 6.8039222848377801e+00 0.0000000000000000e+00  4.1766034362558679e+00 7.0059424868579834e+00 0.0000000000000000e+00  4.0458041939092908e+00 7.2079626888781894e+00 0.0000000000000000e+00  3.9618000000000011e+00 7.3396343122977861e+00 0.0000000000000000e+00  3.9618000000000007e+00 7.3396343122977878e+00 0.0000000000000000e+00  3.9618000000000007e+00 7.3396343122977878e+00 0.0000000000000000e+00  3.9618000000000011e+00 7.3396343122977870e+00 0.0000000000000000e+00  3.9618000000000007e+00 7.3396343122977870e+00 0.0000000000000000e+00  3.9618000000000011e+00 7.3396343122977861e+00 0.0000000000000000e+00  3.9618000000000007e+00 7.3396343122977878e+00 0.0000000000000000e+00  3.9618000000000007e+00 7.3396343122977878e+00 0.0000000000000000e+00  3.9618000000000011e+00 7.3396343122977870e+00 0.0000000000000000e+00  3.9618000000000007e+00 7.3396343122977870e+00 0.0000000000000000e+00  3.9618000000000011e+00 7.3396343122977861e+00 0.0000000000000000e+00  3.9618000000000007e+00 7.3396343122977878e+00 0.0000000000000000e+00  3.9618000000000007e+00 7.3396343122977878e+00 0.0000000000000000e+00  3.9618000000000011e+00 7.3396343122977870e+00 0.0000000000000000e+00  3.9618000000000007e+00 7.3396343122977870e+00 0.0000000000000000e+00  3.9618000000000011e+00 7.3396343122977861e+00 0.0000000000000000e+00  3.9618000000000007e+00 7.3396343122977878e+00 0.0000000000000000e+00  3.9618000000000007e+00 7.3396343122977878e+00 0.0000000000000000e+00  3.9618000000000011e+00 7.3396343122977870e+00 0.0000000000000000e+00  3.9618000000000007e+00 7.3396343122977870e+00 0.0000000000000000e+00  3.9618000000000011e+00 7.3396343122977861e+00 0.0000000000000000e+00  3.9618000000000007e+00 7.3396343122977878e+00 0.0000000000000000e+00  3.9618000000000007e+00 7.3396343122977878e+00 0.0000000000000000e+00  3.9618000000000011e+00 7.3396343122977870e+00 0.0000000000000000e+00  3.9618000000000007e+00 7.3396343122977870e+00 0.0000000000000000e+00  3.9618000000000011e+00 7.3396343122977861e+00 0.0000000000000000e+00  3.9618000000000007e+00 7.3396343122977878e+00 0.0000000000000000e+00  3.9618000000000007e+00 7.3396343122977861e+00 0.0000000000000000e+00  3.9618000000000011e+00 7.3396343122977878e+00 0.0000000000000000e+00  1.0000000000000002e+00 2.4037033579794438e-16 0.0000000000000000e+00  1.0000000000000002e+00 -6.4407037361456956e-17 0.0000000000000000e+00  1.0000000000000000e+00 1.7257813647883532e-17 0.0000000000000000e+00  1.0000000000000000e+00 -4.6242172300771954e-18 0.0000000000000000e+00  1.0000000000000000e+00 1.2390552724252580e-18 0.0000000000000000e+00  1.0000000000000002e+00 -3.3200385962387523e-19 0.0000000000000000e+00  1.0000000000000002e+00 8.8960166070233158e-20 0.0000000000000000e+00  1.0000000000000000e+00 -2.3836804657057526e-20 0.0000000000000000e+00  1.0000000000000000e+00 6.3870525579969824e-21 0.0000000000000000e+00  1.0000000000000000e+00 -1.7114055749304145e-21 0.0000000000000000e+00  1.0000000000000002e+00 4.5856974172472935e-22 0.0000000000000000e+00  1.0000000000000002e+00 -1.2287339196848972e-22 0.0000000000000000e+00  1.0000000000000000e+00 3.2923826149229602e-23 0.0000000000000000e+00  1.0000000000000000e+00 -8.8219126284287424e-24 0.0000000000000000e+00  1.0000000000000000e+00 2.3638243644853859e-24 0.0000000000000000e+00  1.0000000000000002e+00 -6.3338482951287593e-25 0.0000000000000000e+00  1.0000000000000002e+00 1.6971495356609942e-25 0.0000000000000000e+00  1.0000000000000000e+00 -4.5474984751521803e-26 0.0000000000000000e+00  1.0000000000000000e+00 1.2184985439987876e-26 0.0000000000000000e+00  1.0000000000000000e+00 -3.2649570084297135e-27 0.0000000000000000e+00  1.0000000000000002e+00 8.7484259373108274e-28 0.0000000000000000e+00  1.0000000000000002e+00 -2.3441336649459232e-28 0.0000000000000000e+00  1.0000000000000000e+00 6.2810872247286790e-29 0.0000000000000000e+00  1.0000000000000000e+00 -1.6830122494554898e-29 0.0000000000000000e+00  1.0000000000000000e+00 4.5096177309328203e-30 0.0000000000000000e+00  1.0000000000000002e+00 -1.2083484291765306e-30 0.0000000000000000e+00  1.0000000000000002e+00 3.2377598577326677e-31 0.0000000000000000e+00  9.9999999999999989e-01 -8.6755513916536852e-32 0.0000000000000000e+00  1.0000000000000004e+00 2.3246069892883427e-32 0.0000000000000000e+00  9.9999999999999989e-01 -6.2287656549954526e-33 0.0000000000000000e+00  1.0000000000000004e+00 1.6689927270987695e-33 0.0000000000000000e+00  1.0000000000000000e+00 -4.4720525339952500e-34 0.0000000000000000e+00  1.0000000000000002e+00 1.1982828649935837e-34 0.0000000000000000e+00  1.0000000000000002e+00 -3.2107892597908759e-35 0.0000000000000000e+00  9.9999999999999989e-01 8.6032838922747395e-36 0.0000000000000000e+00  1.0000000000000004e+00 -2.3052429711907365e-36 0.0000000000000000e+00  1.0000000000000000e+00 6.1768799248806949e-37 0.0000000000000000e+00  1.0000000000000002e+00 -1.6550899876157970e-37 0.0000000000000000e+00  1.0000000000000002e+00 4.4348002558249626e-38 0.0000000000000000e+00  9.9999999999999989e-01 -1.1883011471416164e-38 0.0000000000000000e+00  1.0000000000000004e+00 3.1840433274157759e-39 0.0000000000000000e+00  1.0000000000000000e+00 -8.5316183824674780e-40 0.0000000000000000e+00  1.0000000000000002e+00 2.2860402557126835e-40 0.0000000000000000e+00  1.0000000000000002e+00 -6.1254264038325984e-41 0.0000000000000000e+00  9.9999999999999989e-01 1.6413030582031954e-41 0.0000000000000000e+00  1.0000000000000004e+00 -4.3978582898028472e-42 0.0000000000000000e+00  1.0000000000000000e+00 1.1784025771791717e-42 0.0000000000000000e+00  1.0000000000000002e+00 -3.1575201891391299e-43 0.0000000000000000e+00  1.0000000000000002e+00 8.4605498476480831e-44 0.0000000000000000e+00  9.9999999999999989e-01 -2.2669974992005270e-44 0.0000000000000000e+00  1.0000000000000004e+00 6.0744014915416497e-45 0.0000000000000000e+00  1.0000000000000000e+00 -1.6276309741609652e-45 0.0000000000000000e+00  1.0000000000000002e+00 4.3612240510231234e-46 0.0000000000000000e+00  1.0000000000000002e+00 -1.1685864624828531e-46 0.0000000000000000e+00  9.9999999999999989e-01 3.1312179890821839e-47 0.0000000000000000e+00  1.0000000000000004e+00 -8.3900733150040239e-48 0.0000000000000000e+00  1.0000000000000000e+00 2.2481133691937484e-48 0.0000000000000000e+00  1.0000000000000002e+00 -6.0238016177111055e-49 0.0000000000000000e+00  1.0000000000000002e+00 1.6140727789069523e-49 0.0000000000000000e+00  9.9999999999999989e-01 -4.3248949791660707e-50 0.0000000000000000e+00  1.0000000000000004e+00 1.1588521275950286e-50 0.0000000000000000e+00  1.0000000000000000e+00 -3.1051353121397414e-51 0.0000000000000000e+00  1.0000000000000002e+00 8.3201997260887269e-52 0.0000000000000000e+00  1.0000000000000002e+00 -2.2294457829575096e-52 0.0000000000000000e+00  9.9999999999999989e-01 5.9758340574117882e-53 0.0000000000000000e+00  1.0000000000000004e+00 -1.6088784000724286e-53 0.0000000000000000e+00  1.0000000000000000e+00 4.5967954287782955e-54 0.0000000000000000e+00  1.0000000000000002e+00 -2.2983977143891463e-54 0.0000000000000000e+00  </DataArray> 
</PointData> 
</Piece>
</UnstructuredGrid>
</VTKFile>