<?xml version="1.0"?>
<VTKFile type="UnstructuredGrid"  version="0.1"  >
<UnstructuredGrid>
<Piece  NumberOfPoints="201" NumberOfCells="200">
<Points>
<DataArray  type="Float64"  NumberOfComponents="3"  format="ascii">-5 0 0  -4.95 0 0  -4.9 0 0  -4.85 0 0  -4.8 0 0  -4.75 0 0  -4.7 0 0  -4.65 0 0  -4.6 0 0  -4.55 0 0  -4.5 0 0  -4.45 0 0  -4.4 0 0  -4.35 0 0  -4.3 0 0  -4.25 0 0  -4.2 0 0  -4.15 0 0  -4.1 0 0  -4.05 0 0  -4 0 0  -3.95 0 0  -3.9 0 0  -3.85 0 0  -3.8 0 0  -3.75 0 0  -3.7 0 0  -3.65 0 0  -3.6 0 0  -3.55 0 0  -3.5 0 0  -3.45 0 0  -3.4 0 0  -3.35 0 0  -3.3 0 0  -3.25 0 0  -3.2 0 0  -3.15 0 0  -3.1 0 0  -3.05 0 0  -3 0 0  -2.95 0 0  -2.9 0 0  -2.85 0 0  -2.8 0 0  -2.75 0 0  -2.7 0 0  -2.65 0 0  -2.6 0 0  -2.55 0 0  -2.5 0 0  -2.45 0 0  -2.4 0 0  -2.35 0 0  -2.3 0 0  -2.25 0 0  -2.2 0 0  -2.15 0 0  -2.1 0 0  -2.05 0 0  -2 0 0  -1.95 0 0  -1.9 0 0  -1.85 0 0  -1.8 0 0  -1.75 0 0  -1.7 0 0  -1.65 0 0  -1.6 0 0  -1.55 0 0  -1.5 0 0  -1.45 0 0  -1.4 0 0  -1.35 0 0  -1.3 0 0  -1.25 0 0  -1.2 0 0  -1.15 0 0  -1.1 0 0  -1.05 0 0  -1 0 0  -0.9500000000000002 0 0  -0.9000000000000004 0 0  -0.8499999999999996 0 0  -0.7999999999999998 0 0  -0.75 0 0  -0.7000000000000002 0 0  -0.6500000000000004 0 0  -0.5999999999999996 0 0  -0.5499999999999998 0 0  -0.5 0 0  -0.4500000000000002 0 0  -0.4000000000000004 0 0  -0.3499999999999996 0 0  -0.2999999999999998 0 0  -0.25 0 0  -0.2000000000000002 0 0  -0.1500000000000004 0 0  -0.09999999999999964 0 0  -0.04999999999999982 0 0  0 0 0  0.04999999999999982 0 0  0.09999999999999964 0 0  0.1500000000000004 0 0  0.2000000000000002 0 0  0.25 0 0  0.2999999999999998 0 0  0.3499999999999996 0 0  0.4000000000000004 0 0  0.4500000000000002 0 0  0.5 0 0  0.5499999999999998 0 0  0.5999999999999996 0 0  0.6500000000000004 0 0  0.7000000000000002 0 0  0.75 0 0  0.7999999999999998 0 0  0.8499999999999996 0 0  0.9000000000000004 0 0  0.9500000000000002 0 0  1 0 0  1.05 0 0  1.1 0 0  1.15 0 0  1.2 0 0  1.25 0 0  1.3 0 0  1.35 0 0  1.4 0 0  1.45 0 0  1.5 0 0  1.55 0 0  1.6 0 0  1.65 0 0  1.7 0 0  1.75 0 0  1.8 0 0  1.85 0 0  1.9 0 0  1.95 0 0  2 0 0  2.05 0 0  2.1 0 0  2.15 0 0  2.2 0 0  2.25 0 0  2.3 0 0  2.35 0 0  2.4 0 0  2.45 0 0  2.5 0 0  2.55 0 0  2.6 0 0  2.65 0 0  2.7 0 0  2.75 0 0  2.8 0 0  2.85 0 0  2.9 0 0  2.95 0 0  3 0 0  3.050000000000001 0 0  3.1 0 0  3.15 0 0  3.199999999999999 0 0  3.25 0 0  3.300000000000001 0 0  3.35 0 0  3.4 0 0  3.449999999999999 0 0  3.5 0 0  3.550000000000001 0 0  3.6 0 0  3.65 0 0  3.699999999999999 0 0  3.75 0 0  3.800000000000001 0 0  3.85 0 0  3.9 0 0  3.949999999999999 0 0  4 0 0  4.050000000000001 0 0  4.1 0 0  4.15 0 0  4.199999999999999 0 0  4.25 0 0  4.300000000000001 0 0  4.35 0 0  4.4 0 0  4.449999999999999 0 0  4.5 0 0  4.550000000000001 0 0  4.6 0 0  4.65 0 0  4.699999999999999 0 0  4.75 0 0  4.800000000000001 0 0  4.85 0 0  4.9 0 0  4.949999999999999 0 0  5 0 0  </DataArray>
</Points>
<Cells>
<DataArray  type="UInt32"  Name="connectivity"  format="ascii">0 1  1 2  2 3  3 4  4 5  5 6  6 7  7 8  8 9  9 10  10 11  11 12  12 13  13 14  14 15  15 16  16 17  17 18  18 19  19 20  20 21  21 22  22 23  23 24  24 25  25 26  26 27  27 28  28 29  29 30  30 31  31 32  32 33  33 34  34 35  35 36  36 37  37 38  38 39  39 40  40 41  41 42  42 43  43 44  44 45  45 46  46 47  47 48  48 49  49 50  50 51  51 52  52 53  53 54  54 55  55 56  56 57  57 58  58 59  59 60  60 61  61 62  62 63  63 64  64 65  65 66  66 67  67 68  68 69  69 70  70 71  71 72  72 73  73 74  74 75  75 76  76 77  77 78  78 79  79 80  80 81  81 82  82 83  83 84  84 85  85 86  86 87  87 88  88 89  89 90  90 91  91 92  92 93  93 94  94 95  95 96  96 97  97 98  98 99  99 100  100 101  101 102  102 103  103 104  104 105  105 106  106 107  107 108  108 109  109 110  110 111  111 112  112 113  113 114  114 115  115 116  116 117  117 118  118 119  119 120  120 121  121 122  122 123  123 124  124 125  125 126  126 127  127 128  128 129  129 130  130 131  131 132  132 133  133 134  134 135  135 136  136 137  137 138  138 139  139 140  140 141  141 142  142 143  143 144  144 145  145 146  146 147  147 148  148 149  149 150  150 151  151 152  152 153  153 154  154 155  155 156  156 157  157 158  158 159  159 160  160 161  161 162  162 163  163 164  164 165  165 166  166 167  167 168  168 169  169 170  170 171  171 172  172 173  173 174  174 175  175 176  176 177  177 178  178 179  179 180  180 181  181 182  182 183  183 184  184 185  185 186  186 187  187 188  188 189  189 190  190 191  191 192  192 193  193 194  194 195  195 196  196 197  197 198  198 199  199 200  </DataArray>
<DataArray  type="UInt32"  Name="offsets"  format="ascii">2 4 6 8 10 12 14 16 18 20 22 24 26 28 30 32 34 36 38 40 42 44 46 48 50 52 54 56 58 60 62 64 66 68 70 72 74 76 78 80 82 84 86 88 90 92 94 96 98 100 102 104 106 108 110 112 114 116 118 120 122 124 126 128 130 132 134 136 138 140 142 144 146 148 150 152 154 156 158 160 162 164 166 168 170 172 174 176 178 180 182 184 186 188 190 192 194 196 198 200 202 204 206 208 210 212 214 216 218 220 222 224 226 228 230 232 234 236 238 240 242 244 246 248 250 252 254 256 258 260 262 264 266 268 270 272 274 276 278 280 282 284 286 288 290 292 294 296 298 300 302 304 306 308 310 312 314 316 318 320 322 324 326 328 330 332 334 336 338 340 342 344 346 348 350 352 354 356 358 360 362 364 366 368 370 372 374 376 378 380 382 384 386 388 390 392 394 396 398 400 </DataArray>
<DataArray  type="UInt8"  Name="types"  format="ascii">3 3 3 3 3 3 3 3 3 3 3 3 3 3 3 3 3 3 3 3 3 3 3 3 3 3 3 3 3 3 3 3 3 3 3 3 3 3 3 3 3 3 3 3 3 3 3 3 3 3 3 3 3 3 3 3 3 3 3 3 3 3 3 3 3 3 3 3 3 3 3 3 3 3 3 3 3 3 3 3 3 3 3 3 3 3 3 3 3 3 3 3 3 3 3 3 3 3 3 3 3 3 3 3 3 3 3 3 3 3 3 3 3 3 3 3 3 3 3 3 3 3 3 3 3 3 3 3 3 3 3 3 3 3 3 3 3 3 3 3 3 3 3 3 3 3 3 3 3 3 3 3 3 3 3 3 3 3 3 3 3 3 3 3 3 3 3 3 3 3 3 3 3 3 3 3 3 3 3 3 3 3 3 3 3 3 3 3 3 3 3 3 3 3 3 3 3 3 3 3 </DataArray>
</Cells>
<PointData  Vectors="f_5"> 
<DataArray  type="Float64"  Name="f_5"  NumberOfComponents="3" format="ascii">1.0000000000000002e+01 1.0425020889283716e-19 0.0000000000000000e+00  1.0000000000000002e+01 -2.0850041778567439e-19 0.0000000000000000e+00  1.0000000000000002e+01 7.2975146224986069e-19 0.0000000000000000e+00  1.0000000000000002e+01 -2.7105054312137472e-18 0.0000000000000000e+00  9.9959975758862676e+00 3.9639384876828500e-03 0.0000000000000000e+00  9.9267291364209047e+00 7.2692460824452340e-02 0.0000000000000000e+00  9.8577015340294896e+00 1.4142098316122187e-01 0.0000000000000000e+00  9.7889147687120346e+00 2.1014950549799147e-01 0.0000000000000000e+00  9.7203688404685238e+00 2.7887802783476207e-01 0.0000000000000000e+00  9.6520637492989785e+00 3.4760655017153153e-01 0.0000000000000000e+00  9.5839994952033845e+00 4.1633507250830115e-01 0.0000000000000000e+00  9.5161760781817435e+00 4.8506359484507083e-01 0.0000000000000000e+00  9.4485934982340609e+00 5.5379211718183996e-01 0.0000000000000000e+00  9.3812517553603296e+00 6.2252063951861103e-01 0.0000000000000000e+00  9.3141508495605567e+00 6.9124916185538066e-01 0.0000000000000000e+00  9.2472907808347333e+00 7.5997768419214995e-01 0.0000000000000000e+00  9.1806715491828701e+00 8.2870620652891946e-01 0.0000000000000000e+00  9.1142931546049617e+00 8.9743472886568920e-01 0.0000000000000000e+00  9.0481555971009993e+00 9.6616325120245972e-01 0.0000000000000000e+00  8.9822588766710023e+00 1.0348917735392293e+00 0.0000000000000000e+00  8.9166029933149531e+00 1.1036202958759986e+00 0.0000000000000000e+00  8.8511879470328640e+00 1.1723488182127684e+00 0.0000000000000000e+00  8.7860137378247227e+00 1.2410773405495390e+00 0.0000000000000000e+00  8.7210803656905380e+00 1.3098058628863083e+00 0.0000000000000000e+00  8.6563878306303135e+00 1.3785343852230785e+00 0.0000000000000000e+00  8.5919361326440367e+00 1.4472629075598484e+00 0.0000000000000000e+00  8.5277252717317218e+00 1.5159914298966171e+00 0.0000000000000000e+00  8.4637552478933511e+00 1.5847199522333877e+00 0.0000000000000000e+00  8.4000260611289477e+00 1.6534484745701574e+00 0.0000000000000000e+00  8.3365377114384902e+00 1.7221769969069274e+00 0.0000000000000000e+00  8.2732901988219911e+00 1.7909055192436971e+00 0.0000000000000000e+00  8.2102835232794469e+00 1.8596340415804662e+00 0.0000000000000000e+00  8.1475176848108575e+00 1.9283625639172370e+00 0.0000000000000000e+00  8.0849926834162194e+00 1.9970910862540059e+00 0.0000000000000000e+00  8.0227085190955378e+00 2.0658196085907767e+00 0.0000000000000000e+00  7.9606651918488138e+00 2.1345481309275454e+00 0.0000000000000000e+00  7.8988627016760411e+00 2.2032766532643153e+00 0.0000000000000000e+00  7.8373010485772250e+00 2.2720051756010848e+00 0.0000000000000000e+00  7.7759802325523619e+00 2.3407336979378548e+00 0.0000000000000000e+00  7.7149002536014537e+00 2.4094622202746248e+00 0.0000000000000000e+00  7.6540611117245021e+00 2.4781907426113947e+00 0.0000000000000000e+00  7.5934628069214982e+00 2.5469192649481638e+00 0.0000000000000000e+00  7.5331053391924607e+00 2.6156477872849346e+00 0.0000000000000000e+00  7.4729887085373683e+00 2.6843763096217037e+00 0.0000000000000000e+00  7.4131129149562396e+00 2.7531048319584723e+00 0.0000000000000000e+00  7.3534779584490568e+00 2.8218333542952441e+00 0.0000000000000000e+00  7.2940838390158333e+00 2.8905618766320127e+00 0.0000000000000000e+00  7.2349305566565594e+00 2.9592903989687831e+00 0.0000000000000000e+00  7.1760181113712465e+00 3.0280189213055522e+00 0.0000000000000000e+00  7.1173465031598884e+00 3.0967474436423226e+00 0.0000000000000000e+00  7.0589157320224825e+00 3.1654759659790934e+00 0.0000000000000000e+00  7.0007257979590296e+00 3.2342044883158598e+00 0.0000000000000000e+00  6.9427767009695360e+00 3.3029330106526329e+00 0.0000000000000000e+00  6.8850684410539920e+00 3.3716615329894006e+00 0.0000000000000000e+00  6.8276010182124089e+00 3.4403900553261728e+00 0.0000000000000000e+00  6.7703744324447728e+00 3.5091185776629406e+00 0.0000000000000000e+00  6.7133886837510968e+00 3.5778470999997105e+00 0.0000000000000000e+00  6.6566437721313738e+00 3.6465756223364814e+00 0.0000000000000000e+00  6.6001396975856066e+00 3.7153041446732495e+00 0.0000000000000000e+00  6.5438764601137889e+00 3.7840326670100199e+00 0.0000000000000000e+00  6.4878540597159349e+00 3.8527611893467899e+00 0.0000000000000000e+00  6.4320724963920259e+00 3.9214897116835599e+00 0.0000000000000000e+00  6.3765317701420798e+00 3.9902182340203285e+00 0.0000000000000000e+00  6.3212318809660859e+00 4.0589467563571002e+00 0.0000000000000000e+00  6.2661728288640441e+00 4.1276752786938697e+00 0.0000000000000000e+00  6.2113546138359608e+00 4.1964038010306401e+00 0.0000000000000000e+00  6.1567772358818287e+00 4.2651323233674061e+00 0.0000000000000000e+00  6.1024406950016541e+00 4.3338608457041783e+00 0.0000000000000000e+00  6.0483449911954317e+00 4.4025893680409478e+00 0.0000000000000000e+00  5.9944901244631668e+00 4.4713178903777173e+00 0.0000000000000000e+00  5.9408760948048531e+00 4.5400464127144877e+00 0.0000000000000000e+00  5.8875029022204988e+00 4.6087749350512563e+00 0.0000000000000000e+00  5.8343705467100975e+00 4.6775034573880268e+00 0.0000000000000000e+00  5.7814790282736475e+00 4.7462319797247954e+00 0.0000000000000000e+00  5.7288283469111558e+00 4.8149605020615676e+00 0.0000000000000000e+00  5.6764185026226199e+00 4.8836890243983380e+00 0.0000000000000000e+00  5.6242494954080318e+00 4.9524175467351048e+00 0.0000000000000000e+00  5.5723213252674046e+00 5.0211460690718770e+00 0.0000000000000000e+00  5.5206339922007315e+00 5.0898745914086456e+00 0.0000000000000000e+00  5.4691874962080123e+00 5.1586031137454160e+00 0.0000000000000000e+00  5.4179818372892470e+00 5.2273316360821847e+00 0.0000000000000000e+00  5.3670170154444365e+00 5.2960601584189559e+00 0.0000000000000000e+00  5.3162930306735809e+00 5.3647886807557228e+00 0.0000000000000000e+00  5.2658098829766811e+00 5.4335172030924932e+00 0.0000000000000000e+00  5.2155675723537360e+00 5.5022457254292627e+00 0.0000000000000000e+00  5.1655660988047467e+00 5.5709742477660358e+00 0.0000000000000000e+00  5.1158054623297069e+00 5.6397027701028035e+00 0.0000000000000000e+00  5.0662856629286281e+00 5.7084312924395721e+00 0.0000000000000000e+00  5.0170067006014989e+00 5.7771598147763426e+00 0.0000000000000000e+00  4.9679685753483263e+00 5.8458883371131138e+00 0.0000000000000000e+00  4.9191712871691102e+00 5.9146168594498834e+00 0.0000000000000000e+00  4.8706148360638482e+00 5.9833453817866511e+00 0.0000000000000000e+00  4.8222992220325400e+00 6.0520739041234251e+00 0.0000000000000000e+00  4.7742244450751867e+00 6.1208024264601910e+00 0.0000000000000000e+00  4.7263905051917865e+00 6.1895309487969641e+00 0.0000000000000000e+00  4.6787974023823455e+00 6.2582594711337300e+00 0.0000000000000000e+00  4.6314451366468541e+00 6.3269879934705031e+00 0.0000000000000000e+00  4.5843337079853228e+00 6.3957165158072709e+00 0.0000000000000000e+00  4.5374631163977392e+00 6.4644450381440421e+00 0.0000000000000000e+00  4.4908333618841150e+00 6.5331735604808072e+00 0.0000000000000000e+00  4.4444444444444438e+00 6.6019020828175812e+00 0.0000000000000000e+00  4.3982963640787291e+00 6.6706306051543498e+00 0.0000000000000000e+00  4.3523891207869685e+00 6.7393591274911175e+00 0.0000000000000000e+00  4.3067227145691600e+00 6.8080876498278924e+00 0.0000000000000000e+00  4.2612971454253072e+00 6.8768161721646575e+00 0.0000000000000000e+00  4.2161124133554120e+00 6.9455446945014314e+00 0.0000000000000000e+00  4.1711685183594689e+00 7.0142732168381992e+00 0.0000000000000000e+00  4.1264654604374815e+00 7.0830017391749678e+00 0.0000000000000000e+00  4.0820032395894517e+00 7.1517302615117417e+00 0.0000000000000000e+00  4.0377818558153713e+00 7.2204587838485059e+00 0.0000000000000000e+00  3.9938013091152489e+00 7.2891873061852790e+00 0.0000000000000000e+00  3.9618000000000015e+00 7.3396343122977878e+00 0.0000000000000000e+00  3.9618000000000011e+00 7.3396343122977870e+00 0.0000000000000000e+00  3.9618000000000007e+00 7.3396343122977870e+00 0.0000000000000000e+00  3.9618000000000011e+00 7.3396343122977861e+00 0.0000000000000000e+00  3.9618000000000007e+00 7.3396343122977878e+00 0.0000000000000000e+00  3.9618000000000007e+00 7.3396343122977878e+00 0.0000000000000000e+00  3.9618000000000011e+00 7.3396343122977870e+00 0.0000000000000000e+00  3.9618000000000007e+00 7.3396343122977870e+00 0.0000000000000000e+00  3.9618000000000011e+00 7.3396343122977861e+00 0.0000000000000000e+00  3.9618000000000007e+00 7.3396343122977878e+00 0.0000000000000000e+00  3.9618000000000007e+00 7.3396343122977878e+00 0.0000000000000000e+00  3.9618000000000011e+00 7.3396343122977870e+00 0.0000000000000000e+00  3.9618000000000007e+00 7.3396343122977870e+00 0.0000000000000000e+00  3.9618000000000011e+00 7.3396343122977861e+00 0.0000000000000000e+00  3.9618000000000007e+00 7.3396343122977878e+00 0.0000000000000000e+00  3.9618000000000007e+00 7.3396343122977878e+00 0.0000000000000000e+00  3.9618000000000011e+00 7.3396343122977870e+00 0.0000000000000000e+00  3.9618000000000007e+00 7.3396343122977870e+00 0.0000000000000000e+00  3.9618000000000011e+00 7.3396343122977861e+00 0.0000000000000000e+00  3.9618000000000007e+00 7.3396343122977878e+00 0.0000000000000000e+00  3.9618000000000007e+00 7.3396343122977878e+00 0.0000000000000000e+00  3.9618000000000011e+00 7.3396343122977870e+00 0.0000000000000000e+00  3.9618000000000007e+00 7.3396343122977870e+00 0.0000000000000000e+00  3.9618000000000011e+00 7.3396343122977861e+00 0.0000000000000000e+00  3.9618000000000007e+00 7.3396343122977878e+00 0.0000000000000000e+00  3.9618000000000007e+00 7.3396343122977878e+00 0.0000000000000000e+00  3.9618000000000011e+00 7.3396343122977870e+00 0.0000000000000000e+00  3.9618000000000007e+00 7.3396343122977870e+00 0.0000000000000000e+00  3.9618000000000011e+00 7.3396343122977861e+00 0.0000000000000000e+00  3.9618000000000007e+00 7.3396343122977878e+00 0.0000000000000000e+00  3.9618000000000007e+00 7.3396343122977878e+00 0.0000000000000000e+00  3.9618000000000011e+00 7.3396343122977870e+00 0.0000000000000000e+00  3.9618000000000007e+00 7.3396343122977870e+00 0.0000000000000000e+00  3.9618000000000011e+00 7.3396343122977861e+00 0.0000000000000000e+00  3.9618000000000007e+00 7.3396343122977878e+00 0.0000000000000000e+00  3.9618000000000007e+00 7.3396343122977878e+00 0.0000000000000000e+00  3.9618000000000011e+00 7.3396343122977870e+00 0.0000000000000000e+00  3.9618000000000007e+00 7.3396343122977870e+00 0.0000000000000000e+00  3.9618000000000011e+00 7.3396343122977861e+00 0.0000000000000000e+00  3.9618000000000007e+00 7.3396343122977878e+00 0.0000000000000000e+00  3.9618000000000007e+00 7.3396343122977878e+00 0.0000000000000000e+00  3.9618000000000011e+00 7.3396343122977870e+00 0.0000000000000000e+00  3.9618000000000007e+00 7.3396343122977870e+00 0.0000000000000000e+00  3.9618000000000011e+00 7.3396343122977861e+00 0.0000000000000000e+00  3.9618000000000007e+00 7.3396343122977878e+00 0.0000000000000000e+00  3.9618000000000007e+00 7.3396343122977878e+00 0.0000000000000000e+00  3.9618000000000011e+00 7.3396343122977870e+00 0.0000000000000000e+00  3.9618000000000007e+00 7.3396343122977870e+00 0.0000000000000000e+00  3.9618000000000007e+00 7.3396343122977861e+00 0.0000000000000000e+00  3.9618000000000011e+00 7.3396343122977870e+00 0.0000000000000000e+00  3.9618000000000011e+00 7.3396343122977887e+00 0.0000000000000000e+00  3.9618000000000007e+00 7.3396343122977878e+00 0.0000000000000000e+00  3.9618000000000007e+00 7.3396343122977887e+00 0.0000000000000000e+00  3.9618000000000007e+00 7.3396343122977878e+00 0.0000000000000000e+00  3.9618000000000007e+00 7.3396343122977870e+00 0.0000000000000000e+00  3.9618000000000007e+00 7.3396343122977878e+00 0.0000000000000000e+00  3.9618000000000007e+00 7.3396343122977878e+00 0.0000000000000000e+00  3.9618000000000007e+00 7.3396343122977887e+00 0.0000000000000000e+00  3.9618000000000007e+00 7.3396343122977878e+00 0.0000000000000000e+00  3.9618000000000007e+00 7.3396343122977870e+00 0.0000000000000000e+00  3.9618000000000007e+00 7.3396343122977878e+00 0.0000000000000000e+00  3.9618000000000007e+00 7.3396343122977878e+00 0.0000000000000000e+00  3.9618000000000007e+00 7.3396343122977887e+00 0.0000000000000000e+00  3.9618000000000007e+00 7.3396343122977878e+00 0.0000000000000000e+00  3.9618000000000007e+00 7.3396343122977870e+00 0.0000000000000000e+00  3.9618000000000007e+00 7.3396343122977878e+00 0.0000000000000000e+00  3.9618000000000007e+00 7.3396343122977878e+00 0.0000000000000000e+00  3.9618000000000007e+00 7.3396343122977887e+00 0.0000000000000000e+00  3.9618000000000007e+00 7.3396343122977878e+00 0.0000000000000000e+00  3.9618000000000007e+00 7.3396343122977870e+00 0.0000000000000000e+00  3.9618000000000007e+00 7.3396343122977878e+00 0.0000000000000000e+00  3.9618000000000007e+00 7.3396343122977878e+00 0.0000000000000000e+00  3.9618000000000007e+00 7.3396343122977887e+00 0.0000000000000000e+00  3.9618000000000007e+00 7.3396343122977878e+00 0.0000000000000000e+00  3.9618000000000007e+00 7.3396343122977870e+00 0.0000000000000000e+00  3.9618000000000007e+00 7.3396343122977878e+00 0.0000000000000000e+00  3.9618000000000007e+00 7.3396343122977878e+00 0.0000000000000000e+00  3.9618000000000007e+00 7.3396343122977887e+00 0.0000000000000000e+00  3.9618000000000007e+00 7.3396343122977878e+00 0.0000000000000000e+00  3.9618000000000007e+00 7.3396343122977870e+00 0.0000000000000000e+00  3.9618000000000007e+00 7.3396343122977878e+00 0.0000000000000000e+00  3.9618000000000007e+00 7.3396343122977878e+00 0.0000000000000000e+00  3.9618000000000007e+00 7.3396343122977887e+00 0.0000000000000000e+00  3.9618000000000007e+00 7.3396343122977878e+00 0.0000000000000000e+00  3.9618000000000007e+00 7.3396343122977861e+00 0.0000000000000000e+00  1.0000000000000007e+00 9.6150689140201634e-16 0.0000000000000000e+00  9.9999999999999989e-01 -2.5772349666445400e-16 0.0000000000000000e+00  1.0000000000000004e+00 6.9387095255815559e-17 0.0000000000000000e+00  1.0000000000000000e+00 -1.9824884358804134e-17 0.0000000000000000e+00  1.0000000000000002e+00 9.9124421794020622e-18 0.0000000000000000e+00  </DataArray> 
</PointData> 
</Piece>
</UnstructuredGrid>
</VTKFile>