<?xml version="1.0"?>
<VTKFile type="UnstructuredGrid"  version="0.1"  >
<UnstructuredGrid>
<Piece  NumberOfPoints="201" NumberOfCells="200">
<Points>
<DataArray  type="Float64"  NumberOfComponents="3"  format="ascii">-5 0 0  -4.95 0 0  -4.9 0 0  -4.85 0 0  -4.8 0 0  -4.75 0 0  -4.7 0 0  -4.65 0 0  -4.6 0 0  -4.55 0 0  -4.5 0 0  -4.45 0 0  -4.4 0 0  -4.35 0 0  -4.3 0 0  -4.25 0 0  -4.2 0 0  -4.15 0 0  -4.1 0 0  -4.05 0 0  -4 0 0  -3.95 0 0  -3.9 0 0  -3.85 0 0  -3.8 0 0  -3.75 0 0  -3.7 0 0  -3.65 0 0  -3.6 0 0  -3.55 0 0  -3.5 0 0  -3.45 0 0  -3.4 0 0  -3.35 0 0  -3.3 0 0  -3.25 0 0  -3.2 0 0  -3.15 0 0  -3.1 0 0  -3.05 0 0  -3 0 0  -2.95 0 0  -2.9 0 0  -2.85 0 0  -2.8 0 0  -2.75 0 0  -2.7 0 0  -2.65 0 0  -2.6 0 0  -2.55 0 0  -2.5 0 0  -2.45 0 0  -2.4 0 0  -2.35 0 0  -2.3 0 0  -2.25 0 0  -2.2 0 0  -2.15 0 0  -2.1 0 0  -2.05 0 0  -2 0 0  -1.95 0 0  -1.9 0 0  -1.85 0 0  -1.8 0 0  -1.75 0 0  -1.7 0 0  -1.65 0 0  -1.6 0 0  -1.55 0 0  -1.5 0 0  -1.45 0 0  -1.4 0 0  -1.35 0 0  -1.3 0 0  -1.25 0 0  -1.2 0 0  -1.15 0 0  -1.1 0 0  -1.05 0 0  -1 0 0  -0.9500000000000002 0 0  -0.9000000000000004 0 0  -0.8499999999999996 0 0  -0.7999999999999998 0 0  -0.75 0 0  -0.7000000000000002 0 0  -0.6500000000000004 0 0  -0.5999999999999996 0 0  -0.5499999999999998 0 0  -0.5 0 0  -0.4500000000000002 0 0  -0.4000000000000004 0 0  -0.3499999999999996 0 0  -0.2999999999999998 0 0  -0.25 0 0  -0.2000000000000002 0 0  -0.1500000000000004 0 0  -0.09999999999999964 0 0  -0.04999999999999982 0 0  0 0 0  0.04999999999999982 0 0  0.09999999999999964 0 0  0.1500000000000004 0 0  0.2000000000000002 0 0  0.25 0 0  0.2999999999999998 0 0  0.3499999999999996 0 0  0.4000000000000004 0 0  0.4500000000000002 0 0  0.5 0 0  0.5499999999999998 0 0  0.5999999999999996 0 0  0.6500000000000004 0 0  0.7000000000000002 0 0  0.75 0 0  0.7999999999999998 0 0  0.8499999999999996 0 0  0.9000000000000004 0 0  0.9500000000000002 0 0  1 0 0  1.05 0 0  1.1 0 0  1.15 0 0  1.2 0 0  1.25 0 0  1.3 0 0  1.35 0 0  1.4 0 0  1.45 0 0  1.5 0 0  1.55 0 0  1.6 0 0  1.65 0 0  1.7 0 0  1.75 0 0  1.8 0 0  1.85 0 0  1.9 0 0  1.95 0 0  2 0 0  2.05 0 0  2.1 0 0  2.15 0 0  2.2 0 0  2.25 0 0  2.3 0 0  2.35 0 0  2.4 0 0  2.45 0 0  2.5 0 0  2.55 0 0  2.6 0 0  2.65 0 0  2.7 0 0  2.75 0 0  2.8 0 0  2.85 0 0  2.9 0 0  2.95 0 0  3 0 0  3.050000000000001 0 0  3.1 0 0  3.15 0 0  3.199999999999999 0 0  3.25 0 0  3.300000000000001 0 0  3.35 0 0  3.4 0 0  3.449999999999999 0 0  3.5 0 0  3.550000000000001 0 0  3.6 0 0  3.65 0 0  3.699999999999999 0 0  3.75 0 0  3.800000000000001 0 0  3.85 0 0  3.9 0 0  3.949999999999999 0 0  4 0 0  4.050000000000001 0 0  4.1 0 0  4.15 0 0  4.199999999999999 0 0  4.25 0 0  4.300000000000001 0 0  4.35 0 0  4.4 0 0  4.449999999999999 0 0  4.5 0 0  4.550000000000001 0 0  4.6 0 0  4.65 0 0  4.699999999999999 0 0  4.75 0 0  4.800000000000001 0 0  4.85 0 0  4.9 0 0  4.949999999999999 0 0  5 0 0  </DataArray>
</Points>
<Cells>
<DataArray  type="UInt32"  Name="connectivity"  format="ascii">0 1  1 2  2 3  3 4  4 5  5 6  6 7  7 8  8 9  9 10  10 11  11 12  12 13  13 14  14 15  15 16  16 17  17 18  18 19  19 20  20 21  21 22  22 23  23 24  24 25  25 26  26 27  27 28  28 29  29 30  30 31  31 32  32 33  33 34  34 35  35 36  36 37  37 38  38 39  39 40  40 41  41 42  42 43  43 44  44 45  45 46  46 47  47 48  48 49  49 50  50 51  51 52  52 53  53 54  54 55  55 56  56 57  57 58  58 59  59 60  60 61  61 62  62 63  63 64  64 65  65 66  66 67  67 68  68 69  69 70  70 71  71 72  72 73  73 74  74 75  75 76  76 77  77 78  78 79  79 80  80 81  81 82  82 83  83 84  84 85  85 86  86 87  87 88  88 89  89 90  90 91  91 92  92 93  93 94  94 95  95 96  96 97  97 98  98 99  99 100  100 101  101 102  102 103  103 104  104 105  105 106  106 107  107 108  108 109  109 110  110 111  111 112  112 113  113 114  114 115  115 116  116 117  117 118  118 119  119 120  120 121  121 122  122 123  123 124  124 125  125 126  126 127  127 128  128 129  129 130  130 131  131 132  132 133  133 134  134 135  135 136  136 137  137 138  138 139  139 140  140 141  141 142  142 143  143 144  144 145  145 146  146 147  147 148  148 149  149 150  150 151  151 152  152 153  153 154  154 155  155 156  156 157  157 158  158 159  159 160  160 161  161 162  162 163  163 164  164 165  165 166  166 167  167 168  168 169  169 170  170 171  171 172  172 173  173 174  174 175  175 176  176 177  177 178  178 179  179 180  180 181  181 182  182 183  183 184  184 185  185 186  186 187  187 188  188 189  189 190  190 191  191 192  192 193  193 194  194 195  195 196  196 197  197 198  198 199  199 200  </DataArray>
<DataArray  type="UInt32"  Name="offsets"  format="ascii">2 4 6 8 10 12 14 16 18 20 22 24 26 28 30 32 34 36 38 40 42 44 46 48 50 52 54 56 58 60 62 64 66 68 70 72 74 76 78 80 82 84 86 88 90 92 94 96 98 100 102 104 106 108 110 112 114 116 118 120 122 124 126 128 130 132 134 136 138 140 142 144 146 148 150 152 154 156 158 160 162 164 166 168 170 172 174 176 178 180 182 184 186 188 190 192 194 196 198 200 202 204 206 208 210 212 214 216 218 220 222 224 226 228 230 232 234 236 238 240 242 244 246 248 250 252 254 256 258 260 262 264 266 268 270 272 274 276 278 280 282 284 286 288 290 292 294 296 298 300 302 304 306 308 310 312 314 316 318 320 322 324 326 328 330 332 334 336 338 340 342 344 346 348 350 352 354 356 358 360 362 364 366 368 370 372 374 376 378 380 382 384 386 388 390 392 394 396 398 400 </DataArray>
<DataArray  type="UInt8"  Name="types"  format="ascii">3 3 3 3 3 3 3 3 3 3 3 3 3 3 3 3 3 3 3 3 3 3 3 3 3 3 3 3 3 3 3 3 3 3 3 3 3 3 3 3 3 3 3 3 3 3 3 3 3 3 3 3 3 3 3 3 3 3 3 3 3 3 3 3 3 3 3 3 3 3 3 3 3 3 3 3 3 3 3 3 3 3 3 3 3 3 3 3 3 3 3 3 3 3 3 3 3 3 3 3 3 3 3 3 3 3 3 3 3 3 3 3 3 3 3 3 3 3 3 3 3 3 3 3 3 3 3 3 3 3 3 3 3 3 3 3 3 3 3 3 3 3 3 3 3 3 3 3 3 3 3 3 3 3 3 3 3 3 3 3 3 3 3 3 3 3 3 3 3 3 3 3 3 3 3 3 3 3 3 3 3 3 3 3 3 3 3 3 3 3 3 3 3 3 3 3 3 3 3 3 </DataArray>
</Cells>
<PointData  Vectors="f_5"> 
<DataArray  type="Float64"  Name="f_5"  NumberOfComponents="3" format="ascii">1.0000000000000002e+01 -6.1535143799262220e-28 0.0000000000000000e+00  1.0000000000000002e+01 1.2307028759852446e-27 0.0000000000000000e+00  1.0000000000000002e+01 -4.3074600659483577e-27 0.0000000000000000e+00  1.0000000000000002e+01 1.5999137387808063e-26 0.0000000000000000e+00  1.0000000000000002e+01 -5.9689089485284415e-26 0.0000000000000000e+00  1.0000000000000004e+01 2.2275722055332964e-25 0.0000000000000000e+00  1.0000000000000002e+01 -8.3133979272803460e-25 0.0000000000000000e+00  1.0000000000000004e+01 3.1026019503588100e-24 0.0000000000000000e+00  1.0000000000000002e+01 -1.1579068008707114e-23 0.0000000000000000e+00  1.0000000000000002e+01 4.3213670084470022e-23 0.0000000000000000e+00  1.0000000000000004e+01 -1.6127561232917304e-22 0.0000000000000000e+00  1.0000000000000000e+01 6.0188877923222236e-22 0.0000000000000000e+00  1.0000000000000002e+01 -2.2462795045997173e-21 0.0000000000000000e+00  1.0000000000000002e+01 8.3832292391665798e-21 0.0000000000000000e+00  1.0000000000000004e+01 -3.1286637452066879e-20 0.0000000000000000e+00  1.0000000000000002e+01 1.1676332056910097e-19 0.0000000000000000e+00  1.0000000000000002e+01 -4.3576664482433719e-19 0.0000000000000000e+00  1.0000000000000002e+01 1.6263032587282486e-18 0.0000000000000000e+00  9.9842968572093227e+00 1.5556701291476571e-02 0.0000000000000000e+00  9.9034157974015109e+00 9.5877986432038639e-02 0.0000000000000000e+00  9.8228636730021464e+00 1.7619927157260068e-01 0.0000000000000000e+00  9.7426404840112433e+00 2.5652055671316282e-01 0.0000000000000000e+00  9.6627462304287910e+00 3.3684184185372479e-01 0.0000000000000000e+00  9.5831809122547984e+00 4.1716312699428704e-01 0.0000000000000000e+00  9.5039445294892495e+00 4.9748441213485001e-01 0.0000000000000000e+00  9.4250370821321621e+00 5.7780569727541253e-01 0.0000000000000000e+00  9.3464585701835254e+00 6.5812698241597400e-01 0.0000000000000000e+00  9.2682089936433432e+00 7.3844826755653659e-01 0.0000000000000000e+00  9.1902883525116152e+00 8.1876955269709850e-01 0.0000000000000000e+00  9.1126966467883452e+00 8.9909083783766175e-01 0.0000000000000000e+00  9.0354338764735296e+00 9.7941212297822267e-01 0.0000000000000000e+00  8.9585000415671594e+00 1.0597334081187846e+00 0.0000000000000000e+00  8.8818951420692507e+00 1.1400546932593481e+00 0.0000000000000000e+00  8.8056191779797910e+00 1.2203759783999097e+00 0.0000000000000000e+00  8.7296721492987874e+00 1.3006972635404732e+00 0.0000000000000000e+00  8.6540540560262382e+00 1.3810185486810340e+00 0.0000000000000000e+00  8.5787648981621452e+00 1.4613398338215957e+00 0.0000000000000000e+00  8.5038046757064993e+00 1.5416611189621590e+00 0.0000000000000000e+00  8.4291733886593185e+00 1.6219824041027207e+00 0.0000000000000000e+00  8.3548710370205832e+00 1.7023036892432837e+00 0.0000000000000000e+00  8.2808976207903076e+00 1.7826249743838460e+00 0.0000000000000000e+00  8.2072531399684774e+00 1.8629462595244071e+00 0.0000000000000000e+00  8.1339375945551069e+00 1.9432675446649705e+00 0.0000000000000000e+00  8.0609509845501890e+00 2.0235888298055320e+00 0.0000000000000000e+00  7.9882933099537272e+00 2.1039101149460953e+00 0.0000000000000000e+00  7.9159645707657180e+00 2.1842314000866563e+00 0.0000000000000000e+00  7.8439647669861614e+00 2.2645526852272178e+00 0.0000000000000000e+00  7.7722938986150636e+00 2.3448739703677823e+00 0.0000000000000000e+00  7.7009519656524157e+00 2.4251952555083429e+00 0.0000000000000000e+00  7.6299389680982239e+00 2.5055165406489062e+00 0.0000000000000000e+00  7.5592549059524847e+00 2.5858378257894685e+00 0.0000000000000000e+00  7.4888997792151981e+00 2.6661591109300304e+00 0.0000000000000000e+00  7.4188735878863685e+00 2.7464803960705915e+00 0.0000000000000000e+00  7.3491763319659968e+00 2.8268016812111560e+00 0.0000000000000000e+00  7.2798080114540680e+00 2.9071229663517171e+00 0.0000000000000000e+00  7.2107686263506032e+00 2.9874442514922808e+00 0.0000000000000000e+00  7.1420581766555840e+00 3.0677655366328396e+00 0.0000000000000000e+00  7.0736766623690306e+00 3.1480868217734046e+00 0.0000000000000000e+00  7.0056240834909200e+00 3.2284081069139647e+00 0.0000000000000000e+00  6.9379004400212683e+00 3.3087293920545302e+00 0.0000000000000000e+00  6.8705057319600700e+00 3.3890506771950903e+00 0.0000000000000000e+00  6.8034399593073278e+00 3.4693719623356514e+00 0.0000000000000000e+00  6.7367031220630347e+00 3.5496932474762151e+00 0.0000000000000000e+00  6.6702952202271977e+00 3.6300145326167774e+00 0.0000000000000000e+00  6.6042162537998168e+00 3.7103358177573407e+00 0.0000000000000000e+00  6.5384662227808885e+00 3.7906571028979017e+00 0.0000000000000000e+00  6.4730451271704128e+00 3.8709783880384641e+00 0.0000000000000000e+00  6.4079529669683977e+00 3.9512996731790264e+00 0.0000000000000000e+00  6.3431897421748271e+00 4.0316209583195874e+00 0.0000000000000000e+00  6.2787554527897163e+00 4.1119422434601516e+00 0.0000000000000000e+00  6.2146500988130571e+00 4.1922635286007131e+00 0.0000000000000000e+00  6.1508736802448531e+00 4.2725848137412736e+00 0.0000000000000000e+00  6.0874261970851027e+00 4.3529060988818378e+00 0.0000000000000000e+00  6.0243076493338110e+00 4.4332273840223992e+00 0.0000000000000000e+00  5.9615180369909684e+00 4.5135486691629616e+00 0.0000000000000000e+00  5.8990573600565801e+00 4.5938699543035240e+00 0.0000000000000000e+00  5.8369256185306426e+00 4.6741912394440854e+00 0.0000000000000000e+00  5.7751228124131666e+00 4.7545125245846487e+00 0.0000000000000000e+00  5.7136489417041405e+00 4.8348338097252119e+00 0.0000000000000000e+00  5.6525040064035688e+00 4.9151550948657734e+00 0.0000000000000000e+00  5.5916880065114505e+00 4.9954763800063340e+00 0.0000000000000000e+00  5.5312009420277857e+00 5.0757976651468990e+00 0.0000000000000000e+00  5.4710428129525788e+00 5.1561189502874605e+00 0.0000000000000000e+00  5.4112136192858209e+00 5.2364402354280237e+00 0.0000000000000000e+00  5.3517133610275183e+00 5.3167615205685834e+00 0.0000000000000000e+00  5.2925420381776735e+00 5.3970828057091476e+00 0.0000000000000000e+00  5.2336996507362770e+00 5.4774040908497108e+00 0.0000000000000000e+00  5.1751861987033418e+00 5.5577253759902705e+00 0.0000000000000000e+00  5.1170016820788549e+00 5.6380466611308364e+00 0.0000000000000000e+00  5.0591461008628222e+00 5.7183679462713943e+00 0.0000000000000000e+00  5.0016194550552449e+00 5.7986892314119585e+00 0.0000000000000000e+00  4.9444217446561236e+00 5.8790105165525208e+00 0.0000000000000000e+00  4.8875529696654532e+00 5.9593318016930823e+00 0.0000000000000000e+00  4.8310131300832380e+00 6.0396530868336429e+00 0.0000000000000000e+00  4.7748022259094762e+00 6.1199743719742052e+00 0.0000000000000000e+00  4.7189202571441689e+00 6.2002956571147703e+00 0.0000000000000000e+00  4.6633672237873149e+00 6.2806169422553282e+00 0.0000000000000000e+00  4.6081431258389172e+00 6.3609382273958976e+00 0.0000000000000000e+00  4.5532479632989729e+00 6.4412595125364529e+00 0.0000000000000000e+00  4.4986817361674785e+00 6.5215807976770197e+00 0.0000000000000000e+00  4.4444444444444438e+00 6.6019020828175794e+00 0.0000000000000000e+00  4.3905360881298625e+00 6.6822233679581435e+00 0.0000000000000000e+00  4.3369566672237339e+00 6.7625446530987050e+00 0.0000000000000000e+00  4.2837061817260569e+00 6.8428659382392691e+00 0.0000000000000000e+00  4.2307846316368387e+00 6.9231872233798297e+00 0.0000000000000000e+00  4.1781920169560678e+00 7.0035085085203894e+00 0.0000000000000000e+00  4.1259283376837592e+00 7.0838297936609527e+00 0.0000000000000000e+00  4.0739935938198988e+00 7.1641510788015168e+00 0.0000000000000000e+00  4.0223877853644936e+00 7.2444723639420801e+00 0.0000000000000000e+00  3.9711109123175441e+00 7.3247936490826389e+00 0.0000000000000000e+00  3.9617999999999993e+00 7.3396343122977896e+00 0.0000000000000000e+00  3.9618000000000015e+00 7.3396343122977878e+00 0.0000000000000000e+00  3.9618000000000011e+00 7.3396343122977870e+00 0.0000000000000000e+00  3.9618000000000007e+00 7.3396343122977870e+00 0.0000000000000000e+00  3.9618000000000011e+00 7.3396343122977861e+00 0.0000000000000000e+00  3.9618000000000007e+00 7.3396343122977878e+00 0.0000000000000000e+00  3.9618000000000007e+00 7.3396343122977878e+00 0.0000000000000000e+00  3.9618000000000011e+00 7.3396343122977870e+00 0.0000000000000000e+00  3.9618000000000007e+00 7.3396343122977870e+00 0.0000000000000000e+00  3.9618000000000011e+00 7.3396343122977861e+00 0.0000000000000000e+00  3.9618000000000007e+00 7.3396343122977878e+00 0.0000000000000000e+00  3.9618000000000007e+00 7.3396343122977878e+00 0.0000000000000000e+00  3.9618000000000011e+00 7.3396343122977870e+00 0.0000000000000000e+00  3.9618000000000007e+00 7.3396343122977870e+00 0.0000000000000000e+00  3.9618000000000011e+00 7.3396343122977861e+00 0.0000000000000000e+00  3.9618000000000007e+00 7.3396343122977878e+00 0.0000000000000000e+00  3.9618000000000007e+00 7.3396343122977878e+00 0.0000000000000000e+00  3.9618000000000011e+00 7.3396343122977870e+00 0.0000000000000000e+00  3.9618000000000007e+00 7.3396343122977870e+00 0.0000000000000000e+00  3.9618000000000011e+00 7.3396343122977861e+00 0.0000000000000000e+00  3.9618000000000007e+00 7.3396343122977878e+00 0.0000000000000000e+00  3.9618000000000007e+00 7.3396343122977878e+00 0.0000000000000000e+00  3.9618000000000011e+00 7.3396343122977870e+00 0.0000000000000000e+00  3.9618000000000007e+00 7.3396343122977870e+00 0.0000000000000000e+00  3.9618000000000011e+00 7.3396343122977861e+00 0.0000000000000000e+00  3.9618000000000007e+00 7.3396343122977878e+00 0.0000000000000000e+00  3.9618000000000007e+00 7.3396343122977878e+00 0.0000000000000000e+00  3.9618000000000011e+00 7.3396343122977870e+00 0.0000000000000000e+00  3.9618000000000007e+00 7.3396343122977870e+00 0.0000000000000000e+00  3.9618000000000011e+00 7.3396343122977861e+00 0.0000000000000000e+00  3.9618000000000007e+00 7.3396343122977878e+00 0.0000000000000000e+00  3.9618000000000007e+00 7.3396343122977878e+00 0.0000000000000000e+00  3.9618000000000011e+00 7.3396343122977870e+00 0.0000000000000000e+00  3.9618000000000007e+00 7.3396343122977870e+00 0.0000000000000000e+00  3.9618000000000011e+00 7.3396343122977861e+00 0.0000000000000000e+00  3.9618000000000007e+00 7.3396343122977878e+00 0.0000000000000000e+00  3.9618000000000007e+00 7.3396343122977878e+00 0.0000000000000000e+00  3.9618000000000011e+00 7.3396343122977870e+00 0.0000000000000000e+00  3.9618000000000007e+00 7.3396343122977870e+00 0.0000000000000000e+00  3.9618000000000011e+00 7.3396343122977861e+00 0.0000000000000000e+00  3.9618000000000007e+00 7.3396343122977878e+00 0.0000000000000000e+00  3.9618000000000007e+00 7.3396343122977878e+00 0.0000000000000000e+00  3.9618000000000011e+00 7.3396343122977870e+00 0.0000000000000000e+00  3.9618000000000007e+00 7.3396343122977870e+00 0.0000000000000000e+00  3.9618000000000011e+00 7.3396343122977861e+00 0.0000000000000000e+00  3.9618000000000007e+00 7.3396343122977878e+00 0.0000000000000000e+00  3.9618000000000007e+00 7.3396343122977878e+00 0.0000000000000000e+00  3.9618000000000011e+00 7.3396343122977870e+00 0.0000000000000000e+00  3.9618000000000007e+00 7.3396343122977870e+00 0.0000000000000000e+00  3.9618000000000007e+00 7.3396343122977861e+00 0.0000000000000000e+00  3.9618000000000011e+00 7.3396343122977870e+00 0.0000000000000000e+00  3.9618000000000011e+00 7.3396343122977887e+00 0.0000000000000000e+00  3.9618000000000007e+00 7.3396343122977878e+00 0.0000000000000000e+00  3.9618000000000007e+00 7.3396343122977887e+00 0.0000000000000000e+00  3.9618000000000007e+00 7.3396343122977878e+00 0.0000000000000000e+00  3.9618000000000007e+00 7.3396343122977870e+00 0.0000000000000000e+00  3.9618000000000007e+00 7.3396343122977878e+00 0.0000000000000000e+00  3.9618000000000007e+00 7.3396343122977878e+00 0.0000000000000000e+00  3.9618000000000007e+00 7.3396343122977887e+00 0.0000000000000000e+00  3.9618000000000007e+00 7.3396343122977878e+00 0.0000000000000000e+00  3.9618000000000007e+00 7.3396343122977870e+00 0.0000000000000000e+00  3.9618000000000007e+00 7.3396343122977878e+00 0.0000000000000000e+00  3.9618000000000007e+00 7.3396343122977878e+00 0.0000000000000000e+00  3.9618000000000007e+00 7.3396343122977887e+00 0.0000000000000000e+00  3.9618000000000007e+00 7.3396343122977878e+00 0.0000000000000000e+00  3.9618000000000007e+00 7.3396343122977870e+00 0.0000000000000000e+00  3.9618000000000007e+00 7.3396343122977878e+00 0.0000000000000000e+00  3.9618000000000007e+00 7.3396343122977878e+00 0.0000000000000000e+00  3.9618000000000007e+00 7.3396343122977887e+00 0.0000000000000000e+00  3.9618000000000007e+00 7.3396343122977878e+00 0.0000000000000000e+00  3.9618000000000007e+00 7.3396343122977870e+00 0.0000000000000000e+00  3.9618000000000007e+00 7.3396343122977878e+00 0.0000000000000000e+00  9.9999999999999989e-01 2.4037033579794635e-16 0.0000000000000000e+00  1.0000000000000004e+00 -6.4407037361458459e-17 0.0000000000000000e+00  1.0000000000000000e+00 1.7257813647883658e-17 0.0000000000000000e+00  1.0000000000000002e+00 -4.6242172300772355e-18 0.0000000000000000e+00  1.0000000000000002e+00 1.2390552724252971e-18 0.0000000000000000e+00  9.9999999999999989e-01 -3.3200385962387826e-19 0.0000000000000000e+00  1.0000000000000004e+00 8.8960166070236913e-20 0.0000000000000000e+00  1.0000000000000000e+00 -2.3836804657063924e-20 0.0000000000000000e+00  1.0000000000000002e+00 6.3870525580202838e-21 0.0000000000000000e+00  1.0000000000000002e+00 -1.7114055750172239e-21 0.0000000000000000e+00  9.9999999999999989e-01 4.5856974204850901e-22 0.0000000000000000e+00  1.0000000000000004e+00 -1.2287339317684099e-22 0.0000000000000000e+00  1.0000000000000000e+00 3.2923830658847564e-23 0.0000000000000000e+00  1.0000000000000002e+00 -8.8219294585513134e-24 0.0000000000000000e+00  1.0000000000000002e+00 2.3638871753577079e-24 0.0000000000000000e+00  9.9999999999999989e-01 -6.3361924287937576e-25 0.0000000000000000e+00  1.0000000000000004e+00 1.7058979615983446e-25 0.0000000000000000e+00  1.0000000000000000e+00 -4.8739941759951938e-26 0.0000000000000000e+00  1.0000000000000002e+00 2.4369970879975958e-26 0.0000000000000000e+00  </DataArray> 
</PointData> 
</Piece>
</UnstructuredGrid>
</VTKFile>