<?xml version="1.0"?>
<VTKFile type="UnstructuredGrid"  version="0.1"  >
<UnstructuredGrid>
<Piece  NumberOfPoints="201" NumberOfCells="200">
<Points>
<DataArray  type="Float64"  NumberOfComponents="3"  format="ascii">-5 0 0  -4.95 0 0  -4.9 0 0  -4.85 0 0  -4.8 0 0  -4.75 0 0  -4.7 0 0  -4.65 0 0  -4.6 0 0  -4.55 0 0  -4.5 0 0  -4.45 0 0  -4.4 0 0  -4.35 0 0  -4.3 0 0  -4.25 0 0  -4.2 0 0  -4.15 0 0  -4.1 0 0  -4.05 0 0  -4 0 0  -3.95 0 0  -3.9 0 0  -3.85 0 0  -3.8 0 0  -3.75 0 0  -3.7 0 0  -3.65 0 0  -3.6 0 0  -3.55 0 0  -3.5 0 0  -3.45 0 0  -3.4 0 0  -3.35 0 0  -3.3 0 0  -3.25 0 0  -3.2 0 0  -3.15 0 0  -3.1 0 0  -3.05 0 0  -3 0 0  -2.95 0 0  -2.9 0 0  -2.85 0 0  -2.8 0 0  -2.75 0 0  -2.7 0 0  -2.65 0 0  -2.6 0 0  -2.55 0 0  -2.5 0 0  -2.45 0 0  -2.4 0 0  -2.35 0 0  -2.3 0 0  -2.25 0 0  -2.2 0 0  -2.15 0 0  -2.1 0 0  -2.05 0 0  -2 0 0  -1.95 0 0  -1.9 0 0  -1.85 0 0  -1.8 0 0  -1.75 0 0  -1.7 0 0  -1.65 0 0  -1.6 0 0  -1.55 0 0  -1.5 0 0  -1.45 0 0  -1.4 0 0  -1.35 0 0  -1.3 0 0  -1.25 0 0  -1.2 0 0  -1.15 0 0  -1.1 0 0  -1.05 0 0  -1 0 0  -0.9500000000000002 0 0  -0.9000000000000004 0 0  -0.8499999999999996 0 0  -0.7999999999999998 0 0  -0.75 0 0  -0.7000000000000002 0 0  -0.6500000000000004 0 0  -0.5999999999999996 0 0  -0.5499999999999998 0 0  -0.5 0 0  -0.4500000000000002 0 0  -0.4000000000000004 0 0  -0.3499999999999996 0 0  -0.2999999999999998 0 0  -0.25 0 0  -0.2000000000000002 0 0  -0.1500000000000004 0 0  -0.09999999999999964 0 0  -0.04999999999999982 0 0  0 0 0  0.04999999999999982 0 0  0.09999999999999964 0 0  0.1500000000000004 0 0  0.2000000000000002 0 0  0.25 0 0  0.2999999999999998 0 0  0.3499999999999996 0 0  0.4000000000000004 0 0  0.4500000000000002 0 0  0.5 0 0  0.5499999999999998 0 0  0.5999999999999996 0 0  0.6500000000000004 0 0  0.7000000000000002 0 0  0.75 0 0  0.7999999999999998 0 0  0.8499999999999996 0 0  0.9000000000000004 0 0  0.9500000000000002 0 0  1 0 0  1.05 0 0  1.1 0 0  1.15 0 0  1.2 0 0  1.25 0 0  1.3 0 0  1.35 0 0  1.4 0 0  1.45 0 0  1.5 0 0  1.55 0 0  1.6 0 0  1.65 0 0  1.7 0 0  1.75 0 0  1.8 0 0  1.85 0 0  1.9 0 0  1.95 0 0  2 0 0  2.05 0 0  2.1 0 0  2.15 0 0  2.2 0 0  2.25 0 0  2.3 0 0  2.35 0 0  2.4 0 0  2.45 0 0  2.5 0 0  2.55 0 0  2.6 0 0  2.65 0 0  2.7 0 0  2.75 0 0  2.8 0 0  2.85 0 0  2.9 0 0  2.95 0 0  3 0 0  3.050000000000001 0 0  3.1 0 0  3.15 0 0  3.199999999999999 0 0  3.25 0 0  3.300000000000001 0 0  3.35 0 0  3.4 0 0  3.449999999999999 0 0  3.5 0 0  3.550000000000001 0 0  3.6 0 0  3.65 0 0  3.699999999999999 0 0  3.75 0 0  3.800000000000001 0 0  3.85 0 0  3.9 0 0  3.949999999999999 0 0  4 0 0  4.050000000000001 0 0  4.1 0 0  4.15 0 0  4.199999999999999 0 0  4.25 0 0  4.300000000000001 0 0  4.35 0 0  4.4 0 0  4.449999999999999 0 0  4.5 0 0  4.550000000000001 0 0  4.6 0 0  4.65 0 0  4.699999999999999 0 0  4.75 0 0  4.800000000000001 0 0  4.85 0 0  4.9 0 0  4.949999999999999 0 0  5 0 0  </DataArray>
</Points>
<Cells>
<DataArray  type="UInt32"  Name="connectivity"  format="ascii">0 1  1 2  2 3  3 4  4 5  5 6  6 7  7 8  8 9  9 10  10 11  11 12  12 13  13 14  14 15  15 16  16 17  17 18  18 19  19 20  20 21  21 22  22 23  23 24  24 25  25 26  26 27  27 28  28 29  29 30  30 31  31 32  32 33  33 34  34 35  35 36  36 37  37 38  38 39  39 40  40 41  41 42  42 43  43 44  44 45  45 46  46 47  47 48  48 49  49 50  50 51  51 52  52 53  53 54  54 55  55 56  56 57  57 58  58 59  59 60  60 61  61 62  62 63  63 64  64 65  65 66  66 67  67 68  68 69  69 70  70 71  71 72  72 73  73 74  74 75  75 76  76 77  77 78  78 79  79 80  80 81  81 82  82 83  83 84  84 85  85 86  86 87  87 88  88 89  89 90  90 91  91 92  92 93  93 94  94 95  95 96  96 97  97 98  98 99  99 100  100 101  101 102  102 103  103 104  104 105  105 106  106 107  107 108  108 109  109 110  110 111  111 112  112 113  113 114  114 115  115 116  116 117  117 118  118 119  119 120  120 121  121 122  122 123  123 124  124 125  125 126  126 127  127 128  128 129  129 130  130 131  131 132  132 133  133 134  134 135  135 136  136 137  137 138  138 139  139 140  140 141  141 142  142 143  143 144  144 145  145 146  146 147  147 148  148 149  149 150  150 151  151 152  152 153  153 154  154 155  155 156  156 157  157 158  158 159  159 160  160 161  161 162  162 163  163 164  164 165  165 166  166 167  167 168  168 169  169 170  170 171  171 172  172 173  173 174  174 175  175 176  176 177  177 178  178 179  179 180  180 181  181 182  182 183  183 184  184 185  185 186  186 187  187 188  188 189  189 190  190 191  191 192  192 193  193 194  194 195  195 196  196 197  197 198  198 199  199 200  </DataArray>
<DataArray  type="UInt32"  Name="offsets"  format="ascii">2 4 6 8 10 12 14 16 18 20 22 24 26 28 30 32 34 36 38 40 42 44 46 48 50 52 54 56 58 60 62 64 66 68 70 72 74 76 78 80 82 84 86 88 90 92 94 96 98 100 102 104 106 108 110 112 114 116 118 120 122 124 126 128 130 132 134 136 138 140 142 144 146 148 150 152 154 156 158 160 162 164 166 168 170 172 174 176 178 180 182 184 186 188 190 192 194 196 198 200 202 204 206 208 210 212 214 216 218 220 222 224 226 228 230 232 234 236 238 240 242 244 246 248 250 252 254 256 258 260 262 264 266 268 270 272 274 276 278 280 282 284 286 288 290 292 294 296 298 300 302 304 306 308 310 312 314 316 318 320 322 324 326 328 330 332 334 336 338 340 342 344 346 348 350 352 354 356 358 360 362 364 366 368 370 372 374 376 378 380 382 384 386 388 390 392 394 396 398 400 </DataArray>
<DataArray  type="UInt8"  Name="types"  format="ascii">3 3 3 3 3 3 3 3 3 3 3 3 3 3 3 3 3 3 3 3 3 3 3 3 3 3 3 3 3 3 3 3 3 3 3 3 3 3 3 3 3 3 3 3 3 3 3 3 3 3 3 3 3 3 3 3 3 3 3 3 3 3 3 3 3 3 3 3 3 3 3 3 3 3 3 3 3 3 3 3 3 3 3 3 3 3 3 3 3 3 3 3 3 3 3 3 3 3 3 3 3 3 3 3 3 3 3 3 3 3 3 3 3 3 3 3 3 3 3 3 3 3 3 3 3 3 3 3 3 3 3 3 3 3 3 3 3 3 3 3 3 3 3 3 3 3 3 3 3 3 3 3 3 3 3 3 3 3 3 3 3 3 3 3 3 3 3 3 3 3 3 3 3 3 3 3 3 3 3 3 3 3 3 3 3 3 3 3 3 3 3 3 3 3 3 3 3 3 3 3 </DataArray>
</Cells>
<PointData  Vectors="f_5"> 
<DataArray  type="Float64"  Name="f_5"  NumberOfComponents="3" format="ascii">1.0000000000000002e+01 0.0000000000000000e+00 0.0000000000000000e+00  1.0000000000000002e+01 0.0000000000000000e+00 0.0000000000000000e+00  1.0000000000000002e+01 0.0000000000000000e+00 0.0000000000000000e+00  1.0000000000000002e+01 0.0000000000000000e+00 0.0000000000000000e+00  1.0000000000000002e+01 0.0000000000000000e+00 0.0000000000000000e+00  1.0000000000000004e+01 0.0000000000000000e+00 0.0000000000000000e+00  1.0000000000000002e+01 0.0000000000000000e+00 0.0000000000000000e+00  1.0000000000000004e+01 0.0000000000000000e+00 0.0000000000000000e+00  1.0000000000000002e+01 0.0000000000000000e+00 0.0000000000000000e+00  1.0000000000000002e+01 0.0000000000000000e+00 0.0000000000000000e+00  1.0000000000000004e+01 0.0000000000000000e+00 0.0000000000000000e+00  1.0000000000000000e+01 0.0000000000000000e+00 0.0000000000000000e+00  1.0000000000000002e+01 0.0000000000000000e+00 0.0000000000000000e+00  1.0000000000000002e+01 0.0000000000000000e+00 0.0000000000000000e+00  1.0000000000000004e+01 0.0000000000000000e+00 0.0000000000000000e+00  1.0000000000000002e+01 0.0000000000000000e+00 0.0000000000000000e+00  1.0000000000000002e+01 0.0000000000000000e+00 0.0000000000000000e+00  1.0000000000000004e+01 0.0000000000000000e+00 0.0000000000000000e+00  1.0000000000000002e+01 0.0000000000000000e+00 0.0000000000000000e+00  9.9999999999999982e+00 0.0000000000000000e+00 0.0000000000000000e+00  1.0000000000000002e+01 0.0000000000000000e+00 0.0000000000000000e+00  1.0000000000000004e+01 0.0000000000000000e+00 0.0000000000000000e+00  1.0000000000000002e+01 0.0000000000000000e+00 0.0000000000000000e+00  1.0000000000000002e+01 0.0000000000000000e+00 0.0000000000000000e+00  1.0000000000000004e+01 0.0000000000000000e+00 0.0000000000000000e+00  1.0000000000000004e+01 0.0000000000000000e+00 0.0000000000000000e+00  1.0000000000000002e+01 0.0000000000000000e+00 0.0000000000000000e+00  1.0000000000000004e+01 0.0000000000000000e+00 0.0000000000000000e+00  1.0000000000000002e+01 0.0000000000000000e+00 0.0000000000000000e+00  1.0000000000000004e+01 0.0000000000000000e+00 0.0000000000000000e+00  1.0000000000000004e+01 0.0000000000000000e+00 0.0000000000000000e+00  1.0000000000000002e+01 0.0000000000000000e+00 0.0000000000000000e+00  1.0000000000000004e+01 0.0000000000000000e+00 0.0000000000000000e+00  1.0000000000000002e+01 0.0000000000000000e+00 0.0000000000000000e+00  1.0000000000000004e+01 0.0000000000000000e+00 0.0000000000000000e+00  1.0000000000000004e+01 0.0000000000000000e+00 0.0000000000000000e+00  1.0000000000000002e+01 0.0000000000000000e+00 0.0000000000000000e+00  1.0000000000000004e+01 0.0000000000000000e+00 0.0000000000000000e+00  1.0000000000000002e+01 0.0000000000000000e+00 0.0000000000000000e+00  1.0000000000000004e+01 0.0000000000000000e+00 0.0000000000000000e+00  1.0000000000000004e+01 0.0000000000000000e+00 0.0000000000000000e+00  1.0000000000000002e+01 0.0000000000000000e+00 0.0000000000000000e+00  1.0000000000000004e+01 0.0000000000000000e+00 0.0000000000000000e+00  1.0000000000000002e+01 0.0000000000000000e+00 0.0000000000000000e+00  1.0000000000000004e+01 0.0000000000000000e+00 0.0000000000000000e+00  1.0000000000000004e+01 0.0000000000000000e+00 0.0000000000000000e+00  1.0000000000000002e+01 0.0000000000000000e+00 0.0000000000000000e+00  1.0000000000000004e+01 0.0000000000000000e+00 0.0000000000000000e+00  1.0000000000000002e+01 0.0000000000000000e+00 0.0000000000000000e+00  1.0000000000000004e+01 0.0000000000000000e+00 0.0000000000000000e+00  1.0000000000000004e+01 0.0000000000000000e+00 0.0000000000000000e+00  1.0000000000000002e+01 0.0000000000000000e+00 0.0000000000000000e+00  1.0000000000000004e+01 0.0000000000000000e+00 0.0000000000000000e+00  1.0000000000000002e+01 0.0000000000000000e+00 0.0000000000000000e+00  1.0000000000000004e+01 0.0000000000000000e+00 0.0000000000000000e+00  1.0000000000000004e+01 0.0000000000000000e+00 0.0000000000000000e+00  1.0000000000000002e+01 0.0000000000000000e+00 0.0000000000000000e+00  1.0000000000000004e+01 0.0000000000000000e+00 0.0000000000000000e+00  1.0000000000000002e+01 0.0000000000000000e+00 0.0000000000000000e+00  1.0000000000000004e+01 0.0000000000000000e+00 0.0000000000000000e+00  1.0000000000000004e+01 0.0000000000000000e+00 0.0000000000000000e+00  1.0000000000000002e+01 0.0000000000000000e+00 0.0000000000000000e+00  1.0000000000000004e+01 0.0000000000000000e+00 0.0000000000000000e+00  1.0000000000000002e+01 0.0000000000000000e+00 0.0000000000000000e+00  1.0000000000000004e+01 0.0000000000000000e+00 0.0000000000000000e+00  1.0000000000000004e+01 0.0000000000000000e+00 0.0000000000000000e+00  1.0000000000000002e+01 0.0000000000000000e+00 0.0000000000000000e+00  1.0000000000000004e+01 0.0000000000000000e+00 0.0000000000000000e+00  1.0000000000000002e+01 0.0000000000000000e+00 0.0000000000000000e+00  1.0000000000000004e+01 0.0000000000000000e+00 0.0000000000000000e+00  1.0000000000000004e+01 0.0000000000000000e+00 0.0000000000000000e+00  1.0000000000000002e+01 0.0000000000000000e+00 0.0000000000000000e+00  1.0000000000000004e+01 0.0000000000000000e+00 0.0000000000000000e+00  1.0000000000000002e+01 0.0000000000000000e+00 0.0000000000000000e+00  1.0000000000000004e+01 0.0000000000000000e+00 0.0000000000000000e+00  1.0000000000000004e+01 0.0000000000000000e+00 0.0000000000000000e+00  1.0000000000000002e+01 0.0000000000000000e+00 0.0000000000000000e+00  1.0000000000000004e+01 0.0000000000000000e+00 0.0000000000000000e+00  1.0000000000000002e+01 0.0000000000000000e+00 0.0000000000000000e+00  1.0000000000000004e+01 0.0000000000000000e+00 0.0000000000000000e+00  1.0000000000000002e+01 0.0000000000000000e+00 0.0000000000000000e+00  1.0000000000000002e+01 0.0000000000000000e+00 0.0000000000000000e+00  1.0000000000000004e+01 0.0000000000000000e+00 0.0000000000000000e+00  1.0000000000000002e+01 0.0000000000000000e+00 0.0000000000000000e+00  9.9999999999999982e+00 0.0000000000000000e+00 0.0000000000000000e+00  1.0000000000000002e+01 0.0000000000000000e+00 0.0000000000000000e+00  1.0000000000000002e+01 0.0000000000000000e+00 0.0000000000000000e+00  1.0000000000000004e+01 0.0000000000000000e+00 0.0000000000000000e+00  1.0000000000000002e+01 0.0000000000000000e+00 0.0000000000000000e+00  9.9999999999999982e+00 0.0000000000000000e+00 0.0000000000000000e+00  1.0000000000000002e+01 0.0000000000000000e+00 0.0000000000000000e+00  1.0000000000000002e+01 0.0000000000000000e+00 0.0000000000000000e+00  1.0000000000000004e+01 0.0000000000000000e+00 0.0000000000000000e+00  1.0000000000000002e+01 0.0000000000000000e+00 0.0000000000000000e+00  9.9999999999999982e+00 0.0000000000000000e+00 0.0000000000000000e+00  8.9712995046481918e+00 1.0463465272620243e+00 0.0000000000000000e+00  7.9400376021163419e+00 2.1574576383731312e+00 0.0000000000000000e+00  6.9717211448300436e+00 3.2685687494842388e+00 0.0000000000000000e+00  6.0663501327892808e+00 4.3796798605953660e+00 0.0000000000000000e+00  5.2239245659940901e+00 5.4907909717064713e+00 0.0000000000000000e+00  4.4444444444444446e+00 6.6019020828175812e+00 0.0000000000000000e+00  3.9618000000000007e+00 7.3396343122977878e+00 0.0000000000000000e+00  3.9618000000000011e+00 7.3396343122977870e+00 0.0000000000000000e+00  3.9618000000000007e+00 7.3396343122977870e+00 0.0000000000000000e+00  3.9618000000000011e+00 7.3396343122977878e+00 0.0000000000000000e+00  3.9618000000000007e+00 7.3396343122977852e+00 0.0000000000000000e+00  1.0000000000000002e+00 7.2111100739383856e-16 0.0000000000000000e+00  1.0000000000000000e+00 -1.9322111208437087e-16 0.0000000000000000e+00  1.0000000000000002e+00 5.1773440943651018e-17 0.0000000000000000e+00  1.0000000000000002e+00 -1.3872651690231710e-17 0.0000000000000000e+00  1.0000000000000000e+00 3.7171658172758344e-18 0.0000000000000000e+00  1.0000000000000000e+00 -9.9601157887163305e-19 0.0000000000000000e+00  1.0000000000000000e+00 2.6688049821069937e-19 0.0000000000000000e+00  1.0000000000000002e+00 -7.1510413971173146e-20 0.0000000000000000e+00  1.0000000000000002e+00 1.9161157673991116e-20 0.0000000000000000e+00  1.0000000000000000e+00 -5.1342167247913258e-21 0.0000000000000000e+00  1.0000000000000000e+00 1.3757092251741982e-21 0.0000000000000000e+00  1.0000000000000000e+00 -3.6862017590546904e-22 0.0000000000000000e+00  1.0000000000000002e+00 9.8771478447689606e-23 0.0000000000000000e+00  1.0000000000000002e+00 -2.6465737885286459e-23 0.0000000000000000e+00  1.0000000000000000e+00 7.0914730934562729e-24 0.0000000000000000e+00  1.0000000000000000e+00 -1.9001544885386421e-24 0.0000000000000000e+00  1.0000000000000000e+00 5.0914486069829801e-25 0.0000000000000000e+00  1.0000000000000002e+00 -1.3642495425456649e-25 0.0000000000000000e+00  1.0000000000000002e+00 3.6554956319963939e-26 0.0000000000000000e+00  1.0000000000000000e+00 -9.7948710252893011e-27 0.0000000000000000e+00  1.0000000000000000e+00 2.6245277811932683e-27 0.0000000000000000e+00  1.0000000000000000e+00 -7.0324009948377692e-28 0.0000000000000000e+00  1.0000000000000002e+00 1.8843261674186188e-28 0.0000000000000000e+00  1.0000000000000002e+00 -5.0490367483665126e-29 0.0000000000000000e+00  1.0000000000000000e+00 1.3528853192798684e-29 0.0000000000000000e+00  1.0000000000000000e+00 -3.6250452875296200e-30 0.0000000000000000e+00  1.0000000000000000e+00 9.7132795731980096e-31 0.0000000000000000e+00  1.0000000000000002e+00 -2.6026654174961473e-31 0.0000000000000000e+00  1.0000000000000002e+00 6.9738209678650320e-32 0.0000000000000000e+00  1.0000000000000000e+00 -1.8686296964986651e-32 0.0000000000000000e+00  1.0000000000000000e+00 5.0069781812963076e-33 0.0000000000000000e+00  1.0000000000000000e+00 -1.3416157601985864e-33 0.0000000000000000e+00  1.0000000000000002e+00 3.5948485949808081e-34 0.0000000000000000e+00  1.0000000000000002e+00 -9.6323677793726336e-35 0.0000000000000000e+00  1.0000000000000000e+00 2.5809851676824624e-35 0.0000000000000000e+00  1.0000000000000000e+00 -6.9157289135722099e-36 0.0000000000000000e+00  1.0000000000000000e+00 1.8530639774642244e-36 0.0000000000000000e+00  1.0000000000000002e+00 -4.9652699628474688e-37 0.0000000000000000e+00  1.0000000000000002e+00 1.3304400767474896e-37 0.0000000000000000e+00  1.0000000000000000e+00 -3.5649034414249064e-38 0.0000000000000000e+00  1.0000000000000000e+00 9.5521299822473278e-39 0.0000000000000000e+00  1.0000000000000000e+00 -2.5594855147402654e-39 0.0000000000000000e+00  1.0000000000000002e+00 6.8581207671381589e-40 0.0000000000000000e+00  1.0000000000000002e+00 -1.8376279211497805e-40 0.0000000000000000e+00  1.0000000000000000e+00 4.9239091746096634e-41 0.0000000000000000e+00  1.0000000000000000e+00 -1.3193574869408540e-41 0.0000000000000000e+00  1.0000000000000000e+00 3.5352077315375452e-42 0.0000000000000000e+00  1.0000000000000002e+00 -9.4725605674175381e-43 0.0000000000000000e+00  1.0000000000000002e+00 2.5381649542944257e-43 0.0000000000000000e+00  1.0000000000000000e+00 -6.8009924976016847e-44 0.0000000000000000e+00  1.0000000000000000e+00 1.8223204474624942e-44 0.0000000000000000e+00  1.0000000000000000e+00 -4.8828929224829363e-45 0.0000000000000000e+00  1.0000000000000002e+00 1.3083672153069575e-45 0.0000000000000000e+00  1.0000000000000002e+00 -3.5057593874485578e-46 0.0000000000000000e+00  9.9999999999999989e-01 9.3936539672466154e-47 0.0000000000000000e+00  1.0000000000000004e+00 -2.5170219945011809e-47 0.0000000000000000e+00  9.9999999999999989e-01 6.7443401075795460e-48 0.0000000000000000e+00  1.0000000000000004e+00 -1.8071404853067973e-48 0.0000000000000000e+00  1.0000000000000000e+00 4.8422183364753545e-49 0.0000000000000000e+00  1.0000000000000002e+00 -1.2974684928337462e-49 0.0000000000000000e+00  1.0000000000000002e+00 3.4765563485963340e-50 0.0000000000000000e+00  9.9999999999999989e-01 -9.3154046604766581e-51 0.0000000000000000e+00  1.0000000000000004e+00 2.4960551559438743e-51 0.0000000000000000e+00  1.0000000000000000e+00 -6.6881596329869007e-52 0.0000000000000000e+00  1.0000000000000002e+00 1.7920869725092747e-52 0.0000000000000000e+00  1.0000000000000002e+00 -4.8018825705020290e-53 0.0000000000000000e+00  9.9999999999999989e-01 1.2866605569150824e-53 0.0000000000000000e+00  1.0000000000000004e+00 -3.4475965715838006e-54 0.0000000000000000e+00  1.0000000000000000e+00 9.2378071718417126e-55 0.0000000000000000e+00  1.0000000000000002e+00 -2.4752629715294218e-55 0.0000000000000000e+00  1.0000000000000002e+00 6.6324471427597955e-56 0.0000000000000000e+00  9.9999999999999989e-01 -1.7771588557445666e-56 0.0000000000000000e+00  1.0000000000000004e+00 4.7618828021858178e-57 0.0000000000000000e+00  1.0000000000000000e+00 -1.2759426512973201e-57 0.0000000000000000e+00  1.0000000000000002e+00 3.4188780300354275e-58 0.0000000000000000e+00  1.0000000000000002e+00 -9.1608560716851407e-59 0.0000000000000000e+00  9.9999999999999989e-01 2.4546439863857426e-59 0.0000000000000000e+00  1.0000000000000004e+00 -6.5771987385798127e-60 0.0000000000000000e+00  1.0000000000000000e+00 1.7623550904614305e-60 0.0000000000000000e+00  1.0000000000000002e+00 -4.7222162326601874e-61 0.0000000000000000e+00  1.0000000000000002e+00 1.2653140260264548e-61 0.0000000000000000e+00  9.9999999999999989e-01 -3.3903987144555629e-62 0.0000000000000000e+00  1.0000000000000004e+00 9.0845459755791411e-63 0.0000000000000000e+00  1.0000000000000000e+00 -2.4341967577603860e-63 0.0000000000000000e+00  1.0000000000000002e+00 6.5224105546255647e-64 0.0000000000000000e+00  1.0000000000000002e+00 -1.7476746408984111e-64 0.0000000000000000e+00  9.9999999999999989e-01 4.6828800896797318e-65 0.0000000000000000e+00  1.0000000000000004e+00 -1.2547739497351097e-65 0.0000000000000000e+00  1.0000000000000000e+00 3.3621570926063165e-66 0.0000000000000000e+00  1.0000000000000002e+00 -9.0088887307437992e-67 0.0000000000000000e+00  1.0000000000000002e+00 2.4139839969120485e-67 0.0000000000000000e+00  9.9999999999999989e-01 -6.4704725690425029e-68 0.0000000000000000e+00  1.0000000000000004e+00 1.7420503070499307e-68 0.0000000000000000e+00  1.0000000000000000e+00 -4.9772865915711517e-69 0.0000000000000000e+00  1.0000000000000002e+00 2.4886432957855748e-69 0.0000000000000000e+00  </DataArray> 
</PointData> 
</Piece>
</UnstructuredGrid>
</VTKFile>