<?xml version="1.0"?>
<VTKFile type="UnstructuredGrid"  version="0.1"  >
<UnstructuredGrid>
<Piece  NumberOfPoints="201" NumberOfCells="200">
<Points>
<DataArray  type="Float64"  NumberOfComponents="3"  format="ascii">-5 0 0  -4.95 0 0  -4.9 0 0  -4.85 0 0  -4.8 0 0  -4.75 0 0  -4.7 0 0  -4.65 0 0  -4.6 0 0  -4.55 0 0  -4.5 0 0  -4.45 0 0  -4.4 0 0  -4.35 0 0  -4.3 0 0  -4.25 0 0  -4.2 0 0  -4.15 0 0  -4.1 0 0  -4.05 0 0  -4 0 0  -3.95 0 0  -3.9 0 0  -3.85 0 0  -3.8 0 0  -3.75 0 0  -3.7 0 0  -3.65 0 0  -3.6 0 0  -3.55 0 0  -3.5 0 0  -3.45 0 0  -3.4 0 0  -3.35 0 0  -3.3 0 0  -3.25 0 0  -3.2 0 0  -3.15 0 0  -3.1 0 0  -3.05 0 0  -3 0 0  -2.95 0 0  -2.9 0 0  -2.85 0 0  -2.8 0 0  -2.75 0 0  -2.7 0 0  -2.65 0 0  -2.6 0 0  -2.55 0 0  -2.5 0 0  -2.45 0 0  -2.4 0 0  -2.35 0 0  -2.3 0 0  -2.25 0 0  -2.2 0 0  -2.15 0 0  -2.1 0 0  -2.05 0 0  -2 0 0  -1.95 0 0  -1.9 0 0  -1.85 0 0  -1.8 0 0  -1.75 0 0  -1.7 0 0  -1.65 0 0  -1.6 0 0  -1.55 0 0  -1.5 0 0  -1.45 0 0  -1.4 0 0  -1.35 0 0  -1.3 0 0  -1.25 0 0  -1.2 0 0  -1.15 0 0  -1.1 0 0  -1.05 0 0  -1 0 0  -0.9500000000000002 0 0  -0.9000000000000004 0 0  -0.8499999999999996 0 0  -0.7999999999999998 0 0  -0.75 0 0  -0.7000000000000002 0 0  -0.6500000000000004 0 0  -0.5999999999999996 0 0  -0.5499999999999998 0 0  -0.5 0 0  -0.4500000000000002 0 0  -0.4000000000000004 0 0  -0.3499999999999996 0 0  -0.2999999999999998 0 0  -0.25 0 0  -0.2000000000000002 0 0  -0.1500000000000004 0 0  -0.09999999999999964 0 0  -0.04999999999999982 0 0  0 0 0  0.04999999999999982 0 0  0.09999999999999964 0 0  0.1500000000000004 0 0  0.2000000000000002 0 0  0.25 0 0  0.2999999999999998 0 0  0.3499999999999996 0 0  0.4000000000000004 0 0  0.4500000000000002 0 0  0.5 0 0  0.5499999999999998 0 0  0.5999999999999996 0 0  0.6500000000000004 0 0  0.7000000000000002 0 0  0.75 0 0  0.7999999999999998 0 0  0.8499999999999996 0 0  0.9000000000000004 0 0  0.9500000000000002 0 0  1 0 0  1.05 0 0  1.1 0 0  1.15 0 0  1.2 0 0  1.25 0 0  1.3 0 0  1.35 0 0  1.4 0 0  1.45 0 0  1.5 0 0  1.55 0 0  1.6 0 0  1.65 0 0  1.7 0 0  1.75 0 0  1.8 0 0  1.85 0 0  1.9 0 0  1.95 0 0  2 0 0  2.05 0 0  2.1 0 0  2.15 0 0  2.2 0 0  2.25 0 0  2.3 0 0  2.35 0 0  2.4 0 0  2.45 0 0  2.5 0 0  2.55 0 0  2.6 0 0  2.65 0 0  2.7 0 0  2.75 0 0  2.8 0 0  2.85 0 0  2.9 0 0  2.95 0 0  3 0 0  3.050000000000001 0 0  3.1 0 0  3.15 0 0  3.199999999999999 0 0  3.25 0 0  3.300000000000001 0 0  3.35 0 0  3.4 0 0  3.449999999999999 0 0  3.5 0 0  3.550000000000001 0 0  3.6 0 0  3.65 0 0  3.699999999999999 0 0  3.75 0 0  3.800000000000001 0 0  3.85 0 0  3.9 0 0  3.949999999999999 0 0  4 0 0  4.050000000000001 0 0  4.1 0 0  4.15 0 0  4.199999999999999 0 0  4.25 0 0  4.300000000000001 0 0  4.35 0 0  4.4 0 0  4.449999999999999 0 0  4.5 0 0  4.550000000000001 0 0  4.6 0 0  4.65 0 0  4.699999999999999 0 0  4.75 0 0  4.800000000000001 0 0  4.85 0 0  4.9 0 0  4.949999999999999 0 0  5 0 0  </DataArray>
</Points>
<Cells>
<DataArray  type="UInt32"  Name="connectivity"  format="ascii">0 1  1 2  2 3  3 4  4 5  5 6  6 7  7 8  8 9  9 10  10 11  11 12  12 13  13 14  14 15  15 16  16 17  17 18  18 19  19 20  20 21  21 22  22 23  23 24  24 25  25 26  26 27  27 28  28 29  29 30  30 31  31 32  32 33  33 34  34 35  35 36  36 37  37 38  38 39  39 40  40 41  41 42  42 43  43 44  44 45  45 46  46 47  47 48  48 49  49 50  50 51  51 52  52 53  53 54  54 55  55 56  56 57  57 58  58 59  59 60  60 61  61 62  62 63  63 64  64 65  65 66  66 67  67 68  68 69  69 70  70 71  71 72  72 73  73 74  74 75  75 76  76 77  77 78  78 79  79 80  80 81  81 82  82 83  83 84  84 85  85 86  86 87  87 88  88 89  89 90  90 91  91 92  92 93  93 94  94 95  95 96  96 97  97 98  98 99  99 100  100 101  101 102  102 103  103 104  104 105  105 106  106 107  107 108  108 109  109 110  110 111  111 112  112 113  113 114  114 115  115 116  116 117  117 118  118 119  119 120  120 121  121 122  122 123  123 124  124 125  125 126  126 127  127 128  128 129  129 130  130 131  131 132  132 133  133 134  134 135  135 136  136 137  137 138  138 139  139 140  140 141  141 142  142 143  143 144  144 145  145 146  146 147  147 148  148 149  149 150  150 151  151 152  152 153  153 154  154 155  155 156  156 157  157 158  158 159  159 160  160 161  161 162  162 163  163 164  164 165  165 166  166 167  167 168  168 169  169 170  170 171  171 172  172 173  173 174  174 175  175 176  176 177  177 178  178 179  179 180  180 181  181 182  182 183  183 184  184 185  185 186  186 187  187 188  188 189  189 190  190 191  191 192  192 193  193 194  194 195  195 196  196 197  197 198  198 199  199 200  </DataArray>
<DataArray  type="UInt32"  Name="offsets"  format="ascii">2 4 6 8 10 12 14 16 18 20 22 24 26 28 30 32 34 36 38 40 42 44 46 48 50 52 54 56 58 60 62 64 66 68 70 72 74 76 78 80 82 84 86 88 90 92 94 96 98 100 102 104 106 108 110 112 114 116 118 120 122 124 126 128 130 132 134 136 138 140 142 144 146 148 150 152 154 156 158 160 162 164 166 168 170 172 174 176 178 180 182 184 186 188 190 192 194 196 198 200 202 204 206 208 210 212 214 216 218 220 222 224 226 228 230 232 234 236 238 240 242 244 246 248 250 252 254 256 258 260 262 264 266 268 270 272 274 276 278 280 282 284 286 288 290 292 294 296 298 300 302 304 306 308 310 312 314 316 318 320 322 324 326 328 330 332 334 336 338 340 342 344 346 348 350 352 354 356 358 360 362 364 366 368 370 372 374 376 378 380 382 384 386 388 390 392 394 396 398 400 </DataArray>
<DataArray  type="UInt8"  Name="types"  format="ascii">3 3 3 3 3 3 3 3 3 3 3 3 3 3 3 3 3 3 3 3 3 3 3 3 3 3 3 3 3 3 3 3 3 3 3 3 3 3 3 3 3 3 3 3 3 3 3 3 3 3 3 3 3 3 3 3 3 3 3 3 3 3 3 3 3 3 3 3 3 3 3 3 3 3 3 3 3 3 3 3 3 3 3 3 3 3 3 3 3 3 3 3 3 3 3 3 3 3 3 3 3 3 3 3 3 3 3 3 3 3 3 3 3 3 3 3 3 3 3 3 3 3 3 3 3 3 3 3 3 3 3 3 3 3 3 3 3 3 3 3 3 3 3 3 3 3 3 3 3 3 3 3 3 3 3 3 3 3 3 3 3 3 3 3 3 3 3 3 3 3 3 3 3 3 3 3 3 3 3 3 3 3 3 3 3 3 3 3 3 3 3 3 3 3 3 3 3 3 3 3 </DataArray>
</Cells>
<PointData  Vectors="f_5"> 
<DataArray  type="Float64"  Name="f_5"  NumberOfComponents="3" format="ascii">1.0000000000000002e+01 -1.9998393068275070e-26 0.0000000000000000e+00  1.0000000000000002e+01 3.9996786136550145e-26 0.0000000000000000e+00  1.0000000000000002e+01 -1.3998875147792556e-25 0.0000000000000000e+00  1.0000000000000002e+01 5.1995821977514810e-25 0.0000000000000000e+00  1.0000000000000002e+01 -1.9398441276226838e-24 0.0000000000000000e+00  1.0000000000000004e+01 7.2394182907155898e-24 0.0000000000000000e+00  1.0000000000000002e+01 -2.7017829035239687e-23 0.0000000000000000e+00  1.0000000000000004e+01 1.0083189785024320e-22 0.0000000000000000e+00  1.0000000000000002e+01 -3.7630976236573019e-22 0.0000000000000000e+00  1.0000000000000002e+01 1.4044071516126899e-21 0.0000000000000000e+00  1.0000000000000004e+01 -5.2413188440850305e-21 0.0000000000000000e+00  1.0000000000000000e+01 1.9560868224727437e-20 0.0000000000000000e+00  1.0000000000000002e+01 -7.3002154054824735e-20 0.0000000000000000e+00  1.0000000000000002e+01 2.7244774799456943e-19 0.0000000000000000e+00  1.0000000000000004e+01 -1.0167888379234619e-18 0.0000000000000000e+00  1.0000000000000000e+01 3.7947076036992794e-18 0.0000000000000000e+00  9.9862039018526279e+00 1.3666788699932642e-02 0.0000000000000000e+00  9.9072145894843491e+00 9.2098161248952037e-02 0.0000000000000000e+00  9.8285389153207454e+00 1.7052953379797253e-01 0.0000000000000000e+00  9.7501768793618311e+00 2.4896090634699186e-01 0.0000000000000000e+00  9.6721284816076061e+00 3.2739227889601130e-01 0.0000000000000000e+00  9.5943937220580562e+00 4.0582365144503041e-01 0.0000000000000000e+00  9.5169726007131956e+00 4.8425502399405113e-01 0.0000000000000000e+00  9.4398651175730173e+00 5.6268639654307029e-01 0.0000000000000000e+00  9.3630712726375229e+00 6.4111776909208984e-01 0.0000000000000000e+00  9.2865910659067126e+00 7.1954914164110906e-01 0.0000000000000000e+00  9.2104244973805791e+00 7.9798051419012872e-01 0.0000000000000000e+00  9.1345715670591421e+00 8.7641188673914883e-01 0.0000000000000000e+00  9.0590322749423819e+00 9.5484325928816838e-01 0.0000000000000000e+00  8.9838066210303040e+00 1.0332746318371875e+00 0.0000000000000000e+00  8.9088946053229119e+00 1.1117060043862068e+00 0.0000000000000000e+00  8.8342962278202002e+00 1.1901373769352264e+00 0.0000000000000000e+00  8.7600114885221760e+00 1.2685687494842466e+00 0.0000000000000000e+00  8.6860403874288341e+00 1.3470001220332664e+00 0.0000000000000000e+00  8.6123829245401780e+00 1.4254314945822859e+00 0.0000000000000000e+00  8.5390390998562022e+00 1.5038628671313055e+00 0.0000000000000000e+00  8.4660089133769123e+00 1.5822942396803255e+00 0.0000000000000000e+00  8.3932923651023010e+00 1.6607256122293446e+00 0.0000000000000000e+00  8.3208894550323809e+00 1.7391569847783641e+00 0.0000000000000000e+00  8.2488001831671394e+00 1.8175883573273850e+00 0.0000000000000000e+00  8.1770245495065890e+00 1.8960197298764043e+00 0.0000000000000000e+00  8.1055625540507137e+00 1.9744511024254230e+00 0.0000000000000000e+00  8.0344141967995313e+00 2.0528824749744432e+00 0.0000000000000000e+00  7.9635794777530178e+00 2.1313138475234616e+00 0.0000000000000000e+00  7.8930583969112034e+00 2.2097452200724823e+00 0.0000000000000000e+00  7.8228509542740641e+00 2.2881765926215016e+00 0.0000000000000000e+00  7.7529571498416106e+00 2.3666079651705210e+00 0.0000000000000000e+00  7.6833769836138393e+00 2.4450393377195407e+00 0.0000000000000000e+00  7.6141104555907546e+00 2.5234707102685610e+00 0.0000000000000000e+00  7.5451575657723540e+00 2.6019020828175807e+00 0.0000000000000000e+00  7.4765183141586329e+00 2.6803334553665992e+00 0.0000000000000000e+00  7.4081927007495967e+00 2.7587648279156181e+00 0.0000000000000000e+00  7.3401807255452516e+00 2.8371962004646396e+00 0.0000000000000000e+00  7.2724823885455789e+00 2.9156275730136580e+00 0.0000000000000000e+00  7.2050976897505983e+00 2.9940589455626778e+00 0.0000000000000000e+00  7.1380266291602963e+00 3.0724903181116994e+00 0.0000000000000000e+00  7.0712692067746783e+00 3.1509216906607169e+00 0.0000000000000000e+00  7.0048254225937487e+00 3.2293530632097376e+00 0.0000000000000000e+00  6.9386952766174979e+00 3.3077844357587569e+00 0.0000000000000000e+00  6.8728787688459319e+00 3.3862158083077762e+00 0.0000000000000000e+00  6.8073758992790561e+00 3.4646471808567960e+00 0.0000000000000000e+00  6.7421866679168536e+00 3.5430785534058158e+00 0.0000000000000000e+00  6.6773110747593432e+00 3.6215099259548347e+00 0.0000000000000000e+00  6.6127491198065123e+00 3.6999412985038553e+00 0.0000000000000000e+00  6.5485008030583636e+00 3.7783726710528738e+00 0.0000000000000000e+00  6.4845661245149033e+00 3.8568040436018940e+00 0.0000000000000000e+00  6.4209450841761226e+00 3.9352354161509124e+00 0.0000000000000000e+00  6.3576376820420268e+00 4.0136667886999327e+00 0.0000000000000000e+00  6.2946439181126159e+00 4.0920981612489529e+00 0.0000000000000000e+00  6.2319637923878846e+00 4.1705295337979731e+00 0.0000000000000000e+00  6.1695973048678443e+00 4.2489609063469924e+00 0.0000000000000000e+00  6.1075444555524792e+00 4.3273922788960100e+00 0.0000000000000000e+00  6.0458052444418069e+00 4.4058236514450320e+00 0.0000000000000000e+00  5.9843796715358097e+00 4.4842550239940504e+00 0.0000000000000000e+00  5.9232677368345064e+00 4.5626863965430715e+00 0.0000000000000000e+00  5.8624694403378745e+00 4.6411177690920900e+00 0.0000000000000000e+00  5.8019847820459365e+00 4.7195491416411084e+00 0.0000000000000000e+00  5.7418137619586762e+00 4.7979805141901304e+00 0.0000000000000000e+00  5.6819563800761044e+00 4.8764118867391479e+00 0.0000000000000000e+00  5.6224126363982112e+00 4.9548432592881690e+00 0.0000000000000000e+00  5.5631825309250047e+00 5.0332746318371901e+00 0.0000000000000000e+00  5.5042660636564795e+00 5.1117060043862041e+00 0.0000000000000000e+00  5.4456632345926419e+00 5.1901373769352261e+00 0.0000000000000000e+00  5.3873740437334874e+00 5.2685687494842490e+00 0.0000000000000000e+00  5.3293984910790142e+00 5.3470001220332675e+00 0.0000000000000000e+00  5.2717365766292268e+00 5.4254314945822859e+00 0.0000000000000000e+00  5.2143883003841234e+00 5.5038628671313079e+00 0.0000000000000000e+00  5.1573536623437013e+00 5.5822942396803246e+00 0.0000000000000000e+00  5.1006326625079623e+00 5.6607256122293474e+00 0.0000000000000000e+00  5.0442253008769100e+00 5.7391569847783641e+00 0.0000000000000000e+00  4.9881315774505373e+00 5.8175883573273852e+00 0.0000000000000000e+00  4.9323514922288521e+00 5.8960197298764037e+00 0.0000000000000000e+00  4.8768850452118508e+00 5.9744511024254257e+00 0.0000000000000000e+00  4.8217322363995327e+00 6.0528824749744423e+00 0.0000000000000000e+00  4.7668930657918960e+00 6.1313138475234634e+00 0.0000000000000000e+00  4.7123675333889450e+00 6.2097452200724819e+00 0.0000000000000000e+00  4.6581556391906789e+00 6.2881765926215039e+00 0.0000000000000000e+00  4.6042573831970941e+00 6.3666079651705214e+00 0.0000000000000000e+00  4.5506727654081942e+00 6.4450393377195434e+00 0.0000000000000000e+00  4.4974017858239774e+00 6.5234707102685618e+00 0.0000000000000000e+00  4.4444444444444446e+00 6.6019020828175794e+00 0.0000000000000000e+00  4.3918007412695950e+00 6.6803334553665978e+00 0.0000000000000000e+00  4.3394706762994302e+00 6.7587648279156207e+00 0.0000000000000000e+00  4.2874542495339467e+00 6.8371962004646392e+00 0.0000000000000000e+00  4.2357514609731499e+00 6.9156275730136585e+00 0.0000000000000000e+00  4.1843623106170362e+00 6.9940589455626796e+00 0.0000000000000000e+00  4.1332867984656039e+00 7.0724903181116971e+00 0.0000000000000000e+00  4.0825249245188591e+00 7.1509216906607183e+00 0.0000000000000000e+00  4.0320766887767956e+00 7.2293530632097340e+00 0.0000000000000000e+00  3.9819420912394170e+00 7.3077844357587587e+00 0.0000000000000000e+00  3.9618000000000007e+00 7.3396343122977878e+00 0.0000000000000000e+00  3.9618000000000007e+00 7.3396343122977878e+00 0.0000000000000000e+00  3.9618000000000011e+00 7.3396343122977870e+00 0.0000000000000000e+00  3.9618000000000007e+00 7.3396343122977870e+00 0.0000000000000000e+00  3.9618000000000011e+00 7.3396343122977861e+00 0.0000000000000000e+00  3.9618000000000007e+00 7.3396343122977878e+00 0.0000000000000000e+00  3.9618000000000007e+00 7.3396343122977878e+00 0.0000000000000000e+00  3.9618000000000011e+00 7.3396343122977870e+00 0.0000000000000000e+00  3.9618000000000007e+00 7.3396343122977870e+00 0.0000000000000000e+00  3.9618000000000011e+00 7.3396343122977861e+00 0.0000000000000000e+00  3.9618000000000007e+00 7.3396343122977878e+00 0.0000000000000000e+00  3.9618000000000007e+00 7.3396343122977878e+00 0.0000000000000000e+00  3.9618000000000011e+00 7.3396343122977870e+00 0.0000000000000000e+00  3.9618000000000007e+00 7.3396343122977870e+00 0.0000000000000000e+00  3.9618000000000011e+00 7.3396343122977861e+00 0.0000000000000000e+00  3.9618000000000007e+00 7.3396343122977878e+00 0.0000000000000000e+00  3.9618000000000007e+00 7.3396343122977878e+00 0.0000000000000000e+00  3.9618000000000011e+00 7.3396343122977870e+00 0.0000000000000000e+00  3.9618000000000007e+00 7.3396343122977870e+00 0.0000000000000000e+00  3.9618000000000011e+00 7.3396343122977861e+00 0.0000000000000000e+00  3.9618000000000007e+00 7.3396343122977878e+00 0.0000000000000000e+00  3.9618000000000007e+00 7.3396343122977878e+00 0.0000000000000000e+00  3.9618000000000011e+00 7.3396343122977870e+00 0.0000000000000000e+00  3.9618000000000007e+00 7.3396343122977870e+00 0.0000000000000000e+00  3.9618000000000011e+00 7.3396343122977861e+00 0.0000000000000000e+00  3.9618000000000007e+00 7.3396343122977878e+00 0.0000000000000000e+00  3.9618000000000007e+00 7.3396343122977878e+00 0.0000000000000000e+00  3.9618000000000011e+00 7.3396343122977870e+00 0.0000000000000000e+00  3.9618000000000007e+00 7.3396343122977870e+00 0.0000000000000000e+00  3.9618000000000011e+00 7.3396343122977861e+00 0.0000000000000000e+00  3.9618000000000007e+00 7.3396343122977878e+00 0.0000000000000000e+00  3.9618000000000007e+00 7.3396343122977878e+00 0.0000000000000000e+00  3.9618000000000011e+00 7.3396343122977870e+00 0.0000000000000000e+00  3.9618000000000007e+00 7.3396343122977870e+00 0.0000000000000000e+00  3.9618000000000011e+00 7.3396343122977861e+00 0.0000000000000000e+00  3.9618000000000007e+00 7.3396343122977878e+00 0.0000000000000000e+00  3.9618000000000007e+00 7.3396343122977878e+00 0.0000000000000000e+00  3.9618000000000011e+00 7.3396343122977870e+00 0.0000000000000000e+00  3.9618000000000007e+00 7.3396343122977870e+00 0.0000000000000000e+00  3.9618000000000011e+00 7.3396343122977861e+00 0.0000000000000000e+00  3.9618000000000007e+00 7.3396343122977878e+00 0.0000000000000000e+00  3.9618000000000007e+00 7.3396343122977878e+00 0.0000000000000000e+00  3.9618000000000011e+00 7.3396343122977870e+00 0.0000000000000000e+00  3.9618000000000007e+00 7.3396343122977870e+00 0.0000000000000000e+00  3.9618000000000011e+00 7.3396343122977861e+00 0.0000000000000000e+00  3.9618000000000007e+00 7.3396343122977878e+00 0.0000000000000000e+00  3.9618000000000007e+00 7.3396343122977878e+00 0.0000000000000000e+00  3.9618000000000011e+00 7.3396343122977870e+00 0.0000000000000000e+00  3.9618000000000007e+00 7.3396343122977870e+00 0.0000000000000000e+00  3.9618000000000007e+00 7.3396343122977861e+00 0.0000000000000000e+00  3.9618000000000011e+00 7.3396343122977870e+00 0.0000000000000000e+00  3.9618000000000011e+00 7.3396343122977887e+00 0.0000000000000000e+00  3.9618000000000007e+00 7.3396343122977878e+00 0.0000000000000000e+00  3.9618000000000007e+00 7.3396343122977887e+00 0.0000000000000000e+00  3.9618000000000007e+00 7.3396343122977878e+00 0.0000000000000000e+00  3.9618000000000007e+00 7.3396343122977870e+00 0.0000000000000000e+00  3.9618000000000007e+00 7.3396343122977878e+00 0.0000000000000000e+00  3.9618000000000007e+00 7.3396343122977878e+00 0.0000000000000000e+00  3.9618000000000007e+00 7.3396343122977887e+00 0.0000000000000000e+00  3.9618000000000007e+00 7.3396343122977878e+00 0.0000000000000000e+00  3.9618000000000007e+00 7.3396343122977870e+00 0.0000000000000000e+00  3.9618000000000007e+00 7.3396343122977878e+00 0.0000000000000000e+00  3.9618000000000007e+00 7.3396343122977878e+00 0.0000000000000000e+00  3.9618000000000007e+00 7.3396343122977887e+00 0.0000000000000000e+00  3.9618000000000007e+00 7.3396343122977878e+00 0.0000000000000000e+00  3.9618000000000007e+00 7.3396343122977870e+00 0.0000000000000000e+00  3.9618000000000007e+00 7.3396343122977878e+00 0.0000000000000000e+00  3.9618000000000007e+00 7.3396343122977878e+00 0.0000000000000000e+00  3.9618000000000007e+00 7.3396343122977887e+00 0.0000000000000000e+00  3.9618000000000007e+00 7.3396343122977878e+00 0.0000000000000000e+00  3.9618000000000007e+00 7.3396343122977870e+00 0.0000000000000000e+00  3.9618000000000011e+00 7.3396343122977878e+00 0.0000000000000000e+00  3.9618000000000002e+00 7.3396343122977878e+00 0.0000000000000000e+00  3.9618000000000020e+00 7.3396343122977878e+00 0.0000000000000000e+00  9.9999999999999978e-01 2.4037033579794606e-16 0.0000000000000000e+00  1.0000000000000002e+00 -6.4407037361457473e-17 0.0000000000000000e+00  1.0000000000000002e+00 1.7257813647883939e-17 0.0000000000000000e+00  9.9999999999999989e-01 -4.6242172300772424e-18 0.0000000000000000e+00  1.0000000000000004e+00 1.2390552724253204e-18 0.0000000000000000e+00  1.0000000000000000e+00 -3.3200385962396430e-19 0.0000000000000000e+00  1.0000000000000002e+00 8.8960166070557653e-20 0.0000000000000000e+00  1.0000000000000002e+00 -2.3836804658266435e-20 0.0000000000000000e+00  9.9999999999999989e-01 6.3870525625066564e-21 0.0000000000000000e+00  1.0000000000000004e+00 -1.7114055917605915e-21 0.0000000000000000e+00  1.0000000000000000e+00 4.5856980453560501e-22 0.0000000000000000e+00  1.0000000000000002e+00 -1.2287362638185721e-22 0.0000000000000000e+00  1.0000000000000002e+00 3.2924700991824103e-23 0.0000000000000000e+00  9.9999999999999989e-01 -8.8251775854372513e-24 0.0000000000000000e+00  1.0000000000000004e+00 2.3760093499254494e-24 0.0000000000000000e+00  1.0000000000000000e+00 -6.7885981426440347e-25 0.0000000000000000e+00  1.0000000000000002e+00 3.3942990713220159e-25 0.0000000000000000e+00  </DataArray> 
</PointData> 
</Piece>
</UnstructuredGrid>
</VTKFile>