<?xml version="1.0"?>
<VTKFile type="UnstructuredGrid"  version="0.1"  >
<UnstructuredGrid>
<Piece  NumberOfPoints="201" NumberOfCells="200">
<Points>
<DataArray  type="Float64"  NumberOfComponents="3"  format="ascii">-5 0 0  -4.95 0 0  -4.9 0 0  -4.85 0 0  -4.8 0 0  -4.75 0 0  -4.7 0 0  -4.65 0 0  -4.6 0 0  -4.55 0 0  -4.5 0 0  -4.45 0 0  -4.4 0 0  -4.35 0 0  -4.3 0 0  -4.25 0 0  -4.2 0 0  -4.15 0 0  -4.1 0 0  -4.05 0 0  -4 0 0  -3.95 0 0  -3.9 0 0  -3.85 0 0  -3.8 0 0  -3.75 0 0  -3.7 0 0  -3.65 0 0  -3.6 0 0  -3.55 0 0  -3.5 0 0  -3.45 0 0  -3.4 0 0  -3.35 0 0  -3.3 0 0  -3.25 0 0  -3.2 0 0  -3.15 0 0  -3.1 0 0  -3.05 0 0  -3 0 0  -2.95 0 0  -2.9 0 0  -2.85 0 0  -2.8 0 0  -2.75 0 0  -2.7 0 0  -2.65 0 0  -2.6 0 0  -2.55 0 0  -2.5 0 0  -2.45 0 0  -2.4 0 0  -2.35 0 0  -2.3 0 0  -2.25 0 0  -2.2 0 0  -2.15 0 0  -2.1 0 0  -2.05 0 0  -2 0 0  -1.95 0 0  -1.9 0 0  -1.85 0 0  -1.8 0 0  -1.75 0 0  -1.7 0 0  -1.65 0 0  -1.6 0 0  -1.55 0 0  -1.5 0 0  -1.45 0 0  -1.4 0 0  -1.35 0 0  -1.3 0 0  -1.25 0 0  -1.2 0 0  -1.15 0 0  -1.1 0 0  -1.05 0 0  -1 0 0  -0.9500000000000002 0 0  -0.9000000000000004 0 0  -0.8499999999999996 0 0  -0.7999999999999998 0 0  -0.75 0 0  -0.7000000000000002 0 0  -0.6500000000000004 0 0  -0.5999999999999996 0 0  -0.5499999999999998 0 0  -0.5 0 0  -0.4500000000000002 0 0  -0.4000000000000004 0 0  -0.3499999999999996 0 0  -0.2999999999999998 0 0  -0.25 0 0  -0.2000000000000002 0 0  -0.1500000000000004 0 0  -0.09999999999999964 0 0  -0.04999999999999982 0 0  0 0 0  0.04999999999999982 0 0  0.09999999999999964 0 0  0.1500000000000004 0 0  0.2000000000000002 0 0  0.25 0 0  0.2999999999999998 0 0  0.3499999999999996 0 0  0.4000000000000004 0 0  0.4500000000000002 0 0  0.5 0 0  0.5499999999999998 0 0  0.5999999999999996 0 0  0.6500000000000004 0 0  0.7000000000000002 0 0  0.75 0 0  0.7999999999999998 0 0  0.8499999999999996 0 0  0.9000000000000004 0 0  0.9500000000000002 0 0  1 0 0  1.05 0 0  1.1 0 0  1.15 0 0  1.2 0 0  1.25 0 0  1.3 0 0  1.35 0 0  1.4 0 0  1.45 0 0  1.5 0 0  1.55 0 0  1.6 0 0  1.65 0 0  1.7 0 0  1.75 0 0  1.8 0 0  1.85 0 0  1.9 0 0  1.95 0 0  2 0 0  2.05 0 0  2.1 0 0  2.15 0 0  2.2 0 0  2.25 0 0  2.3 0 0  2.35 0 0  2.4 0 0  2.45 0 0  2.5 0 0  2.55 0 0  2.6 0 0  2.65 0 0  2.7 0 0  2.75 0 0  2.8 0 0  2.85 0 0  2.9 0 0  2.95 0 0  3 0 0  3.050000000000001 0 0  3.1 0 0  3.15 0 0  3.199999999999999 0 0  3.25 0 0  3.300000000000001 0 0  3.35 0 0  3.4 0 0  3.449999999999999 0 0  3.5 0 0  3.550000000000001 0 0  3.6 0 0  3.65 0 0  3.699999999999999 0 0  3.75 0 0  3.800000000000001 0 0  3.85 0 0  3.9 0 0  3.949999999999999 0 0  4 0 0  4.050000000000001 0 0  4.1 0 0  4.15 0 0  4.199999999999999 0 0  4.25 0 0  4.300000000000001 0 0  4.35 0 0  4.4 0 0  4.449999999999999 0 0  4.5 0 0  4.550000000000001 0 0  4.6 0 0  4.65 0 0  4.699999999999999 0 0  4.75 0 0  4.800000000000001 0 0  4.85 0 0  4.9 0 0  4.949999999999999 0 0  5 0 0  </DataArray>
</Points>
<Cells>
<DataArray  type="UInt32"  Name="connectivity"  format="ascii">0 1  1 2  2 3  3 4  4 5  5 6  6 7  7 8  8 9  9 10  10 11  11 12  12 13  13 14  14 15  15 16  16 17  17 18  18 19  19 20  20 21  21 22  22 23  23 24  24 25  25 26  26 27  27 28  28 29  29 30  30 31  31 32  32 33  33 34  34 35  35 36  36 37  37 38  38 39  39 40  40 41  41 42  42 43  43 44  44 45  45 46  46 47  47 48  48 49  49 50  50 51  51 52  52 53  53 54  54 55  55 56  56 57  57 58  58 59  59 60  60 61  61 62  62 63  63 64  64 65  65 66  66 67  67 68  68 69  69 70  70 71  71 72  72 73  73 74  74 75  75 76  76 77  77 78  78 79  79 80  80 81  81 82  82 83  83 84  84 85  85 86  86 87  87 88  88 89  89 90  90 91  91 92  92 93  93 94  94 95  95 96  96 97  97 98  98 99  99 100  100 101  101 102  102 103  103 104  104 105  105 106  106 107  107 108  108 109  109 110  110 111  111 112  112 113  113 114  114 115  115 116  116 117  117 118  118 119  119 120  120 121  121 122  122 123  123 124  124 125  125 126  126 127  127 128  128 129  129 130  130 131  131 132  132 133  133 134  134 135  135 136  136 137  137 138  138 139  139 140  140 141  141 142  142 143  143 144  144 145  145 146  146 147  147 148  148 149  149 150  150 151  151 152  152 153  153 154  154 155  155 156  156 157  157 158  158 159  159 160  160 161  161 162  162 163  163 164  164 165  165 166  166 167  167 168  168 169  169 170  170 171  171 172  172 173  173 174  174 175  175 176  176 177  177 178  178 179  179 180  180 181  181 182  182 183  183 184  184 185  185 186  186 187  187 188  188 189  189 190  190 191  191 192  192 193  193 194  194 195  195 196  196 197  197 198  198 199  199 200  </DataArray>
<DataArray  type="UInt32"  Name="offsets"  format="ascii">2 4 6 8 10 12 14 16 18 20 22 24 26 28 30 32 34 36 38 40 42 44 46 48 50 52 54 56 58 60 62 64 66 68 70 72 74 76 78 80 82 84 86 88 90 92 94 96 98 100 102 104 106 108 110 112 114 116 118 120 122 124 126 128 130 132 134 136 138 140 142 144 146 148 150 152 154 156 158 160 162 164 166 168 170 172 174 176 178 180 182 184 186 188 190 192 194 196 198 200 202 204 206 208 210 212 214 216 218 220 222 224 226 228 230 232 234 236 238 240 242 244 246 248 250 252 254 256 258 260 262 264 266 268 270 272 274 276 278 280 282 284 286 288 290 292 294 296 298 300 302 304 306 308 310 312 314 316 318 320 322 324 326 328 330 332 334 336 338 340 342 344 346 348 350 352 354 356 358 360 362 364 366 368 370 372 374 376 378 380 382 384 386 388 390 392 394 396 398 400 </DataArray>
<DataArray  type="UInt8"  Name="types"  format="ascii">3 3 3 3 3 3 3 3 3 3 3 3 3 3 3 3 3 3 3 3 3 3 3 3 3 3 3 3 3 3 3 3 3 3 3 3 3 3 3 3 3 3 3 3 3 3 3 3 3 3 3 3 3 3 3 3 3 3 3 3 3 3 3 3 3 3 3 3 3 3 3 3 3 3 3 3 3 3 3 3 3 3 3 3 3 3 3 3 3 3 3 3 3 3 3 3 3 3 3 3 3 3 3 3 3 3 3 3 3 3 3 3 3 3 3 3 3 3 3 3 3 3 3 3 3 3 3 3 3 3 3 3 3 3 3 3 3 3 3 3 3 3 3 3 3 3 3 3 3 3 3 3 3 3 3 3 3 3 3 3 3 3 3 3 3 3 3 3 3 3 3 3 3 3 3 3 3 3 3 3 3 3 3 3 3 3 3 3 3 3 3 3 3 3 3 3 3 3 3 3 </DataArray>
</Cells>
<PointData  Vectors="f_5"> 
<DataArray  type="Float64"  Name="f_5"  NumberOfComponents="3" format="ascii">1.0000000000000002e+01 -8.5503595313071373e-58 0.0000000000000000e+00  1.0000000000000002e+01 1.7100719062614277e-57 0.0000000000000000e+00  1.0000000000000002e+01 -5.9852516719150005e-57 0.0000000000000000e+00  1.0000000000000002e+01 2.2230934781398400e-56 0.0000000000000000e+00  1.0000000000000002e+01 -8.2938487453679319e-56 0.0000000000000000e+00  1.0000000000000004e+01 3.0952301503331898e-55 0.0000000000000000e+00  1.0000000000000002e+01 -1.1551535726795972e-54 0.0000000000000000e+00  1.0000000000000004e+01 4.3110912756850719e-54 0.0000000000000000e+00  1.0000000000000002e+01 -1.6089211530060566e-53 0.0000000000000000e+00  1.0000000000000002e+01 6.0045754844557719e-53 0.0000000000000000e+00  1.0000000000000004e+01 -2.2409380784817035e-52 0.0000000000000000e+00  1.0000000000000000e+01 8.3632947654812404e-52 0.0000000000000000e+00  1.0000000000000002e+01 -3.1212240983443270e-51 0.0000000000000000e+00  1.0000000000000002e+01 1.1648566916829092e-50 0.0000000000000000e+00  1.0000000000000004e+01 -4.3473043568972422e-50 0.0000000000000000e+00  1.0000000000000002e+01 1.6224360735906067e-49 0.0000000000000000e+00  1.0000000000000002e+01 -6.0550138586727045e-49 0.0000000000000000e+00  1.0000000000000004e+01 2.2597619361100222e-48 0.0000000000000000e+00  1.0000000000000002e+01 -8.4335463585727523e-48 0.0000000000000000e+00  9.9999999999999982e+00 3.1474423498181260e-47 0.0000000000000000e+00  1.0000000000000002e+01 -1.1746414763415232e-46 0.0000000000000000e+00  1.0000000000000004e+01 4.3838216703842817e-46 0.0000000000000000e+00  1.0000000000000002e+01 -1.6360645205195541e-45 0.0000000000000000e+00  1.0000000000000002e+01 6.1058759150398156e-45 0.0000000000000000e+00  1.0000000000000004e+01 -2.2787439139639623e-44 0.0000000000000000e+00  1.0000000000000004e+01 8.5043880643519042e-44 0.0000000000000000e+00  1.0000000000000002e+01 -3.1738808343443670e-43 0.0000000000000000e+00  1.0000000000000004e+01 1.1845084530942233e-42 0.0000000000000000e+00  1.0000000000000002e+01 -4.4206457289424762e-42 0.0000000000000000e+00  1.0000000000000004e+01 1.6498074462675619e-41 0.0000000000000000e+00  1.0000000000000004e+01 -6.1571652121760271e-41 0.0000000000000000e+00  1.0000000000000002e+01 2.2978853402436557e-40 0.0000000000000000e+00  1.0000000000000004e+01 -8.5758248397569864e-40 0.0000000000000000e+00  1.0000000000000002e+01 3.2005414018784439e-39 0.0000000000000000e+00  1.0000000000000004e+01 -1.1944583123538032e-38 0.0000000000000000e+00  1.0000000000000004e+01 4.4577791092273876e-38 0.0000000000000000e+00  1.0000000000000002e+01 -1.6636658124555755e-37 0.0000000000000000e+00  1.0000000000000004e+01 6.2088853388995394e-37 0.0000000000000000e+00  1.0000000000000002e+01 -2.3171875543142684e-36 0.0000000000000000e+00  1.0000000000000004e+01 8.6478616833670869e-36 0.0000000000000000e+00  1.0000000000000004e+01 -3.2274259179154218e-35 0.0000000000000000e+00  1.0000000000000002e+01 1.2044917503324984e-34 0.0000000000000000e+00  1.0000000000000004e+01 -4.4952244095384348e-34 0.0000000000000000e+00  1.0000000000000002e+01 1.6776405887821317e-33 0.0000000000000000e+00  1.0000000000000004e+01 -6.2610399141746590e-33 0.0000000000000000e+00  1.0000000000000004e+01 2.3366519067916609e-32 0.0000000000000000e+00  1.0000000000000002e+01 -8.7205036357491811e-32 0.0000000000000000e+00  1.0000000000000004e+01 3.2545362636204940e-31 0.0000000000000000e+00  1.0000000000000002e+01 -1.2146094690907112e-30 0.0000000000000000e+00  1.0000000000000004e+01 4.5329842500007784e-30 0.0000000000000000e+00  1.0000000000000004e+01 -1.6917327530912476e-29 0.0000000000000000e+00  1.0000000000000002e+01 6.3136325873649149e-29 0.0000000000000000e+00  1.0000000000000004e+01 -2.3562797596368328e-28 0.0000000000000000e+00  1.0000000000000002e+01 8.7937557798108783e-28 0.0000000000000000e+00  1.0000000000000004e+01 -3.2818743359606558e-27 0.0000000000000000e+00  1.0000000000000004e+01 1.2248121765861589e-26 0.0000000000000000e+00  1.0000000000000002e+01 -4.5710612727485724e-26 0.0000000000000000e+00  1.0000000000000004e+01 1.7059432914408065e-25 0.0000000000000000e+00  1.0000000000000002e+01 -6.3666670384883972e-25 0.0000000000000000e+00  1.0000000000000004e+01 2.3760724862512695e-24 0.0000000000000000e+00  1.0000000000000004e+01 -8.8676232411562775e-24 0.0000000000000000e+00  1.0000000000000002e+01 3.3094420478373855e-23 0.0000000000000000e+00  1.0000000000000004e+01 -1.2351005867233867e-22 0.0000000000000000e+00  1.0000000000000002e+01 4.6094581421098281e-22 0.0000000000000000e+00  1.0000000000000004e+01 -1.7202731981715863e-21 0.0000000000000000e+00  1.0000000000000004e+01 6.4201469784753907e-21 0.0000000000000000e+00  1.0000000000000002e+01 -2.3960314715729983e-20 0.0000000000000000e+00  1.0000000000000004e+01 8.9421111884444208e-20 0.0000000000000000e+00  1.0000000000000004e+01 -3.3372413282204836e-19 0.0000000000000000e+00  1.0000000000000002e+01 1.2454754194037444e-18 0.0000000000000000e+00  1.0000000000000004e+01 -4.6481775447929496e-18 0.0000000000000000e+00  9.9999999999999982e+00 1.7347234759768062e-17 0.0000000000000000e+00  9.8339547546429387e+00 1.6512047362217783e-01 0.0000000000000000e+00  9.6050971111157502e+00 3.9500553109344116e-01 0.0000000000000000e+00  9.3789339218440055e+00 6.2489058856470703e-01 0.0000000000000000e+00  9.1554651868277261e+00 8.5477564603597023e-01 0.0000000000000000e+00  8.9346909060669049e+00 1.0846607035072335e+00 0.0000000000000000e+00  8.7166110795615417e+00 1.3145457609784996e+00 0.0000000000000000e+00  8.5012257073116331e+00 1.5444308184497633e+00 0.0000000000000000e+00  8.2885347893171790e+00 1.7743158759210289e+00 0.0000000000000000e+00  8.0785383255781902e+00 2.0042009333922928e+00 0.0000000000000000e+00  7.8712363160946550e+00 2.2340859908635551e+00 0.0000000000000000e+00  7.6666287608665806e+00 2.4639710483348205e+00 0.0000000000000000e+00  7.4647156598939581e+00 2.6938561058060873e+00 0.0000000000000000e+00  7.2654970131767964e+00 2.9237411632773518e+00 0.0000000000000000e+00  7.0689728207150946e+00 3.1536262207486137e+00 0.0000000000000000e+00  6.8751430825088464e+00 3.3835112782198777e+00 0.0000000000000000e+00  6.6840077985580590e+00 3.6133963356911414e+00 0.0000000000000000e+00  6.4955669688627271e+00 3.8432813931624108e+00 0.0000000000000000e+00  6.3098205934228506e+00 4.0731664506336722e+00 0.0000000000000000e+00  6.1267686722384385e+00 4.3030515081049376e+00 0.0000000000000000e+00  5.9464112053094791e+00 4.5329365655761986e+00 0.0000000000000000e+00  5.7687481926359778e+00 4.7628216230474631e+00 0.0000000000000000e+00  5.5937796342179356e+00 4.9927066805187321e+00 0.0000000000000000e+00  5.4215055300553479e+00 5.2225917379899949e+00 0.0000000000000000e+00  5.2519258801482218e+00 5.4524767954612594e+00 0.0000000000000000e+00  5.0850406844965503e+00 5.6823618529325204e+00 0.0000000000000000e+00  4.9208499431003396e+00 5.9122469104037876e+00 0.0000000000000000e+00  4.7593536559595808e+00 6.1421319678750521e+00 0.0000000000000000e+00  4.6005518230742837e+00 6.3720170253463193e+00 0.0000000000000000e+00  4.4444444444444438e+00 6.6019020828175803e+00 0.0000000000000000e+00  4.2910315200700619e+00 6.8317871402888439e+00 0.0000000000000000e+00  4.1403130499511382e+00 7.0616721977601049e+00 0.0000000000000000e+00  3.9922890340876678e+00 7.2915572552313801e+00 0.0000000000000000e+00  3.9617999999999993e+00 7.3396343122977843e+00 0.0000000000000000e+00  3.9618000000000015e+00 7.3396343122977896e+00 0.0000000000000000e+00  3.9618000000000007e+00 7.3396343122977878e+00 0.0000000000000000e+00  3.9618000000000011e+00 7.3396343122977870e+00 0.0000000000000000e+00  3.9618000000000007e+00 7.3396343122977870e+00 0.0000000000000000e+00  3.9618000000000011e+00 7.3396343122977861e+00 0.0000000000000000e+00  3.9618000000000007e+00 7.3396343122977878e+00 0.0000000000000000e+00  3.9618000000000007e+00 7.3396343122977878e+00 0.0000000000000000e+00  3.9618000000000011e+00 7.3396343122977870e+00 0.0000000000000000e+00  3.9618000000000007e+00 7.3396343122977870e+00 0.0000000000000000e+00  3.9618000000000011e+00 7.3396343122977861e+00 0.0000000000000000e+00  3.9618000000000007e+00 7.3396343122977878e+00 0.0000000000000000e+00  3.9618000000000007e+00 7.3396343122977878e+00 0.0000000000000000e+00  3.9618000000000011e+00 7.3396343122977870e+00 0.0000000000000000e+00  3.9618000000000007e+00 7.3396343122977870e+00 0.0000000000000000e+00  3.9618000000000011e+00 7.3396343122977861e+00 0.0000000000000000e+00  3.9618000000000007e+00 7.3396343122977878e+00 0.0000000000000000e+00  3.9618000000000007e+00 7.3396343122977878e+00 0.0000000000000000e+00  3.9618000000000011e+00 7.3396343122977870e+00 0.0000000000000000e+00  3.9618000000000007e+00 7.3396343122977870e+00 0.0000000000000000e+00  3.9618000000000011e+00 7.3396343122977861e+00 0.0000000000000000e+00  3.9618000000000007e+00 7.3396343122977878e+00 0.0000000000000000e+00  3.9618000000000007e+00 7.3396343122977878e+00 0.0000000000000000e+00  3.9618000000000007e+00 7.3396343122977870e+00 0.0000000000000000e+00  3.9618000000000015e+00 7.3396343122977870e+00 0.0000000000000000e+00  9.9999999999999989e-01 2.4037033579794615e-16 0.0000000000000000e+00  1.0000000000000002e+00 -6.4407037361457424e-17 0.0000000000000000e+00  1.0000000000000000e+00 1.7257813647883649e-17 0.0000000000000000e+00  1.0000000000000000e+00 -4.6242172300771946e-18 0.0000000000000000e+00  1.0000000000000002e+00 1.2390552724252770e-18 0.0000000000000000e+00  1.0000000000000002e+00 -3.3200385962387764e-19 0.0000000000000000e+00  1.0000000000000000e+00 8.8960166070233796e-20 0.0000000000000000e+00  1.0000000000000000e+00 -2.3836804657057682e-20 0.0000000000000000e+00  1.0000000000000000e+00 6.3870525579969808e-21 0.0000000000000000e+00  1.0000000000000002e+00 -1.7114055749304404e-21 0.0000000000000000e+00  1.0000000000000002e+00 4.5856974172473264e-22 0.0000000000000000e+00  1.0000000000000000e+00 -1.2287339196849057e-22 0.0000000000000000e+00  1.0000000000000000e+00 3.2923826149229808e-23 0.0000000000000000e+00  1.0000000000000000e+00 -8.8219126284287366e-24 0.0000000000000000e+00  1.0000000000000002e+00 2.3638243644854215e-24 0.0000000000000000e+00  1.0000000000000002e+00 -6.3338482951288043e-25 0.0000000000000000e+00  1.0000000000000000e+00 1.6971495356610057e-25 0.0000000000000000e+00  1.0000000000000000e+00 -4.5474984751522084e-26 0.0000000000000000e+00  1.0000000000000000e+00 1.2184985439987867e-26 0.0000000000000000e+00  1.0000000000000002e+00 -3.2649570084297623e-27 0.0000000000000000e+00  1.0000000000000002e+00 8.7484259373108902e-28 0.0000000000000000e+00  1.0000000000000000e+00 -2.3441336649459394e-28 0.0000000000000000e+00  1.0000000000000000e+00 6.2810872247287193e-29 0.0000000000000000e+00  1.0000000000000000e+00 -1.6830122494554887e-29 0.0000000000000000e+00  1.0000000000000002e+00 4.5096177309328897e-30 0.0000000000000000e+00  1.0000000000000002e+00 -1.2083484291765395e-30 0.0000000000000000e+00  1.0000000000000000e+00 3.2377598577326931e-31 0.0000000000000000e+00  1.0000000000000000e+00 -8.6755513916538101e-32 0.0000000000000000e+00  1.0000000000000000e+00 2.3246069892883225e-32 0.0000000000000000e+00  1.0000000000000002e+00 -6.2287656549955430e-33 0.0000000000000000e+00  1.0000000000000002e+00 1.6689927270987675e-33 0.0000000000000000e+00  9.9999999999999989e-01 -4.4720525339952868e-34 0.0000000000000000e+00  1.0000000000000004e+00 1.1982828649936108e-34 0.0000000000000000e+00  9.9999999999999989e-01 -3.2107892597908503e-35 0.0000000000000000e+00  1.0000000000000004e+00 8.6032838922749360e-36 0.0000000000000000e+00  1.0000000000000000e+00 -2.3052429711907165e-36 0.0000000000000000e+00  1.0000000000000002e+00 6.1768799248807467e-37 0.0000000000000000e+00  1.0000000000000002e+00 -1.6550899876158344e-37 0.0000000000000000e+00  9.9999999999999989e-01 4.4348002558249282e-38 0.0000000000000000e+00  1.0000000000000004e+00 -1.1883011471416435e-38 0.0000000000000000e+00  1.0000000000000000e+00 3.1840433274157479e-39 0.0000000000000000e+00  1.0000000000000002e+00 -8.5316183824675498e-40 0.0000000000000000e+00  1.0000000000000002e+00 2.2860402557127353e-40 0.0000000000000000e+00  9.9999999999999989e-01 -6.1254264038325515e-41 0.0000000000000000e+00  1.0000000000000004e+00 1.6413030582032328e-41 0.0000000000000000e+00  1.0000000000000000e+00 -4.3978582898028083e-42 0.0000000000000000e+00  1.0000000000000002e+00 1.1784025771791813e-42 0.0000000000000000e+00  1.0000000000000002e+00 -3.1575201891392007e-43 0.0000000000000000e+00  9.9999999999999989e-01 8.4605498476480144e-44 0.0000000000000000e+00  1.0000000000000004e+00 -2.2669974992005773e-44 0.0000000000000000e+00  1.0000000000000000e+00 6.0744014915415937e-45 0.0000000000000000e+00  1.0000000000000002e+00 -1.6276309741609782e-45 0.0000000000000000e+00  1.0000000000000002e+00 4.3612240510232206e-46 0.0000000000000000e+00  9.9999999999999989e-01 -1.1685864624828433e-46 0.0000000000000000e+00  1.0000000000000004e+00 3.1312179890822495e-47 0.0000000000000000e+00  1.0000000000000000e+00 -8.3900733150037881e-48 0.0000000000000000e+00  1.0000000000000002e+00 2.2481133691931784e-48 0.0000000000000000e+00  1.0000000000000002e+00 -6.0238016176893158e-49 0.0000000000000000e+00  9.9999999999999989e-01 1.6140727788251195e-49 0.0000000000000000e+00  1.0000000000000004e+00 -4.3248949761126285e-50 0.0000000000000000e+00  1.0000000000000000e+00 1.1588521161990602e-50 0.0000000000000000e+00  1.0000000000000002e+00 -3.1051348868368491e-51 0.0000000000000000e+00  1.0000000000000002e+00 8.3201838535680086e-52 0.0000000000000000e+00  9.9999999999999989e-01 -2.2293865459030385e-52 0.0000000000000000e+00  1.0000000000000004e+00 5.9736233004428382e-53 0.0000000000000000e+00  1.0000000000000000e+00 -1.6006277427406061e-53 0.0000000000000000e+00  1.0000000000000002e+00 4.2888767051968898e-54 0.0000000000000000e+00  1.0000000000000002e+00 -1.1492293933815042e-54 0.0000000000000000e+00  9.9999999999999989e-01 3.0804086832905820e-55 0.0000000000000000e+00  1.0000000000000004e+00 -8.2934079934747658e-56 0.0000000000000000e+00  1.0000000000000000e+00 2.3695451409927532e-56 0.0000000000000000e+00  1.0000000000000002e+00 -1.1847725704963759e-56 0.0000000000000000e+00  </DataArray> 
</PointData> 
</Piece>
</UnstructuredGrid>
</VTKFile>