<?xml version="1.0"?>
<VTKFile type="UnstructuredGrid"  version="0.1"  >
<UnstructuredGrid>
<Piece  NumberOfPoints="201" NumberOfCells="200">
<Points>
<DataArray  type="Float64"  NumberOfComponents="3"  format="ascii">-5 0 0  -4.95 0 0  -4.9 0 0  -4.85 0 0  -4.8 0 0  -4.75 0 0  -4.7 0 0  -4.65 0 0  -4.6 0 0  -4.55 0 0  -4.5 0 0  -4.45 0 0  -4.4 0 0  -4.35 0 0  -4.3 0 0  -4.25 0 0  -4.2 0 0  -4.15 0 0  -4.1 0 0  -4.05 0 0  -4 0 0  -3.95 0 0  -3.9 0 0  -3.85 0 0  -3.8 0 0  -3.75 0 0  -3.7 0 0  -3.65 0 0  -3.6 0 0  -3.55 0 0  -3.5 0 0  -3.45 0 0  -3.4 0 0  -3.35 0 0  -3.3 0 0  -3.25 0 0  -3.2 0 0  -3.15 0 0  -3.1 0 0  -3.05 0 0  -3 0 0  -2.95 0 0  -2.9 0 0  -2.85 0 0  -2.8 0 0  -2.75 0 0  -2.7 0 0  -2.65 0 0  -2.6 0 0  -2.55 0 0  -2.5 0 0  -2.45 0 0  -2.4 0 0  -2.35 0 0  -2.3 0 0  -2.25 0 0  -2.2 0 0  -2.15 0 0  -2.1 0 0  -2.05 0 0  -2 0 0  -1.95 0 0  -1.9 0 0  -1.85 0 0  -1.8 0 0  -1.75 0 0  -1.7 0 0  -1.65 0 0  -1.6 0 0  -1.55 0 0  -1.5 0 0  -1.45 0 0  -1.4 0 0  -1.35 0 0  -1.3 0 0  -1.25 0 0  -1.2 0 0  -1.15 0 0  -1.1 0 0  -1.05 0 0  -1 0 0  -0.9500000000000002 0 0  -0.9000000000000004 0 0  -0.8499999999999996 0 0  -0.7999999999999998 0 0  -0.75 0 0  -0.7000000000000002 0 0  -0.6500000000000004 0 0  -0.5999999999999996 0 0  -0.5499999999999998 0 0  -0.5 0 0  -0.4500000000000002 0 0  -0.4000000000000004 0 0  -0.3499999999999996 0 0  -0.2999999999999998 0 0  -0.25 0 0  -0.2000000000000002 0 0  -0.1500000000000004 0 0  -0.09999999999999964 0 0  -0.04999999999999982 0 0  0 0 0  0.04999999999999982 0 0  0.09999999999999964 0 0  0.1500000000000004 0 0  0.2000000000000002 0 0  0.25 0 0  0.2999999999999998 0 0  0.3499999999999996 0 0  0.4000000000000004 0 0  0.4500000000000002 0 0  0.5 0 0  0.5499999999999998 0 0  0.5999999999999996 0 0  0.6500000000000004 0 0  0.7000000000000002 0 0  0.75 0 0  0.7999999999999998 0 0  0.8499999999999996 0 0  0.9000000000000004 0 0  0.9500000000000002 0 0  1 0 0  1.05 0 0  1.1 0 0  1.15 0 0  1.2 0 0  1.25 0 0  1.3 0 0  1.35 0 0  1.4 0 0  1.45 0 0  1.5 0 0  1.55 0 0  1.6 0 0  1.65 0 0  1.7 0 0  1.75 0 0  1.8 0 0  1.85 0 0  1.9 0 0  1.95 0 0  2 0 0  2.05 0 0  2.1 0 0  2.15 0 0  2.2 0 0  2.25 0 0  2.3 0 0  2.35 0 0  2.4 0 0  2.45 0 0  2.5 0 0  2.55 0 0  2.6 0 0  2.65 0 0  2.7 0 0  2.75 0 0  2.8 0 0  2.85 0 0  2.9 0 0  2.95 0 0  3 0 0  3.050000000000001 0 0  3.1 0 0  3.15 0 0  3.199999999999999 0 0  3.25 0 0  3.300000000000001 0 0  3.35 0 0  3.4 0 0  3.449999999999999 0 0  3.5 0 0  3.550000000000001 0 0  3.6 0 0  3.65 0 0  3.699999999999999 0 0  3.75 0 0  3.800000000000001 0 0  3.85 0 0  3.9 0 0  3.949999999999999 0 0  4 0 0  4.050000000000001 0 0  4.1 0 0  4.15 0 0  4.199999999999999 0 0  4.25 0 0  4.300000000000001 0 0  4.35 0 0  4.4 0 0  4.449999999999999 0 0  4.5 0 0  4.550000000000001 0 0  4.6 0 0  4.65 0 0  4.699999999999999 0 0  4.75 0 0  4.800000000000001 0 0  4.85 0 0  4.9 0 0  4.949999999999999 0 0  5 0 0  </DataArray>
</Points>
<Cells>
<DataArray  type="UInt32"  Name="connectivity"  format="ascii">0 1  1 2  2 3  3 4  4 5  5 6  6 7  7 8  8 9  9 10  10 11  11 12  12 13  13 14  14 15  15 16  16 17  17 18  18 19  19 20  20 21  21 22  22 23  23 24  24 25  25 26  26 27  27 28  28 29  29 30  30 31  31 32  32 33  33 34  34 35  35 36  36 37  37 38  38 39  39 40  40 41  41 42  42 43  43 44  44 45  45 46  46 47  47 48  48 49  49 50  50 51  51 52  52 53  53 54  54 55  55 56  56 57  57 58  58 59  59 60  60 61  61 62  62 63  63 64  64 65  65 66  66 67  67 68  68 69  69 70  70 71  71 72  72 73  73 74  74 75  75 76  76 77  77 78  78 79  79 80  80 81  81 82  82 83  83 84  84 85  85 86  86 87  87 88  88 89  89 90  90 91  91 92  92 93  93 94  94 95  95 96  96 97  97 98  98 99  99 100  100 101  101 102  102 103  103 104  104 105  105 106  106 107  107 108  108 109  109 110  110 111  111 112  112 113  113 114  114 115  115 116  116 117  117 118  118 119  119 120  120 121  121 122  122 123  123 124  124 125  125 126  126 127  127 128  128 129  129 130  130 131  131 132  132 133  133 134  134 135  135 136  136 137  137 138  138 139  139 140  140 141  141 142  142 143  143 144  144 145  145 146  146 147  147 148  148 149  149 150  150 151  151 152  152 153  153 154  154 155  155 156  156 157  157 158  158 159  159 160  160 161  161 162  162 163  163 164  164 165  165 166  166 167  167 168  168 169  169 170  170 171  171 172  172 173  173 174  174 175  175 176  176 177  177 178  178 179  179 180  180 181  181 182  182 183  183 184  184 185  185 186  186 187  187 188  188 189  189 190  190 191  191 192  192 193  193 194  194 195  195 196  196 197  197 198  198 199  199 200  </DataArray>
<DataArray  type="UInt32"  Name="offsets"  format="ascii">2 4 6 8 10 12 14 16 18 20 22 24 26 28 30 32 34 36 38 40 42 44 46 48 50 52 54 56 58 60 62 64 66 68 70 72 74 76 78 80 82 84 86 88 90 92 94 96 98 100 102 104 106 108 110 112 114 116 118 120 122 124 126 128 130 132 134 136 138 140 142 144 146 148 150 152 154 156 158 160 162 164 166 168 170 172 174 176 178 180 182 184 186 188 190 192 194 196 198 200 202 204 206 208 210 212 214 216 218 220 222 224 226 228 230 232 234 236 238 240 242 244 246 248 250 252 254 256 258 260 262 264 266 268 270 272 274 276 278 280 282 284 286 288 290 292 294 296 298 300 302 304 306 308 310 312 314 316 318 320 322 324 326 328 330 332 334 336 338 340 342 344 346 348 350 352 354 356 358 360 362 364 366 368 370 372 374 376 378 380 382 384 386 388 390 392 394 396 398 400 </DataArray>
<DataArray  type="UInt8"  Name="types"  format="ascii">3 3 3 3 3 3 3 3 3 3 3 3 3 3 3 3 3 3 3 3 3 3 3 3 3 3 3 3 3 3 3 3 3 3 3 3 3 3 3 3 3 3 3 3 3 3 3 3 3 3 3 3 3 3 3 3 3 3 3 3 3 3 3 3 3 3 3 3 3 3 3 3 3 3 3 3 3 3 3 3 3 3 3 3 3 3 3 3 3 3 3 3 3 3 3 3 3 3 3 3 3 3 3 3 3 3 3 3 3 3 3 3 3 3 3 3 3 3 3 3 3 3 3 3 3 3 3 3 3 3 3 3 3 3 3 3 3 3 3 3 3 3 3 3 3 3 3 3 3 3 3 3 3 3 3 3 3 3 3 3 3 3 3 3 3 3 3 3 3 3 3 3 3 3 3 3 3 3 3 3 3 3 3 3 3 3 3 3 3 3 3 3 3 3 3 3 3 3 3 3 </DataArray>
</Cells>
<PointData  Vectors="f_5"> 
<DataArray  type="Float64"  Name="f_5"  NumberOfComponents="3" format="ascii">1.0000000000000002e+01 -2.2597619361100291e-48 0.0000000000000000e+00  1.0000000000000002e+01 4.5195238722200601e-48 0.0000000000000000e+00  1.0000000000000002e+01 -1.5818333552770217e-47 0.0000000000000000e+00  1.0000000000000002e+01 5.8753810338860348e-47 0.0000000000000000e+00  1.0000000000000002e+01 -2.1919690780267308e-46 0.0000000000000000e+00  1.0000000000000004e+01 8.1803382087183238e-46 0.0000000000000000e+00  1.0000000000000002e+01 -3.0529383756846575e-45 0.0000000000000000e+00  1.0000000000000004e+01 1.1393719681866805e-44 0.0000000000000000e+00  1.0000000000000002e+01 -4.2521940351782224e-44 0.0000000000000000e+00  1.0000000000000002e+01 1.5869404172526347e-43 0.0000000000000000e+00  1.0000000000000004e+01 -5.9225422654927182e-43 0.0000000000000000e+00  1.0000000000000000e+01 2.2103228644718247e-42 0.0000000000000000e+00  1.0000000000000002e+01 -8.2490372313380286e-42 0.0000000000000000e+00  1.0000000000000002e+01 3.0785826060880054e-41 0.0000000000000000e+00  1.0000000000000004e+01 -1.1489426701218317e-40 0.0000000000000000e+00  1.0000000000000002e+01 4.2879124198785283e-40 0.0000000000000000e+00  1.0000000000000002e+01 -1.6002707009392288e-39 0.0000000000000000e+00  1.0000000000000004e+01 5.9722915617690641e-39 0.0000000000000000e+00  1.0000000000000002e+01 -2.2288895546136857e-38 0.0000000000000000e+00  9.9999999999999982e+00 8.3183290622779086e-38 0.0000000000000000e+00  1.0000000000000002e+01 -3.1044426694497956e-37 0.0000000000000000e+00  1.0000000000000004e+01 1.1585937771571397e-36 0.0000000000000000e+00  1.0000000000000002e+01 -4.3239308416835621e-36 0.0000000000000000e+00  1.0000000000000002e+01 1.6137129589577181e-35 0.0000000000000000e+00  1.0000000000000004e+01 -6.0224587516624931e-35 0.0000000000000000e+00  1.0000000000000004e+01 2.2476122047692354e-34 0.0000000000000000e+00  1.0000000000000002e+01 -8.3882029439106962e-34 0.0000000000000000e+00  1.0000000000000004e+01 3.1305199570873432e-33 0.0000000000000000e+00  1.0000000000000002e+01 -1.1683259533958355e-32 0.0000000000000000e+00  1.0000000000000004e+01 4.3602518178745916e-32 0.0000000000000000e+00  1.0000000000000004e+01 -1.6272681318102601e-31 0.0000000000000000e+00  1.0000000000000002e+01 6.0730473454535842e-31 0.0000000000000000e+00  1.0000000000000004e+01 -2.2664921250003990e-30 0.0000000000000000e+00  1.0000000000000002e+01 8.4586637654562756e-30 0.0000000000000000e+00  1.0000000000000004e+01 -3.1568162936824585e-29 0.0000000000000000e+00  1.0000000000000004e+01 1.1781398798184258e-28 0.0000000000000000e+00  1.0000000000000002e+01 -4.3968778899054589e-28 0.0000000000000000e+00  1.0000000000000004e+01 1.6409371679803347e-27 0.0000000000000000e+00  1.0000000000000002e+01 -6.1240608829308205e-27 0.0000000000000000e+00  1.0000000000000004e+01 2.2855306363742862e-26 0.0000000000000000e+00  1.0000000000000004e+01 -8.5297164572040992e-26 0.0000000000000000e+00  1.0000000000000002e+01 3.1833335192442124e-25 0.0000000000000000e+00  1.0000000000000004e+01 -1.1880362431256395e-24 0.0000000000000000e+00  1.0000000000000002e+01 4.4338116205781564e-24 0.0000000000000000e+00  1.0000000000000004e+01 -1.6547210239186922e-23 0.0000000000000000e+00  1.0000000000000004e+01 6.1755029336169804e-23 0.0000000000000000e+00  1.0000000000000002e+01 -2.3047290710549239e-22 0.0000000000000000e+00  1.0000000000000004e+01 8.6013659908579651e-22 0.0000000000000000e+00  1.0000000000000002e+01 -3.2100734892377078e-21 0.0000000000000000e+00  1.0000000000000004e+01 1.1980157357864990e-20 0.0000000000000000e+00  1.0000000000000004e+01 -4.4710555942222447e-20 0.0000000000000000e+00  1.0000000000000002e+01 1.6686206641102488e-19 0.0000000000000000e+00  1.0000000000000004e+01 -6.2273770970187471e-19 0.0000000000000000e+00  1.0000000000000002e+01 2.3240887723964848e-18 0.0000000000000000e+00  1.0000000000000004e+01 -8.6736173798840308e-18 0.0000000000000000e+00  9.9192144699038423e+00 8.0162952382797484e-02 0.0000000000000000e+00  9.7739929928777549e+00 2.2509048861468153e-01 0.0000000000000000e+00  9.6298424213473464e+00 3.7001802484656565e-01 0.0000000000000000e+00  9.4867627553126095e+00 5.1494556107844969e-01 0.0000000000000000e+00  9.3447539947735372e+00 6.5987309731033417e-01 0.0000000000000000e+00  9.2038161397301419e+00 8.0480063354221787e-01 0.0000000000000000e+00  9.0639491901824112e+00 9.4972816977410091e-01 0.0000000000000000e+00  8.9251531461303557e+00 1.0946557060059863e+00 0.0000000000000000e+00  8.7874280075739701e+00 1.2395832422378701e+00 0.0000000000000000e+00  8.6507737745132580e+00 1.3845107784697539e+00 0.0000000000000000e+00  8.5151904469482176e+00 1.5294383147016382e+00 0.0000000000000000e+00  8.3806780248788417e+00 1.6743658509335215e+00 0.0000000000000000e+00  8.2472365083051429e+00 1.8192933871654069e+00 0.0000000000000000e+00  8.1148658972271122e+00 1.9642209233972912e+00 0.0000000000000000e+00  7.9835661916447496e+00 2.1091484596291754e+00 0.0000000000000000e+00  7.8533373915580684e+00 2.2540759958610588e+00 0.0000000000000000e+00  7.7241794969670474e+00 2.3990035320929417e+00 0.0000000000000000e+00  7.5960925078717016e+00 2.5439310683248264e+00 0.0000000000000000e+00  7.4690764242720302e+00 2.6888586045567111e+00 0.0000000000000000e+00  7.3431312461680225e+00 2.8337861407885945e+00 0.0000000000000000e+00  7.2182569735596918e+00 2.9787136770204796e+00 0.0000000000000000e+00  7.0944536064470283e+00 3.1236412132523612e+00 0.0000000000000000e+00  6.9717211448300374e+00 3.2685687494842490e+00 0.0000000000000000e+00  6.8500595887087199e+00 3.4134962857161297e+00 0.0000000000000000e+00  6.7294689380830697e+00 3.5584238219480167e+00 0.0000000000000000e+00  6.6099491929530894e+00 3.7033513581798991e+00 0.0000000000000000e+00  6.4915003533187825e+00 3.8482788944117829e+00 0.0000000000000000e+00  6.3741224191801500e+00 3.9932064306436668e+00 0.0000000000000000e+00  6.2578153905371812e+00 4.1381339668755519e+00 0.0000000000000000e+00  6.1425792673898902e+00 4.2830615031074366e+00 0.0000000000000000e+00  6.0284140497382657e+00 4.4279890393393195e+00 0.0000000000000000e+00  5.9153197375823154e+00 4.5729165755712016e+00 0.0000000000000000e+00  5.8032963309220369e+00 4.7178441118030880e+00 0.0000000000000000e+00  5.6923438297574229e+00 4.8627716480349719e+00 0.0000000000000000e+00  5.5824622340884851e+00 5.0076991842668583e+00 0.0000000000000000e+00  5.4736515439152162e+00 5.1526267204987404e+00 0.0000000000000000e+00  5.3659117592376209e+00 5.2975542567306224e+00 0.0000000000000000e+00  5.2592428800556954e+00 5.4424817929625080e+00 0.0000000000000000e+00  5.1536449063694398e+00 5.5874093291943909e+00 0.0000000000000000e+00  5.0491178381788560e+00 5.7323368654262774e+00 0.0000000000000000e+00  4.9456616754839429e+00 5.8772644016581594e+00 0.0000000000000000e+00  4.8432764182847023e+00 6.0221919378900424e+00 0.0000000000000000e+00  4.7419620665811317e+00 6.1671194741219288e+00 0.0000000000000000e+00  4.6417186203732310e+00 6.3120470103538127e+00 0.0000000000000000e+00  4.5425460796610002e+00 6.4569745465856965e+00 0.0000000000000000e+00  4.4444444444444438e+00 6.6019020828175776e+00 0.0000000000000000e+00  4.3474137147235581e+00 6.7468296190494650e+00 0.0000000000000000e+00  4.2514538904983414e+00 6.8917571552813461e+00 0.0000000000000000e+00  4.1565649717687965e+00 7.0366846915132353e+00 0.0000000000000000e+00  4.0627469585349232e+00 7.1816122277451164e+00 0.0000000000000000e+00  3.9699998507967211e+00 7.3265397639770029e+00 0.0000000000000000e+00  3.9618000000000007e+00 7.3396343122977861e+00 0.0000000000000000e+00  3.9618000000000011e+00 7.3396343122977870e+00 0.0000000000000000e+00  3.9618000000000007e+00 7.3396343122977870e+00 0.0000000000000000e+00  3.9618000000000011e+00 7.3396343122977861e+00 0.0000000000000000e+00  3.9618000000000007e+00 7.3396343122977878e+00 0.0000000000000000e+00  3.9618000000000007e+00 7.3396343122977878e+00 0.0000000000000000e+00  3.9618000000000011e+00 7.3396343122977870e+00 0.0000000000000000e+00  3.9618000000000007e+00 7.3396343122977870e+00 0.0000000000000000e+00  3.9618000000000011e+00 7.3396343122977861e+00 0.0000000000000000e+00  3.9618000000000007e+00 7.3396343122977878e+00 0.0000000000000000e+00  3.9618000000000007e+00 7.3396343122977878e+00 0.0000000000000000e+00  3.9618000000000011e+00 7.3396343122977870e+00 0.0000000000000000e+00  3.9618000000000007e+00 7.3396343122977870e+00 0.0000000000000000e+00  3.9618000000000011e+00 7.3396343122977861e+00 0.0000000000000000e+00  3.9618000000000007e+00 7.3396343122977878e+00 0.0000000000000000e+00  3.9618000000000007e+00 7.3396343122977878e+00 0.0000000000000000e+00  3.9618000000000011e+00 7.3396343122977870e+00 0.0000000000000000e+00  3.9618000000000007e+00 7.3396343122977870e+00 0.0000000000000000e+00  3.9618000000000011e+00 7.3396343122977861e+00 0.0000000000000000e+00  3.9618000000000007e+00 7.3396343122977878e+00 0.0000000000000000e+00  3.9618000000000007e+00 7.3396343122977878e+00 0.0000000000000000e+00  3.9618000000000011e+00 7.3396343122977870e+00 0.0000000000000000e+00  3.9618000000000007e+00 7.3396343122977870e+00 0.0000000000000000e+00  3.9618000000000011e+00 7.3396343122977861e+00 0.0000000000000000e+00  3.9618000000000007e+00 7.3396343122977878e+00 0.0000000000000000e+00  3.9618000000000007e+00 7.3396343122977878e+00 0.0000000000000000e+00  3.9618000000000011e+00 7.3396343122977870e+00 0.0000000000000000e+00  3.9618000000000007e+00 7.3396343122977870e+00 0.0000000000000000e+00  3.9618000000000011e+00 7.3396343122977861e+00 0.0000000000000000e+00  3.9618000000000007e+00 7.3396343122977878e+00 0.0000000000000000e+00  3.9618000000000007e+00 7.3396343122977878e+00 0.0000000000000000e+00  3.9618000000000011e+00 7.3396343122977870e+00 0.0000000000000000e+00  3.9618000000000007e+00 7.3396343122977870e+00 0.0000000000000000e+00  3.9618000000000011e+00 7.3396343122977861e+00 0.0000000000000000e+00  3.9618000000000007e+00 7.3396343122977878e+00 0.0000000000000000e+00  3.9618000000000007e+00 7.3396343122977878e+00 0.0000000000000000e+00  3.9618000000000011e+00 7.3396343122977870e+00 0.0000000000000000e+00  3.9618000000000007e+00 7.3396343122977870e+00 0.0000000000000000e+00  3.9618000000000011e+00 7.3396343122977878e+00 0.0000000000000000e+00  3.9618000000000007e+00 7.3396343122977852e+00 0.0000000000000000e+00  1.0000000000000002e+00 7.2111100739383856e-16 0.0000000000000000e+00  1.0000000000000000e+00 -1.9322111208437087e-16 0.0000000000000000e+00  1.0000000000000002e+00 5.1773440943651018e-17 0.0000000000000000e+00  1.0000000000000002e+00 -1.3872651690231710e-17 0.0000000000000000e+00  1.0000000000000000e+00 3.7171658172758344e-18 0.0000000000000000e+00  1.0000000000000000e+00 -9.9601157887163305e-19 0.0000000000000000e+00  1.0000000000000000e+00 2.6688049821069937e-19 0.0000000000000000e+00  1.0000000000000002e+00 -7.1510413971173146e-20 0.0000000000000000e+00  1.0000000000000002e+00 1.9161157673991116e-20 0.0000000000000000e+00  1.0000000000000000e+00 -5.1342167247913258e-21 0.0000000000000000e+00  1.0000000000000000e+00 1.3757092251741982e-21 0.0000000000000000e+00  1.0000000000000000e+00 -3.6862017590546904e-22 0.0000000000000000e+00  1.0000000000000002e+00 9.8771478447689606e-23 0.0000000000000000e+00  1.0000000000000002e+00 -2.6465737885286445e-23 0.0000000000000000e+00  9.9999999999999989e-01 7.0914730934562186e-24 0.0000000000000000e+00  1.0000000000000004e+00 -1.9001544885386583e-24 0.0000000000000000e+00  9.9999999999999989e-01 5.0914486069829856e-25 0.0000000000000000e+00  1.0000000000000004e+00 -1.3642495425456760e-25 0.0000000000000000e+00  1.0000000000000000e+00 3.6554956319963641e-26 0.0000000000000000e+00  1.0000000000000002e+00 -9.7948710252892265e-27 0.0000000000000000e+00  1.0000000000000002e+00 2.6245277811932902e-27 0.0000000000000000e+00  9.9999999999999989e-01 -7.0324009948377746e-28 0.0000000000000000e+00  1.0000000000000004e+00 1.8843261674186341e-28 0.0000000000000000e+00  1.0000000000000000e+00 -5.0490367483664711e-29 0.0000000000000000e+00  1.0000000000000002e+00 1.3528853192798583e-29 0.0000000000000000e+00  1.0000000000000002e+00 -3.6250452875296501e-30 0.0000000000000000e+00  9.9999999999999989e-01 9.7132795731980149e-31 0.0000000000000000e+00  1.0000000000000004e+00 -2.6026654174961670e-31 0.0000000000000000e+00  1.0000000000000000e+00 6.9738209678649718e-32 0.0000000000000000e+00  1.0000000000000002e+00 -1.8686296964986506e-32 0.0000000000000000e+00  1.0000000000000002e+00 5.0069781812963479e-33 0.0000000000000000e+00  9.9999999999999989e-01 -1.3416157601985871e-33 0.0000000000000000e+00  1.0000000000000004e+00 3.5948485949808354e-34 0.0000000000000000e+00  1.0000000000000000e+00 -9.6323677793725481e-35 0.0000000000000000e+00  1.0000000000000002e+00 2.5809851676824426e-35 0.0000000000000000e+00  1.0000000000000002e+00 -6.9157289135722660e-36 0.0000000000000000e+00  9.9999999999999989e-01 1.8530639774642251e-36 0.0000000000000000e+00  1.0000000000000004e+00 -4.9652699628475080e-37 0.0000000000000000e+00  1.0000000000000000e+00 1.3304400767474779e-37 0.0000000000000000e+00  1.0000000000000002e+00 -3.5649034414248782e-38 0.0000000000000000e+00  1.0000000000000002e+00 9.5521299822474061e-39 0.0000000000000000e+00  9.9999999999999989e-01 -2.5594855147402703e-39 0.0000000000000000e+00  1.0000000000000004e+00 6.8581207671383400e-40 0.0000000000000000e+00  1.0000000000000000e+00 -1.8376279211502446e-40 0.0000000000000000e+00  1.0000000000000002e+00 4.9239091746275458e-41 0.0000000000000000e+00  1.0000000000000002e+00 -1.3193574870077463e-41 0.0000000000000000e+00  9.9999999999999989e-01 3.5352077340336022e-42 0.0000000000000000e+00  1.0000000000000004e+00 -9.4725606605716568e-43 0.0000000000000000e+00  1.0000000000000000e+00 2.5381653019500389e-43 0.0000000000000000e+00  1.0000000000000002e+00 -6.8010054722865625e-44 0.0000000000000000e+00  1.0000000000000002e+00 1.8223688696458735e-44 0.0000000000000000e+00  9.9999999999999989e-01 -4.8847000629682455e-45 0.0000000000000000e+00  1.0000000000000004e+00 1.3151115554145471e-45 0.0000000000000000e+00  1.0000000000000000e+00 -3.7574615868986469e-46 0.0000000000000000e+00  1.0000000000000002e+00 1.8787307934493223e-46 0.0000000000000000e+00  </DataArray> 
</PointData> 
</Piece>
</UnstructuredGrid>
</VTKFile>