<?xml version="1.0"?>
<VTKFile type="UnstructuredGrid"  version="0.1"  >
<UnstructuredGrid>
<Piece  NumberOfPoints="201" NumberOfCells="200">
<Points>
<DataArray  type="Float64"  NumberOfComponents="3"  format="ascii">-5 0 0  -4.95 0 0  -4.9 0 0  -4.85 0 0  -4.8 0 0  -4.75 0 0  -4.7 0 0  -4.65 0 0  -4.6 0 0  -4.55 0 0  -4.5 0 0  -4.45 0 0  -4.4 0 0  -4.35 0 0  -4.3 0 0  -4.25 0 0  -4.2 0 0  -4.15 0 0  -4.1 0 0  -4.05 0 0  -4 0 0  -3.95 0 0  -3.9 0 0  -3.85 0 0  -3.8 0 0  -3.75 0 0  -3.7 0 0  -3.65 0 0  -3.6 0 0  -3.55 0 0  -3.5 0 0  -3.45 0 0  -3.4 0 0  -3.35 0 0  -3.3 0 0  -3.25 0 0  -3.2 0 0  -3.15 0 0  -3.1 0 0  -3.05 0 0  -3 0 0  -2.95 0 0  -2.9 0 0  -2.85 0 0  -2.8 0 0  -2.75 0 0  -2.7 0 0  -2.65 0 0  -2.6 0 0  -2.55 0 0  -2.5 0 0  -2.45 0 0  -2.4 0 0  -2.35 0 0  -2.3 0 0  -2.25 0 0  -2.2 0 0  -2.15 0 0  -2.1 0 0  -2.05 0 0  -2 0 0  -1.95 0 0  -1.9 0 0  -1.85 0 0  -1.8 0 0  -1.75 0 0  -1.7 0 0  -1.65 0 0  -1.6 0 0  -1.55 0 0  -1.5 0 0  -1.45 0 0  -1.4 0 0  -1.35 0 0  -1.3 0 0  -1.25 0 0  -1.2 0 0  -1.15 0 0  -1.1 0 0  -1.05 0 0  -1 0 0  -0.9500000000000002 0 0  -0.9000000000000004 0 0  -0.8499999999999996 0 0  -0.7999999999999998 0 0  -0.75 0 0  -0.7000000000000002 0 0  -0.6500000000000004 0 0  -0.5999999999999996 0 0  -0.5499999999999998 0 0  -0.5 0 0  -0.4500000000000002 0 0  -0.4000000000000004 0 0  -0.3499999999999996 0 0  -0.2999999999999998 0 0  -0.25 0 0  -0.2000000000000002 0 0  -0.1500000000000004 0 0  -0.09999999999999964 0 0  -0.04999999999999982 0 0  0 0 0  0.04999999999999982 0 0  0.09999999999999964 0 0  0.1500000000000004 0 0  0.2000000000000002 0 0  0.25 0 0  0.2999999999999998 0 0  0.3499999999999996 0 0  0.4000000000000004 0 0  0.4500000000000002 0 0  0.5 0 0  0.5499999999999998 0 0  0.5999999999999996 0 0  0.6500000000000004 0 0  0.7000000000000002 0 0  0.75 0 0  0.7999999999999998 0 0  0.8499999999999996 0 0  0.9000000000000004 0 0  0.9500000000000002 0 0  1 0 0  1.05 0 0  1.1 0 0  1.15 0 0  1.2 0 0  1.25 0 0  1.3 0 0  1.35 0 0  1.4 0 0  1.45 0 0  1.5 0 0  1.55 0 0  1.6 0 0  1.65 0 0  1.7 0 0  1.75 0 0  1.8 0 0  1.85 0 0  1.9 0 0  1.95 0 0  2 0 0  2.05 0 0  2.1 0 0  2.15 0 0  2.2 0 0  2.25 0 0  2.3 0 0  2.35 0 0  2.4 0 0  2.45 0 0  2.5 0 0  2.55 0 0  2.6 0 0  2.65 0 0  2.7 0 0  2.75 0 0  2.8 0 0  2.85 0 0  2.9 0 0  2.95 0 0  3 0 0  3.050000000000001 0 0  3.1 0 0  3.15 0 0  3.199999999999999 0 0  3.25 0 0  3.300000000000001 0 0  3.35 0 0  3.4 0 0  3.449999999999999 0 0  3.5 0 0  3.550000000000001 0 0  3.6 0 0  3.65 0 0  3.699999999999999 0 0  3.75 0 0  3.800000000000001 0 0  3.85 0 0  3.9 0 0  3.949999999999999 0 0  4 0 0  4.050000000000001 0 0  4.1 0 0  4.15 0 0  4.199999999999999 0 0  4.25 0 0  4.300000000000001 0 0  4.35 0 0  4.4 0 0  4.449999999999999 0 0  4.5 0 0  4.550000000000001 0 0  4.6 0 0  4.65 0 0  4.699999999999999 0 0  4.75 0 0  4.800000000000001 0 0  4.85 0 0  4.9 0 0  4.949999999999999 0 0  5 0 0  </DataArray>
</Points>
<Cells>
<DataArray  type="UInt32"  Name="connectivity"  format="ascii">0 1  1 2  2 3  3 4  4 5  5 6  6 7  7 8  8 9  9 10  10 11  11 12  12 13  13 14  14 15  15 16  16 17  17 18  18 19  19 20  20 21  21 22  22 23  23 24  24 25  25 26  26 27  27 28  28 29  29 30  30 31  31 32  32 33  33 34  34 35  35 36  36 37  37 38  38 39  39 40  40 41  41 42  42 43  43 44  44 45  45 46  46 47  47 48  48 49  49 50  50 51  51 52  52 53  53 54  54 55  55 56  56 57  57 58  58 59  59 60  60 61  61 62  62 63  63 64  64 65  65 66  66 67  67 68  68 69  69 70  70 71  71 72  72 73  73 74  74 75  75 76  76 77  77 78  78 79  79 80  80 81  81 82  82 83  83 84  84 85  85 86  86 87  87 88  88 89  89 90  90 91  91 92  92 93  93 94  94 95  95 96  96 97  97 98  98 99  99 100  100 101  101 102  102 103  103 104  104 105  105 106  106 107  107 108  108 109  109 110  110 111  111 112  112 113  113 114  114 115  115 116  116 117  117 118  118 119  119 120  120 121  121 122  122 123  123 124  124 125  125 126  126 127  127 128  128 129  129 130  130 131  131 132  132 133  133 134  134 135  135 136  136 137  137 138  138 139  139 140  140 141  141 142  142 143  143 144  144 145  145 146  146 147  147 148  148 149  149 150  150 151  151 152  152 153  153 154  154 155  155 156  156 157  157 158  158 159  159 160  160 161  161 162  162 163  163 164  164 165  165 166  166 167  167 168  168 169  169 170  170 171  171 172  172 173  173 174  174 175  175 176  176 177  177 178  178 179  179 180  180 181  181 182  182 183  183 184  184 185  185 186  186 187  187 188  188 189  189 190  190 191  191 192  192 193  193 194  194 195  195 196  196 197  197 198  198 199  199 200  </DataArray>
<DataArray  type="UInt32"  Name="offsets"  format="ascii">2 4 6 8 10 12 14 16 18 20 22 24 26 28 30 32 34 36 38 40 42 44 46 48 50 52 54 56 58 60 62 64 66 68 70 72 74 76 78 80 82 84 86 88 90 92 94 96 98 100 102 104 106 108 110 112 114 116 118 120 122 124 126 128 130 132 134 136 138 140 142 144 146 148 150 152 154 156 158 160 162 164 166 168 170 172 174 176 178 180 182 184 186 188 190 192 194 196 198 200 202 204 206 208 210 212 214 216 218 220 222 224 226 228 230 232 234 236 238 240 242 244 246 248 250 252 254 256 258 260 262 264 266 268 270 272 274 276 278 280 282 284 286 288 290 292 294 296 298 300 302 304 306 308 310 312 314 316 318 320 322 324 326 328 330 332 334 336 338 340 342 344 346 348 350 352 354 356 358 360 362 364 366 368 370 372 374 376 378 380 382 384 386 388 390 392 394 396 398 400 </DataArray>
<DataArray  type="UInt8"  Name="types"  format="ascii">3 3 3 3 3 3 3 3 3 3 3 3 3 3 3 3 3 3 3 3 3 3 3 3 3 3 3 3 3 3 3 3 3 3 3 3 3 3 3 3 3 3 3 3 3 3 3 3 3 3 3 3 3 3 3 3 3 3 3 3 3 3 3 3 3 3 3 3 3 3 3 3 3 3 3 3 3 3 3 3 3 3 3 3 3 3 3 3 3 3 3 3 3 3 3 3 3 3 3 3 3 3 3 3 3 3 3 3 3 3 3 3 3 3 3 3 3 3 3 3 3 3 3 3 3 3 3 3 3 3 3 3 3 3 3 3 3 3 3 3 3 3 3 3 3 3 3 3 3 3 3 3 3 3 3 3 3 3 3 3 3 3 3 3 3 3 3 3 3 3 3 3 3 3 3 3 3 3 3 3 3 3 3 3 3 3 3 3 3 3 3 3 3 3 3 3 3 3 3 3 </DataArray>
</Cells>
<PointData  Vectors="f_5"> 
<DataArray  type="Float64"  Name="f_5"  NumberOfComponents="3" format="ascii">1.0000000000000002e+01 1.2009150968302826e-52 0.0000000000000000e+00  1.0000000000000002e+01 -2.4018301936605656e-52 0.0000000000000000e+00  1.0000000000000002e+01 8.4064056778119850e-52 0.0000000000000000e+00  1.0000000000000002e+01 -3.1223792517587130e-51 0.0000000000000000e+00  1.0000000000000002e+01 1.1648876439253754e-50 0.0000000000000000e+00  1.0000000000000004e+01 -4.3473126505256313e-50 0.0000000000000000e+00  1.0000000000000002e+01 1.6224362958177157e-49 0.0000000000000000e+00  1.0000000000000004e+01 -6.0550139182183023e-49 0.0000000000000000e+00  1.0000000000000002e+01 2.2597619377055316e-48 0.0000000000000000e+00  1.0000000000000002e+01 -8.4335463590003695e-48 0.0000000000000000e+00  1.0000000000000004e+01 3.1474423498295958e-47 0.0000000000000000e+00  1.0000000000000000e+01 -1.1746414763418348e-46 0.0000000000000000e+00  1.0000000000000002e+01 4.3838216703843812e-46 0.0000000000000000e+00  1.0000000000000002e+01 -1.6360645205195563e-45 0.0000000000000000e+00  1.0000000000000004e+01 6.1058759150398393e-45 0.0000000000000000e+00  1.0000000000000002e+01 -2.2787439139639812e-44 0.0000000000000000e+00  1.0000000000000002e+01 8.5043880643519440e-44 0.0000000000000000e+00  1.0000000000000004e+01 -3.1738808343443806e-43 0.0000000000000000e+00  1.0000000000000002e+01 1.1845084530942235e-42 0.0000000000000000e+00  9.9999999999999982e+00 -4.4206457289424941e-42 0.0000000000000000e+00  1.0000000000000002e+01 1.6498074462675759e-41 0.0000000000000000e+00  1.0000000000000004e+01 -6.1571652121760566e-41 0.0000000000000000e+00  1.0000000000000002e+01 2.2978853402436561e-40 0.0000000000000000e+00  1.0000000000000002e+01 -8.5758248397570565e-40 0.0000000000000000e+00  1.0000000000000004e+01 3.2005414018784445e-39 0.0000000000000000e+00  1.0000000000000004e+01 -1.1944583123538126e-38 0.0000000000000000e+00  1.0000000000000002e+01 4.4577791092274074e-38 0.0000000000000000e+00  1.0000000000000004e+01 -1.6636658124555757e-37 0.0000000000000000e+00  1.0000000000000002e+01 6.2088853388995895e-37 0.0000000000000000e+00  1.0000000000000004e+01 -2.3171875543142694e-36 0.0000000000000000e+00  1.0000000000000004e+01 8.6478616833671550e-36 0.0000000000000000e+00  1.0000000000000002e+01 -3.2274259179154368e-35 0.0000000000000000e+00  1.0000000000000004e+01 1.2044917503324986e-34 0.0000000000000000e+00  1.0000000000000002e+01 -4.4952244095384707e-34 0.0000000000000000e+00  1.0000000000000004e+01 1.6776405887821321e-33 0.0000000000000000e+00  1.0000000000000004e+01 -6.2610399141747083e-33 0.0000000000000000e+00  1.0000000000000002e+01 2.3366519067916711e-32 0.0000000000000000e+00  1.0000000000000004e+01 -8.7205036357491811e-32 0.0000000000000000e+00  1.0000000000000002e+01 3.2545362636205198e-31 0.0000000000000000e+00  1.0000000000000004e+01 -1.2146094690907114e-30 0.0000000000000000e+00  1.0000000000000004e+01 4.5329842500008134e-30 0.0000000000000000e+00  1.0000000000000002e+01 -1.6917327530912548e-29 0.0000000000000000e+00  1.0000000000000004e+01 6.3136325873649137e-29 0.0000000000000000e+00  1.0000000000000002e+01 -2.3562797596368507e-28 0.0000000000000000e+00  1.0000000000000004e+01 8.7937557798108783e-28 0.0000000000000000e+00  1.0000000000000004e+01 -3.2818743359606809e-27 0.0000000000000000e+00  1.0000000000000002e+01 1.2248121765861641e-26 0.0000000000000000e+00  1.0000000000000004e+01 -4.5710612727485718e-26 0.0000000000000000e+00  1.0000000000000002e+01 1.7059432914408198e-25 0.0000000000000000e+00  1.0000000000000004e+01 -6.3666670384883972e-25 0.0000000000000000e+00  1.0000000000000004e+01 2.3760724862512875e-24 0.0000000000000000e+00  1.0000000000000002e+01 -8.8676232411563127e-24 0.0000000000000000e+00  1.0000000000000004e+01 3.3094420478373837e-23 0.0000000000000000e+00  1.0000000000000002e+01 -1.2351005867233961e-22 0.0000000000000000e+00  1.0000000000000004e+01 4.6094581421098281e-22 0.0000000000000000e+00  1.0000000000000004e+01 -1.7202731981715994e-21 0.0000000000000000e+00  1.0000000000000002e+01 6.4201469784754178e-21 0.0000000000000000e+00  1.0000000000000004e+01 -2.3960314715729980e-20 0.0000000000000000e+00  1.0000000000000002e+01 8.9421111884444906e-20 0.0000000000000000e+00  1.0000000000000004e+01 -3.3372413282204836e-19 0.0000000000000000e+00  1.0000000000000004e+01 1.2454754194037540e-18 0.0000000000000000e+00  1.0000000000000002e+01 -4.6481775447929704e-18 0.0000000000000000e+00  1.0000000000000004e+01 1.7347234759768062e-17 0.0000000000000000e+00  9.8885525324554919e+00 1.1067401264214163e-01 0.0000000000000000e+00  9.7131674895136779e+00 2.8611260913337005e-01 0.0000000000000000e+00  9.5393517236001504e+00 4.6155120562459717e-01 0.0000000000000000e+00  9.3671052347148969e+00 6.3698980211582534e-01 0.0000000000000000e+00  9.1964280228579351e+00 8.1242839860705374e-01 0.0000000000000000e+00  9.0273200880292439e+00 9.8786699509828202e-01 0.0000000000000000e+00  8.8597814302288427e+00 1.1633055915895101e+00 0.0000000000000000e+00  8.6938120494567190e+00 1.3387441880807385e+00 0.0000000000000000e+00  8.5294119457128819e+00 1.5141827845719649e+00 0.0000000000000000e+00  8.3665811189973294e+00 1.6896213810631944e+00 0.0000000000000000e+00  8.2053195693100545e+00 1.8650599775544223e+00 0.0000000000000000e+00  8.0456272966510607e+00 2.0404985740456509e+00 0.0000000000000000e+00  7.8875043010203578e+00 2.2159371705368791e+00 0.0000000000000000e+00  7.7309505824179299e+00 2.3913757670281055e+00 0.0000000000000000e+00  7.5759661408437839e+00 2.5668143635193355e+00 0.0000000000000000e+00  7.4225509762979271e+00 2.7422529600105623e+00 0.0000000000000000e+00  7.2707050887803453e+00 2.9176915565017909e+00 0.0000000000000000e+00  7.1204284782910516e+00 3.0931301529930182e+00 0.0000000000000000e+00  6.9717211448300382e+00 3.2685687494842468e+00 0.0000000000000000e+00  6.8245830883973095e+00 3.4440073459754728e+00 0.0000000000000000e+00  6.6790143089928566e+00 3.6194459424667040e+00 0.0000000000000000e+00  6.5350148066166902e+00 3.7948845389579313e+00 0.0000000000000000e+00  6.3925845812688058e+00 3.9703231354491604e+00 0.0000000000000000e+00  6.2517236329492087e+00 4.1457617319403850e+00 0.0000000000000000e+00  6.1124319616578893e+00 4.3212003284316163e+00 0.0000000000000000e+00  5.9747095673948518e+00 4.4966389249228449e+00 0.0000000000000000e+00  5.8385564501600955e+00 4.6720775214140700e+00 0.0000000000000000e+00  5.7039726099536274e+00 4.8475161179053003e+00 0.0000000000000000e+00  5.5709580467754360e+00 5.0229547143965263e+00 0.0000000000000000e+00  5.4395127606255320e+00 5.1983933108877576e+00 0.0000000000000000e+00  5.3096367515039038e+00 5.3738319073789844e+00 0.0000000000000000e+00  5.1813300194105620e+00 5.5492705038702113e+00 0.0000000000000000e+00  5.0545925643455041e+00 5.7247091003614408e+00 0.0000000000000000e+00  4.9294243863087281e+00 5.9001476968526658e+00 0.0000000000000000e+00  4.8058254853002351e+00 6.0755862933438962e+00 0.0000000000000000e+00  4.6837958613200197e+00 6.2510248898351231e+00 0.0000000000000000e+00  4.5633355143680916e+00 6.4264634863263561e+00 0.0000000000000000e+00  4.4444444444444438e+00 6.6019020828175767e+00 0.0000000000000000e+00  4.3271226515490788e+00 6.7773406793088098e+00 0.0000000000000000e+00  4.2113701356820004e+00 6.9527792758000349e+00 0.0000000000000000e+00  4.0971868968431968e+00 7.1282178722912661e+00 0.0000000000000000e+00  3.9845729350326802e+00 7.3036564687824930e+00 0.0000000000000000e+00  3.9618000000000007e+00 7.3396343122977878e+00 0.0000000000000000e+00  3.9618000000000007e+00 7.3396343122977878e+00 0.0000000000000000e+00  3.9618000000000011e+00 7.3396343122977870e+00 0.0000000000000000e+00  3.9618000000000007e+00 7.3396343122977870e+00 0.0000000000000000e+00  3.9618000000000011e+00 7.3396343122977861e+00 0.0000000000000000e+00  3.9618000000000007e+00 7.3396343122977878e+00 0.0000000000000000e+00  3.9618000000000007e+00 7.3396343122977878e+00 0.0000000000000000e+00  3.9618000000000011e+00 7.3396343122977870e+00 0.0000000000000000e+00  3.9618000000000007e+00 7.3396343122977870e+00 0.0000000000000000e+00  3.9618000000000011e+00 7.3396343122977861e+00 0.0000000000000000e+00  3.9618000000000007e+00 7.3396343122977878e+00 0.0000000000000000e+00  3.9618000000000007e+00 7.3396343122977878e+00 0.0000000000000000e+00  3.9618000000000011e+00 7.3396343122977870e+00 0.0000000000000000e+00  3.9618000000000007e+00 7.3396343122977870e+00 0.0000000000000000e+00  3.9618000000000011e+00 7.3396343122977861e+00 0.0000000000000000e+00  3.9618000000000007e+00 7.3396343122977878e+00 0.0000000000000000e+00  3.9618000000000007e+00 7.3396343122977878e+00 0.0000000000000000e+00  3.9618000000000011e+00 7.3396343122977870e+00 0.0000000000000000e+00  3.9618000000000007e+00 7.3396343122977870e+00 0.0000000000000000e+00  3.9618000000000011e+00 7.3396343122977861e+00 0.0000000000000000e+00  3.9618000000000007e+00 7.3396343122977878e+00 0.0000000000000000e+00  3.9618000000000007e+00 7.3396343122977878e+00 0.0000000000000000e+00  3.9618000000000011e+00 7.3396343122977870e+00 0.0000000000000000e+00  3.9618000000000007e+00 7.3396343122977870e+00 0.0000000000000000e+00  3.9618000000000011e+00 7.3396343122977861e+00 0.0000000000000000e+00  3.9618000000000007e+00 7.3396343122977878e+00 0.0000000000000000e+00  3.9618000000000007e+00 7.3396343122977878e+00 0.0000000000000000e+00  3.9618000000000011e+00 7.3396343122977870e+00 0.0000000000000000e+00  3.9618000000000007e+00 7.3396343122977870e+00 0.0000000000000000e+00  3.9618000000000011e+00 7.3396343122977861e+00 0.0000000000000000e+00  3.9618000000000007e+00 7.3396343122977878e+00 0.0000000000000000e+00  3.9618000000000007e+00 7.3396343122977861e+00 0.0000000000000000e+00  3.9618000000000011e+00 7.3396343122977878e+00 0.0000000000000000e+00  1.0000000000000002e+00 2.4037033579794438e-16 0.0000000000000000e+00  1.0000000000000002e+00 -6.4407037361456956e-17 0.0000000000000000e+00  1.0000000000000000e+00 1.7257813647883532e-17 0.0000000000000000e+00  1.0000000000000000e+00 -4.6242172300771954e-18 0.0000000000000000e+00  1.0000000000000000e+00 1.2390552724252580e-18 0.0000000000000000e+00  1.0000000000000002e+00 -3.3200385962387523e-19 0.0000000000000000e+00  1.0000000000000002e+00 8.8960166070233158e-20 0.0000000000000000e+00  1.0000000000000000e+00 -2.3836804657057526e-20 0.0000000000000000e+00  1.0000000000000000e+00 6.3870525579969824e-21 0.0000000000000000e+00  1.0000000000000000e+00 -1.7114055749304145e-21 0.0000000000000000e+00  1.0000000000000002e+00 4.5856974172472935e-22 0.0000000000000000e+00  1.0000000000000002e+00 -1.2287339196848972e-22 0.0000000000000000e+00  1.0000000000000000e+00 3.2923826149229602e-23 0.0000000000000000e+00  1.0000000000000000e+00 -8.8219126284287424e-24 0.0000000000000000e+00  1.0000000000000000e+00 2.3638243644853859e-24 0.0000000000000000e+00  1.0000000000000002e+00 -6.3338482951287593e-25 0.0000000000000000e+00  1.0000000000000002e+00 1.6971495356609942e-25 0.0000000000000000e+00  1.0000000000000000e+00 -4.5474984751521803e-26 0.0000000000000000e+00  1.0000000000000000e+00 1.2184985439987876e-26 0.0000000000000000e+00  1.0000000000000000e+00 -3.2649570084297135e-27 0.0000000000000000e+00  1.0000000000000002e+00 8.7484259373108274e-28 0.0000000000000000e+00  1.0000000000000002e+00 -2.3441336649459219e-28 0.0000000000000000e+00  9.9999999999999989e-01 6.2810872247286308e-29 0.0000000000000000e+00  1.0000000000000004e+00 -1.6830122494555035e-29 0.0000000000000000e+00  9.9999999999999989e-01 4.5096177309328238e-30 0.0000000000000000e+00  1.0000000000000004e+00 -1.2083484291765402e-30 0.0000000000000000e+00  1.0000000000000000e+00 3.2377598577326419e-31 0.0000000000000000e+00  1.0000000000000002e+00 -8.6755513916536852e-32 0.0000000000000000e+00  1.0000000000000002e+00 2.3246069892883425e-32 0.0000000000000000e+00  9.9999999999999989e-01 -6.2287656549954513e-33 0.0000000000000000e+00  1.0000000000000004e+00 1.6689927270987692e-33 0.0000000000000000e+00  1.0000000000000000e+00 -4.4720525339952491e-34 0.0000000000000000e+00  1.0000000000000002e+00 1.1982828649935837e-34 0.0000000000000000e+00  1.0000000000000002e+00 -3.2107892597908759e-35 0.0000000000000000e+00  9.9999999999999989e-01 8.6032838922747395e-36 0.0000000000000000e+00  1.0000000000000004e+00 -2.3052429711907365e-36 0.0000000000000000e+00  1.0000000000000000e+00 6.1768799248806949e-37 0.0000000000000000e+00  1.0000000000000002e+00 -1.6550899876157970e-37 0.0000000000000000e+00  1.0000000000000002e+00 4.4348002558249626e-38 0.0000000000000000e+00  9.9999999999999989e-01 -1.1883011471416164e-38 0.0000000000000000e+00  1.0000000000000004e+00 3.1840433274157759e-39 0.0000000000000000e+00  1.0000000000000000e+00 -8.5316183824674780e-40 0.0000000000000000e+00  1.0000000000000002e+00 2.2860402557126835e-40 0.0000000000000000e+00  1.0000000000000002e+00 -6.1254264038325984e-41 0.0000000000000000e+00  9.9999999999999989e-01 1.6413030582031954e-41 0.0000000000000000e+00  1.0000000000000004e+00 -4.3978582898028472e-42 0.0000000000000000e+00  1.0000000000000000e+00 1.1784025771791717e-42 0.0000000000000000e+00  1.0000000000000002e+00 -3.1575201891391299e-43 0.0000000000000000e+00  1.0000000000000002e+00 8.4605498476480841e-44 0.0000000000000000e+00  9.9999999999999989e-01 -2.2669974992005300e-44 0.0000000000000000e+00  1.0000000000000004e+00 6.0744014915417642e-45 0.0000000000000000e+00  1.0000000000000000e+00 -1.6276309741613905e-45 0.0000000000000000e+00  1.0000000000000002e+00 4.3612240510389968e-46 0.0000000000000000e+00  1.0000000000000002e+00 -1.1685864625420915e-46 0.0000000000000000e+00  9.9999999999999989e-01 3.1312179912929952e-47 0.0000000000000000e+00  1.0000000000000004e+00 -8.3900733975126316e-48 0.0000000000000000e+00  1.0000000000000000e+00 2.2481136771200666e-48 0.0000000000000000e+00  1.0000000000000002e+00 -6.0238131096777531e-49 0.0000000000000000e+00  1.0000000000000002e+00 1.6141156675103614e-49 0.0000000000000000e+00  9.9999999999999989e-01 -4.3264956036359533e-50 0.0000000000000000e+00  1.0000000000000004e+00 1.1648257394404660e-50 0.0000000000000000e+00  1.0000000000000000e+00 -3.3280735412584221e-51 0.0000000000000000e+00  1.0000000000000002e+00 1.6640367706292102e-51 0.0000000000000000e+00  </DataArray> 
</PointData> 
</Piece>
</UnstructuredGrid>
</VTKFile>