<?xml version="1.0"?>
<VTKFile type="UnstructuredGrid"  version="0.1"  >
<UnstructuredGrid>
<Piece  NumberOfPoints="201" NumberOfCells="200">
<Points>
<DataArray  type="Float64"  NumberOfComponents="3"  format="ascii">-5 0 0  -4.95 0 0  -4.9 0 0  -4.85 0 0  -4.8 0 0  -4.75 0 0  -4.7 0 0  -4.65 0 0  -4.6 0 0  -4.55 0 0  -4.5 0 0  -4.45 0 0  -4.4 0 0  -4.35 0 0  -4.3 0 0  -4.25 0 0  -4.2 0 0  -4.15 0 0  -4.1 0 0  -4.05 0 0  -4 0 0  -3.95 0 0  -3.9 0 0  -3.85 0 0  -3.8 0 0  -3.75 0 0  -3.7 0 0  -3.65 0 0  -3.6 0 0  -3.55 0 0  -3.5 0 0  -3.45 0 0  -3.4 0 0  -3.35 0 0  -3.3 0 0  -3.25 0 0  -3.2 0 0  -3.15 0 0  -3.1 0 0  -3.05 0 0  -3 0 0  -2.95 0 0  -2.9 0 0  -2.85 0 0  -2.8 0 0  -2.75 0 0  -2.7 0 0  -2.65 0 0  -2.6 0 0  -2.55 0 0  -2.5 0 0  -2.45 0 0  -2.4 0 0  -2.35 0 0  -2.3 0 0  -2.25 0 0  -2.2 0 0  -2.15 0 0  -2.1 0 0  -2.05 0 0  -2 0 0  -1.95 0 0  -1.9 0 0  -1.85 0 0  -1.8 0 0  -1.75 0 0  -1.7 0 0  -1.65 0 0  -1.6 0 0  -1.55 0 0  -1.5 0 0  -1.45 0 0  -1.4 0 0  -1.35 0 0  -1.3 0 0  -1.25 0 0  -1.2 0 0  -1.15 0 0  -1.1 0 0  -1.05 0 0  -1 0 0  -0.9500000000000002 0 0  -0.9000000000000004 0 0  -0.8499999999999996 0 0  -0.7999999999999998 0 0  -0.75 0 0  -0.7000000000000002 0 0  -0.6500000000000004 0 0  -0.5999999999999996 0 0  -0.5499999999999998 0 0  -0.5 0 0  -0.4500000000000002 0 0  -0.4000000000000004 0 0  -0.3499999999999996 0 0  -0.2999999999999998 0 0  -0.25 0 0  -0.2000000000000002 0 0  -0.1500000000000004 0 0  -0.09999999999999964 0 0  -0.04999999999999982 0 0  0 0 0  0.04999999999999982 0 0  0.09999999999999964 0 0  0.1500000000000004 0 0  0.2000000000000002 0 0  0.25 0 0  0.2999999999999998 0 0  0.3499999999999996 0 0  0.4000000000000004 0 0  0.4500000000000002 0 0  0.5 0 0  0.5499999999999998 0 0  0.5999999999999996 0 0  0.6500000000000004 0 0  0.7000000000000002 0 0  0.75 0 0  0.7999999999999998 0 0  0.8499999999999996 0 0  0.9000000000000004 0 0  0.9500000000000002 0 0  1 0 0  1.05 0 0  1.1 0 0  1.15 0 0  1.2 0 0  1.25 0 0  1.3 0 0  1.35 0 0  1.4 0 0  1.45 0 0  1.5 0 0  1.55 0 0  1.6 0 0  1.65 0 0  1.7 0 0  1.75 0 0  1.8 0 0  1.85 0 0  1.9 0 0  1.95 0 0  2 0 0  2.05 0 0  2.1 0 0  2.15 0 0  2.2 0 0  2.25 0 0  2.3 0 0  2.35 0 0  2.4 0 0  2.45 0 0  2.5 0 0  2.55 0 0  2.6 0 0  2.65 0 0  2.7 0 0  2.75 0 0  2.8 0 0  2.85 0 0  2.9 0 0  2.95 0 0  3 0 0  3.050000000000001 0 0  3.1 0 0  3.15 0 0  3.199999999999999 0 0  3.25 0 0  3.300000000000001 0 0  3.35 0 0  3.4 0 0  3.449999999999999 0 0  3.5 0 0  3.550000000000001 0 0  3.6 0 0  3.65 0 0  3.699999999999999 0 0  3.75 0 0  3.800000000000001 0 0  3.85 0 0  3.9 0 0  3.949999999999999 0 0  4 0 0  4.050000000000001 0 0  4.1 0 0  4.15 0 0  4.199999999999999 0 0  4.25 0 0  4.300000000000001 0 0  4.35 0 0  4.4 0 0  4.449999999999999 0 0  4.5 0 0  4.550000000000001 0 0  4.6 0 0  4.65 0 0  4.699999999999999 0 0  4.75 0 0  4.800000000000001 0 0  4.85 0 0  4.9 0 0  4.949999999999999 0 0  5 0 0  </DataArray>
</Points>
<Cells>
<DataArray  type="UInt32"  Name="connectivity"  format="ascii">0 1  1 2  2 3  3 4  4 5  5 6  6 7  7 8  8 9  9 10  10 11  11 12  12 13  13 14  14 15  15 16  16 17  17 18  18 19  19 20  20 21  21 22  22 23  23 24  24 25  25 26  26 27  27 28  28 29  29 30  30 31  31 32  32 33  33 34  34 35  35 36  36 37  37 38  38 39  39 40  40 41  41 42  42 43  43 44  44 45  45 46  46 47  47 48  48 49  49 50  50 51  51 52  52 53  53 54  54 55  55 56  56 57  57 58  58 59  59 60  60 61  61 62  62 63  63 64  64 65  65 66  66 67  67 68  68 69  69 70  70 71  71 72  72 73  73 74  74 75  75 76  76 77  77 78  78 79  79 80  80 81  81 82  82 83  83 84  84 85  85 86  86 87  87 88  88 89  89 90  90 91  91 92  92 93  93 94  94 95  95 96  96 97  97 98  98 99  99 100  100 101  101 102  102 103  103 104  104 105  105 106  106 107  107 108  108 109  109 110  110 111  111 112  112 113  113 114  114 115  115 116  116 117  117 118  118 119  119 120  120 121  121 122  122 123  123 124  124 125  125 126  126 127  127 128  128 129  129 130  130 131  131 132  132 133  133 134  134 135  135 136  136 137  137 138  138 139  139 140  140 141  141 142  142 143  143 144  144 145  145 146  146 147  147 148  148 149  149 150  150 151  151 152  152 153  153 154  154 155  155 156  156 157  157 158  158 159  159 160  160 161  161 162  162 163  163 164  164 165  165 166  166 167  167 168  168 169  169 170  170 171  171 172  172 173  173 174  174 175  175 176  176 177  177 178  178 179  179 180  180 181  181 182  182 183  183 184  184 185  185 186  186 187  187 188  188 189  189 190  190 191  191 192  192 193  193 194  194 195  195 196  196 197  197 198  198 199  199 200  </DataArray>
<DataArray  type="UInt32"  Name="offsets"  format="ascii">2 4 6 8 10 12 14 16 18 20 22 24 26 28 30 32 34 36 38 40 42 44 46 48 50 52 54 56 58 60 62 64 66 68 70 72 74 76 78 80 82 84 86 88 90 92 94 96 98 100 102 104 106 108 110 112 114 116 118 120 122 124 126 128 130 132 134 136 138 140 142 144 146 148 150 152 154 156 158 160 162 164 166 168 170 172 174 176 178 180 182 184 186 188 190 192 194 196 198 200 202 204 206 208 210 212 214 216 218 220 222 224 226 228 230 232 234 236 238 240 242 244 246 248 250 252 254 256 258 260 262 264 266 268 270 272 274 276 278 280 282 284 286 288 290 292 294 296 298 300 302 304 306 308 310 312 314 316 318 320 322 324 326 328 330 332 334 336 338 340 342 344 346 348 350 352 354 356 358 360 362 364 366 368 370 372 374 376 378 380 382 384 386 388 390 392 394 396 398 400 </DataArray>
<DataArray  type="UInt8"  Name="types"  format="ascii">3 3 3 3 3 3 3 3 3 3 3 3 3 3 3 3 3 3 3 3 3 3 3 3 3 3 3 3 3 3 3 3 3 3 3 3 3 3 3 3 3 3 3 3 3 3 3 3 3 3 3 3 3 3 3 3 3 3 3 3 3 3 3 3 3 3 3 3 3 3 3 3 3 3 3 3 3 3 3 3 3 3 3 3 3 3 3 3 3 3 3 3 3 3 3 3 3 3 3 3 3 3 3 3 3 3 3 3 3 3 3 3 3 3 3 3 3 3 3 3 3 3 3 3 3 3 3 3 3 3 3 3 3 3 3 3 3 3 3 3 3 3 3 3 3 3 3 3 3 3 3 3 3 3 3 3 3 3 3 3 3 3 3 3 3 3 3 3 3 3 3 3 3 3 3 3 3 3 3 3 3 3 3 3 3 3 3 3 3 3 3 3 3 3 3 3 3 3 3 3 </DataArray>
</Cells>
<PointData  Vectors="f_5"> 
<DataArray  type="Float64"  Name="f_5"  NumberOfComponents="3" format="ascii">1.0000000000000002e+01 -1.0809827104208935e-36 0.0000000000000000e+00  1.0000000000000002e+01 2.1619654208417878e-36 0.0000000000000000e+00  1.0000000000000002e+01 -7.5668789729462601e-36 0.0000000000000000e+00  1.0000000000000002e+01 2.8105550470943037e-35 0.0000000000000000e+00  1.0000000000000002e+01 -1.0485532291082680e-34 0.0000000000000000e+00  1.0000000000000004e+01 3.9131574117236430e-34 0.0000000000000000e+00  1.0000000000000002e+01 -1.4604076417786312e-33 0.0000000000000000e+00  1.0000000000000004e+01 5.4503148259421621e-33 0.0000000000000000e+00  1.0000000000000002e+01 -2.0340851661989858e-32 0.0000000000000000e+00  1.0000000000000002e+01 7.5913091822017943e-32 0.0000000000000000e+00  1.0000000000000004e+01 -2.8331151562608198e-31 0.0000000000000000e+00  1.0000000000000000e+01 1.0573329706823103e-30 0.0000000000000000e+00  1.0000000000000002e+01 -3.9460203671031608e-30 0.0000000000000000e+00  1.0000000000000002e+01 1.4726748497730216e-29 0.0000000000000000e+00  1.0000000000000004e+01 -5.4960973623818180e-29 0.0000000000000000e+00  1.0000000000000002e+01 2.0511714599754260e-28 0.0000000000000000e+00  1.0000000000000002e+01 -7.6550761036635247e-28 0.0000000000000000e+00  1.0000000000000004e+01 2.8569132954678681e-27 0.0000000000000000e+00  1.0000000000000002e+01 -1.0662145571505036e-26 0.0000000000000000e+00  9.9999999999999982e+00 3.9791668990552626e-26 0.0000000000000000e+00  1.0000000000000002e+01 -1.4850453039070551e-25 0.0000000000000000e+00  1.0000000000000004e+01 5.5422645257226964e-25 0.0000000000000000e+00  1.0000000000000002e+01 -2.0684012798983648e-24 0.0000000000000000e+00  1.0000000000000002e+01 7.7193786670212255e-24 0.0000000000000000e+00  1.0000000000000004e+01 -2.8809113388186426e-23 0.0000000000000000e+00  1.0000000000000004e+01 1.0751707488572496e-22 0.0000000000000000e+00  1.0000000000000002e+01 -4.0125918615471361e-22 0.0000000000000000e+00  1.0000000000000004e+01 1.4975196697331238e-21 0.0000000000000000e+00  1.0000000000000002e+01 -5.5888194927778066e-21 0.0000000000000000e+00  1.0000000000000004e+01 2.0857758301378022e-20 0.0000000000000000e+00  1.0000000000000004e+01 -7.7842213712734627e-20 0.0000000000000000e+00  1.0000000000000002e+01 2.9051109654956065e-19 0.0000000000000000e+00  1.0000000000000004e+01 -1.0842021724855039e-18 0.0000000000000000e+00  9.9664271701788660e+00 3.3274631837188685e-02 0.0000000000000000e+00  9.8678375476269640e+00 1.3131384752346281e-01 0.0000000000000000e+00  9.7697379847698738e+00 2.2935306320973706e-01 0.0000000000000000e+00  9.6721284816076025e+00 3.2739227889601114e-01 0.0000000000000000e+00  9.5750090381401520e+00 4.2543149458228668e-01 0.0000000000000000e+00  9.4783796543675205e+00 5.2347071026856051e-01 0.0000000000000000e+00  9.3822403302897044e+00 6.2150992595483623e-01 0.0000000000000000e+00  9.2865910659067126e+00 7.1954914164111050e-01 0.0000000000000000e+00  9.1914318612185308e+00 8.1758835732738422e-01 0.0000000000000000e+00  9.0967627162251734e+00 9.1562757301365894e-01 0.0000000000000000e+00  9.0025836309266314e+00 1.0136667886999327e+00 0.0000000000000000e+00  8.9088946053229083e+00 1.1117060043862081e+00 0.0000000000000000e+00  8.8156956394140060e+00 1.2097452200724823e+00 0.0000000000000000e+00  8.7229867331999174e+00 1.3077844357587560e+00 0.0000000000000000e+00  8.6307678866806494e+00 1.4058236514450315e+00 0.0000000000000000e+00  8.5390390998561987e+00 1.5038628671313059e+00 0.0000000000000000e+00  8.4478003727265687e+00 1.6019020828175810e+00 0.0000000000000000e+00  8.3570517052917612e+00 1.6999412985038556e+00 0.0000000000000000e+00  8.2667930975517603e+00 1.7979805141901286e+00 0.0000000000000000e+00  8.1770245495065872e+00 1.8960197298764045e+00 0.0000000000000000e+00  8.0877460611562277e+00 1.9940589455626780e+00 0.0000000000000000e+00  7.9989576325006855e+00 2.0920981612489529e+00 0.0000000000000000e+00  7.9106592635399702e+00 2.1901373769352279e+00 0.0000000000000000e+00  7.8228509542740614e+00 2.2881765926215007e+00 0.0000000000000000e+00  7.7355327047029814e+00 2.3862158083077776e+00 0.0000000000000000e+00  7.6487045148267114e+00 2.4842550239940508e+00 0.0000000000000000e+00  7.5623663846452631e+00 2.5822942396803259e+00 0.0000000000000000e+00  7.4765183141586329e+00 2.6803334553666005e+00 0.0000000000000000e+00  7.3911603033668225e+00 2.7783726710528742e+00 0.0000000000000000e+00  7.3062923522698302e+00 2.8764118867391488e+00 0.0000000000000000e+00  7.2219144608676515e+00 2.9744511024254239e+00 0.0000000000000000e+00  7.1380266291602972e+00 3.0724903181116980e+00 0.0000000000000000e+00  7.0546288571477591e+00 3.1705295337979731e+00 0.0000000000000000e+00  6.9717211448300365e+00 3.2685687494842464e+00 0.0000000000000000e+00  6.8893034922071346e+00 3.3666079651705214e+00 0.0000000000000000e+00  6.8073758992790552e+00 3.4646471808567969e+00 0.0000000000000000e+00  6.7259383660457868e+00 3.5626863965430702e+00 0.0000000000000000e+00  6.6449908925073427e+00 3.6607256122293461e+00 0.0000000000000000e+00  6.5645334786637113e+00 3.7587648279156189e+00 0.0000000000000000e+00  6.4845661245149024e+00 3.8568040436018944e+00 0.0000000000000000e+00  6.4050888300609108e+00 3.9548432592881690e+00 0.0000000000000000e+00  6.3261015953017354e+00 4.0528824749744432e+00 0.0000000000000000e+00  6.2476044202373799e+00 4.1509216906607191e+00 0.0000000000000000e+00  6.1695973048678434e+00 4.2489609063469915e+00 0.0000000000000000e+00  6.0920802491931241e+00 4.3470001220332675e+00 0.0000000000000000e+00  6.0150532532132255e+00 4.4450393377195425e+00 0.0000000000000000e+00  5.9385163169281396e+00 4.5430785534058149e+00 0.0000000000000000e+00  5.8624694403378772e+00 4.6411177690920900e+00 0.0000000000000000e+00  5.7869126234424311e+00 4.7391569847783632e+00 0.0000000000000000e+00  5.7118458662418066e+00 4.8371962004646374e+00 0.0000000000000000e+00  5.6372691687359939e+00 4.9352354161509160e+00 0.0000000000000000e+00  5.5631825309250038e+00 5.0332746318371884e+00 0.0000000000000000e+00  5.4895859528088318e+00 5.1313138475234634e+00 0.0000000000000000e+00  5.4164794343874814e+00 5.2293530632097385e+00 0.0000000000000000e+00  5.3438629756609446e+00 5.3273922788960117e+00 0.0000000000000000e+00  5.2717365766292232e+00 5.4254314945822877e+00 0.0000000000000000e+00  5.2001002372923288e+00 5.5234707102685610e+00 0.0000000000000000e+00  5.1289539576502428e+00 5.6215099259548325e+00 0.0000000000000000e+00  5.0582977377029845e+00 5.7195491416411093e+00 0.0000000000000000e+00  4.9881315774505373e+00 5.8175883573273852e+00 0.0000000000000000e+00  4.9184554768929125e+00 5.9156275730136585e+00 0.0000000000000000e+00  4.8492694360301067e+00 6.0136667886999344e+00 0.0000000000000000e+00  4.7805734548621164e+00 6.1117060043862095e+00 0.0000000000000000e+00  4.7123675333889450e+00 6.2097452200724819e+00 0.0000000000000000e+00  4.6446516716105934e+00 6.3077844357587569e+00 0.0000000000000000e+00  4.5774258695270582e+00 6.4058236514450329e+00 0.0000000000000000e+00  4.5106901271383411e+00 6.5038628671313035e+00 0.0000000000000000e+00  4.4444444444444438e+00 6.6019020828175803e+00 0.0000000000000000e+00  4.3786888214453672e+00 6.6999412985038527e+00 0.0000000000000000e+00  4.3134232581411043e+00 6.7979805141901286e+00 0.0000000000000000e+00  4.2486477545316612e+00 6.8960197298764063e+00 0.0000000000000000e+00  4.1843623106170353e+00 6.9940589455626796e+00 0.0000000000000000e+00  4.1205669263972293e+00 7.0920981612489529e+00 0.0000000000000000e+00  4.0572616018722414e+00 7.1901373769352288e+00 0.0000000000000000e+00  3.9944463370420742e+00 7.2881765926214976e+00 0.0000000000000000e+00  3.9618000000000015e+00 7.3396343122977887e+00 0.0000000000000000e+00  3.9617999999999993e+00 7.3396343122977861e+00 0.0000000000000000e+00  3.9618000000000015e+00 7.3396343122977878e+00 0.0000000000000000e+00  3.9618000000000007e+00 7.3396343122977878e+00 0.0000000000000000e+00  3.9618000000000011e+00 7.3396343122977870e+00 0.0000000000000000e+00  3.9618000000000007e+00 7.3396343122977870e+00 0.0000000000000000e+00  3.9618000000000011e+00 7.3396343122977861e+00 0.0000000000000000e+00  3.9618000000000007e+00 7.3396343122977878e+00 0.0000000000000000e+00  3.9618000000000007e+00 7.3396343122977878e+00 0.0000000000000000e+00  3.9618000000000011e+00 7.3396343122977870e+00 0.0000000000000000e+00  3.9618000000000007e+00 7.3396343122977870e+00 0.0000000000000000e+00  3.9618000000000011e+00 7.3396343122977861e+00 0.0000000000000000e+00  3.9618000000000007e+00 7.3396343122977878e+00 0.0000000000000000e+00  3.9618000000000007e+00 7.3396343122977878e+00 0.0000000000000000e+00  3.9618000000000011e+00 7.3396343122977870e+00 0.0000000000000000e+00  3.9618000000000007e+00 7.3396343122977870e+00 0.0000000000000000e+00  3.9618000000000011e+00 7.3396343122977861e+00 0.0000000000000000e+00  3.9618000000000007e+00 7.3396343122977878e+00 0.0000000000000000e+00  3.9618000000000007e+00 7.3396343122977878e+00 0.0000000000000000e+00  3.9618000000000011e+00 7.3396343122977870e+00 0.0000000000000000e+00  3.9618000000000007e+00 7.3396343122977870e+00 0.0000000000000000e+00  3.9618000000000011e+00 7.3396343122977861e+00 0.0000000000000000e+00  3.9618000000000007e+00 7.3396343122977878e+00 0.0000000000000000e+00  3.9618000000000007e+00 7.3396343122977878e+00 0.0000000000000000e+00  3.9618000000000011e+00 7.3396343122977870e+00 0.0000000000000000e+00  3.9618000000000007e+00 7.3396343122977870e+00 0.0000000000000000e+00  3.9618000000000011e+00 7.3396343122977861e+00 0.0000000000000000e+00  3.9618000000000007e+00 7.3396343122977878e+00 0.0000000000000000e+00  3.9618000000000007e+00 7.3396343122977878e+00 0.0000000000000000e+00  3.9618000000000011e+00 7.3396343122977870e+00 0.0000000000000000e+00  3.9618000000000007e+00 7.3396343122977870e+00 0.0000000000000000e+00  3.9618000000000011e+00 7.3396343122977861e+00 0.0000000000000000e+00  3.9618000000000007e+00 7.3396343122977878e+00 0.0000000000000000e+00  3.9618000000000007e+00 7.3396343122977878e+00 0.0000000000000000e+00  3.9618000000000011e+00 7.3396343122977870e+00 0.0000000000000000e+00  3.9618000000000007e+00 7.3396343122977870e+00 0.0000000000000000e+00  3.9618000000000011e+00 7.3396343122977861e+00 0.0000000000000000e+00  3.9618000000000007e+00 7.3396343122977878e+00 0.0000000000000000e+00  3.9618000000000007e+00 7.3396343122977878e+00 0.0000000000000000e+00  3.9618000000000011e+00 7.3396343122977870e+00 0.0000000000000000e+00  3.9618000000000007e+00 7.3396343122977870e+00 0.0000000000000000e+00  3.9618000000000011e+00 7.3396343122977861e+00 0.0000000000000000e+00  3.9618000000000007e+00 7.3396343122977878e+00 0.0000000000000000e+00  3.9618000000000007e+00 7.3396343122977878e+00 0.0000000000000000e+00  3.9618000000000011e+00 7.3396343122977870e+00 0.0000000000000000e+00  3.9618000000000007e+00 7.3396343122977870e+00 0.0000000000000000e+00  3.9618000000000011e+00 7.3396343122977861e+00 0.0000000000000000e+00  3.9618000000000007e+00 7.3396343122977878e+00 0.0000000000000000e+00  3.9618000000000007e+00 7.3396343122977878e+00 0.0000000000000000e+00  3.9618000000000011e+00 7.3396343122977870e+00 0.0000000000000000e+00  3.9618000000000007e+00 7.3396343122977870e+00 0.0000000000000000e+00  3.9618000000000007e+00 7.3396343122977861e+00 0.0000000000000000e+00  3.9618000000000011e+00 7.3396343122977870e+00 0.0000000000000000e+00  3.9618000000000011e+00 7.3396343122977887e+00 0.0000000000000000e+00  3.9618000000000007e+00 7.3396343122977878e+00 0.0000000000000000e+00  3.9618000000000007e+00 7.3396343122977887e+00 0.0000000000000000e+00  3.9618000000000007e+00 7.3396343122977878e+00 0.0000000000000000e+00  3.9618000000000007e+00 7.3396343122977870e+00 0.0000000000000000e+00  3.9618000000000007e+00 7.3396343122977878e+00 0.0000000000000000e+00  9.9999999999999989e-01 2.4037033579794635e-16 0.0000000000000000e+00  1.0000000000000004e+00 -6.4407037361458459e-17 0.0000000000000000e+00  1.0000000000000000e+00 1.7257813647883658e-17 0.0000000000000000e+00  1.0000000000000002e+00 -4.6242172300772355e-18 0.0000000000000000e+00  1.0000000000000002e+00 1.2390552724252969e-18 0.0000000000000000e+00  9.9999999999999989e-01 -3.3200385962387788e-19 0.0000000000000000e+00  1.0000000000000004e+00 8.8960166070235240e-20 0.0000000000000000e+00  1.0000000000000000e+00 -2.3836804657057694e-20 0.0000000000000000e+00  1.0000000000000002e+00 6.3870525579970373e-21 0.0000000000000000e+00  1.0000000000000002e+00 -1.7114055749304683e-21 0.0000000000000000e+00  9.9999999999999989e-01 4.5856974172473301e-22 0.0000000000000000e+00  1.0000000000000004e+00 -1.2287339196849256e-22 0.0000000000000000e+00  1.0000000000000000e+00 3.2923826149229831e-23 0.0000000000000000e+00  1.0000000000000002e+00 -8.8219126284288188e-24 0.0000000000000000e+00  1.0000000000000002e+00 2.3638243644854604e-24 0.0000000000000000e+00  9.9999999999999989e-01 -6.3338482951288107e-25 0.0000000000000000e+00  1.0000000000000004e+00 1.6971495356610337e-25 0.0000000000000000e+00  1.0000000000000000e+00 -4.5474984751522130e-26 0.0000000000000000e+00  1.0000000000000002e+00 1.2184985439987979e-26 0.0000000000000000e+00  1.0000000000000002e+00 -3.2649570084298161e-27 0.0000000000000000e+00  9.9999999999999989e-01 8.7484259373109081e-28 0.0000000000000000e+00  1.0000000000000004e+00 -2.3441336649460214e-28 0.0000000000000000e+00  1.0000000000000000e+00 6.2810872247303617e-29 0.0000000000000000e+00  1.0000000000000002e+00 -1.6830122494616286e-29 0.0000000000000000e+00  1.0000000000000002e+00 4.5096177311615641e-30 0.0000000000000000e+00  9.9999999999999989e-01 -1.2083484300297017e-30 0.0000000000000000e+00  1.0000000000000004e+00 3.2377598895731772e-31 0.0000000000000000e+00  1.0000000000000000e+00 -8.6755525799549560e-32 0.0000000000000000e+00  1.0000000000000002e+00 2.3246114240885981e-32 0.0000000000000000e+00  1.0000000000000002e+00 -6.2289311639944024e-33 0.0000000000000000e+00  9.9999999999999989e-01 1.6696104150912570e-33 0.0000000000000000e+00  1.0000000000000004e+00 -4.4951049637072963e-34 0.0000000000000000e+00  1.0000000000000000e+00 1.2843157039163504e-34 0.0000000000000000e+00  1.0000000000000002e+00 -6.4215785195817486e-35 0.0000000000000000e+00  </DataArray> 
</PointData> 
</Piece>
</UnstructuredGrid>
</VTKFile>