<?xml version="1.0"?>
<VTKFile type="UnstructuredGrid"  version="0.1"  >
<UnstructuredGrid>
<Piece  NumberOfPoints="10201" NumberOfCells="20000">
<Points>
<DataArray  type="Float64"  NumberOfComponents="3"  format="ascii">-5 -5 0  -4.9 -5 0  -4.8 -5 0  -4.7 -5 0  -4.6 -5 0  -4.5 -5 0  -4.4 -5 0  -4.3 -5 0  -4.2 -5 0  -4.1 -5 0  -4 -5 0  -3.9 -5 0  -3.8 -5 0  -3.7 -5 0  -3.6 -5 0  -3.5 -5 0  -3.4 -5 0  -3.3 -5 0  -3.2 -5 0  -3.1 -5 0  -3 -5 0  -2.9 -5 0  -2.8 -5 0  -2.7 -5 0  -2.6 -5 0  -2.5 -5 0  -2.4 -5 0  -2.3 -5 0  -2.2 -5 0  -2.1 -5 0  -2 -5 0  -1.9 -5 0  -1.8 -5 0  -1.7 -5 0  -1.6 -5 0  -1.5 -5 0  -1.4 -5 0  -1.3 -5 0  -1.2 -5 0  -1.1 -5 0  -1 -5 0  -0.9000000000000004 -5 0  -0.7999999999999998 -5 0  -0.7000000000000002 -5 0  -0.5999999999999996 -5 0  -0.5 -5 0  -0.4000000000000004 -5 0  -0.2999999999999998 -5 0  -0.2000000000000002 -5 0  -0.09999999999999964 -5 0  0 -5 0  0.09999999999999964 -5 0  0.2000000000000002 -5 0  0.2999999999999998 -5 0  0.4000000000000004 -5 0  0.5 -5 0  0.5999999999999996 -5 0  0.7000000000000002 -5 0  0.7999999999999998 -5 0  0.9000000000000004 -5 0  1 -5 0  1.1 -5 0  1.2 -5 0  1.3 -5 0  1.4 -5 0  1.5 -5 0  1.6 -5 0  1.7 -5 0  1.8 -5 0  1.9 -5 0  2 -5 0  2.1 -5 0  2.2 -5 0  2.3 -5 0  2.4 -5 0  2.5 -5 0  2.6 -5 0  2.7 -5 0  2.8 -5 0  2.9 -5 0  3 -5 0  3.1 -5 0  3.199999999999999 -5 0  3.300000000000001 -5 0  3.4 -5 0  3.5 -5 0  3.6 -5 0  3.699999999999999 -5 0  3.800000000000001 -5 0  3.9 -5 0  4 -5 0  4.1 -5 0  4.199999999999999 -5 0  4.300000000000001 -5 0  4.4 -5 0  4.5 -5 0  4.6 -5 0  4.699999999999999 -5 0  4.800000000000001 -5 0  4.9 -5 0  5 -5 0  -5 -4.9 0  -4.9 -4.9 0  -4.8 -4.9 0  -4.7 -4.9 0  -4.6 -4.9 0  -4.5 -4.9 0  -4.4 -4.9 0  -4.3 -4.9 0  -4.2 -4.9 0  -4.1 -4.9 0  -4 -4.9 0  -3.9 -4.9 0  -3.8 -4.9 0  -3.7 -4.9 0  -3.6 -4.9 0  -3.5 -4.9 0  -3.4 -4.9 0  -3.3 -4.9 0  -3.2 -4.9 0  -3.1 -4.9 0  -3 -4.9 0  -2.9 -4.9 0  -2.8 -4.9 0  -2.7 -4.9 0  -2.6 -4.9 0  -2.5 -4.9 0  -2.4 -4.9 0  -2.3 -4.9 0  -2.2 -4.9 0  -2.1 -4.9 0  -2 -4.9 0  -1.9 -4.9 0  -1.8 -4.9 0  -1.7 -4.9 0  -1.6 -4.9 0  -1.5 -4.9 0  -1.4 -4.9 0  -1.3 -4.9 0  -1.2 -4.9 0  -1.1 -4.9 0  -1 -4.9 0  -0.9000000000000004 -4.9 0  -0.7999999999999998 -4.9 0  -0.7000000000000002 -4.9 0  -0.5999999999999996 -4.9 0  -0.5 -4.9 0  -0.4000000000000004 -4.9 0  -0.2999999999999998 -4.9 0  -0.2000000000000002 -4.9 0  -0.09999999999999964 -4.9 0  0 -4.9 0  0.09999999999999964 -4.9 0  0.2000000000000002 -4.9 0  0.2999999999999998 -4.9 0  0.4000000000000004 -4.9 0  0.5 -4.9 0  0.5999999999999996 -4.9 0  0.7000000000000002 -4.9 0  0.7999999999999998 -4.9 0  0.9000000000000004 -4.9 0  1 -4.9 0  1.1 -4.9 0  1.2 -4.9 0  1.3 -4.9 0  1.4 -4.9 0  1.5 -4.9 0  1.6 -4.9 0  1.7 -4.9 0  1.8 -4.9 0  1.9 -4.9 0  2 -4.9 0  2.1 -4.9 0  2.2 -4.9 0  2.3 -4.9 0  2.4 -4.9 0  2.5 -4.9 0  2.6 -4.9 0  2.7 -4.9 0  2.8 -4.9 0  2.9 -4.9 0  3 -4.9 0  3.1 -4.9 0  3.199999999999999 -4.9 0  3.300000000000001 -4.9 0  3.4 -4.9 0  3.5 -4.9 0  3.6 -4.9 0  3.699999999999999 -4.9 0  3.800000000000001 -4.9 0  3.9 -4.9 0  4 -4.9 0  4.1 -4.9 0  4.199999999999999 -4.9 0  4.300000000000001 -4.9 0  4.4 -4.9 0  4.5 -4.9 0  4.6 -4.9 0  4.699999999999999 -4.9 0  4.800000000000001 -4.9 0  4.9 -4.9 0  5 -4.9 0  -5 -4.8 0  -4.9 -4.8 0  -4.8 -4.8 0  -4.7 -4.8 0  -4.6 -4.8 0  -4.5 -4.8 0  -4.4 -4.8 0  -4.3 -4.8 0  -4.2 -4.8 0  -4.1 -4.8 0  -4 -4.8 0  -3.9 -4.8 0  -3.8 -4.8 0  -3.7 -4.8 0  -3.6 -4.8 0  -3.5 -4.8 0  -3.4 -4.8 0  -3.3 -4.8 0  -3.2 -4.8 0  -3.1 -4.8 0  -3 -4.8 0  -2.9 -4.8 0  -2.8 -4.8 0  -2.7 -4.8 0  -2.6 -4.8 0  -2.5 -4.8 0  -2.4 -4.8 0  -2.3 -4.8 0  -2.2 -4.8 0  -2.1 -4.8 0  -2 -4.8 0  -1.9 -4.8 0  -1.8 -4.8 0  -1.7 -4.8 0  -1.6 -4.8 0  -1.5 -4.8 0  -1.4 -4.8 0  -1.3 -4.8 0  -1.2 -4.8 0  -1.1 -4.8 0  -1 -4.8 0  -0.9000000000000004 -4.8 0  -0.7999999999999998 -4.8 0  -0.7000000000000002 -4.8 0  -0.5999999999999996 -4.8 0  -0.5 -4.8 0  -0.4000000000000004 -4.8 0  -0.2999999999999998 -4.8 0  -0.2000000000000002 -4.8 0  -0.09999999999999964 -4.8 0  0 -4.8 0  0.09999999999999964 -4.8 0  0.2000000000000002 -4.8 0  0.2999999999999998 -4.8 0  0.4000000000000004 -4.8 0  0.5 -4.8 0  0.5999999999999996 -4.8 0  0.7000000000000002 -4.8 0  0.7999999999999998 -4.8 0  0.9000000000000004 -4.8 0  1 -4.8 0  1.1 -4.8 0  1.2 -4.8 0  1.3 -4.8 0  1.4 -4.8 0  1.5 -4.8 0  1.6 -4.8 0  1.7 -4.8 0  1.8 -4.8 0  1.9 -4.8 0  2 -4.8 0  2.1 -4.8 0  2.2 -4.8 0  2.3 -4.8 0  2.4 -4.8 0  2.5 -4.8 0  2.6 -4.8 0  2.7 -4.8 0  2.8 -4.8 0  2.9 -4.8 0  3 -4.8 0  3.1 -4.8 0  3.199999999999999 -4.8 0  3.300000000000001 -4.8 0  3.4 -4.8 0  3.5 -4.8 0  3.6 -4.8 0  3.699999999999999 -4.8 0  3.800000000000001 -4.8 0  3.9 -4.8 0  4 -4.8 0  4.1 -4.8 0  4.199999999999999 -4.8 0  4.300000000000001 -4.8 0  4.4 -4.8 0  4.5 -4.8 0  4.6 -4.8 0  4.699999999999999 -4.8 0  4.800000000000001 -4.8 0  4.9 -4.8 0  5 -4.8 0  -5 -4.7 0  -4.9 -4.7 0  -4.8 -4.7 0  -4.7 -4.7 0  -4.6 -4.7 0  -4.5 -4.7 0  -4.4 -4.7 0  -4.3 -4.7 0  -4.2 -4.7 0  -4.1 -4.7 0  -4 -4.7 0  -3.9 -4.7 0  -3.8 -4.7 0  -3.7 -4.7 0  -3.6 -4.7 0  -3.5 -4.7 0  -3.4 -4.7 0  -3.3 -4.7 0  -3.2 -4.7 0  -3.1 -4.7 0  -3 -4.7 0  -2.9 -4.7 0  -2.8 -4.7 0  -2.7 -4.7 0  -2.6 -4.7 0  -2.5 -4.7 0  -2.4 -4.7 0  -2.3 -4.7 0  -2.2 -4.7 0  -2.1 -4.7 0  -2 -4.7 0  -1.9 -4.7 0  -1.8 -4.7 0  -1.7 -4.7 0  -1.6 -4.7 0  -1.5 -4.7 0  -1.4 -4.7 0  -1.3 -4.7 0  -1.2 -4.7 0  -1.1 -4.7 0  -1 -4.7 0  -0.9000000000000004 -4.7 0  -0.7999999999999998 -4.7 0  -0.7000000000000002 -4.7 0  -0.5999999999999996 -4.7 0  -0.5 -4.7 0  -0.4000000000000004 -4.7 0  -0.2999999999999998 -4.7 0  -0.2000000000000002 -4.7 0  -0.09999999999999964 -4.7 0  0 -4.7 0  0.09999999999999964 -4.7 0  0.2000000000000002 -4.7 0  0.2999999999999998 -4.7 0  0.4000000000000004 -4.7 0  0.5 -4.7 0  0.5999999999999996 -4.7 0  0.7000000000000002 -4.7 0  0.7999999999999998 -4.7 0  0.9000000000000004 -4.7 0  1 -4.7 0  1.1 -4.7 0  1.2 -4.7 0  1.3 -4.7 0  1.4 -4.7 0  1.5 -4.7 0  1.6 -4.7 0  1.7 -4.7 0  1.8 -4.7 0  1.9 -4.7 0  2 -4.7 0  2.1 -4.7 0  2.2 -4.7 0  2.3 -4.7 0  2.4 -4.7 0  2.5 -4.7 0  2.6 -4.7 0  2.7 -4.7 0  2.8 -4.7 0  2.9 -4.7 0  3 -4.7 0  3.1 -4.7 0  3.199999999999999 -4.7 0  3.300000000000001 -4.7 0  3.4 -4.7 0  3.5 -4.7 0  3.6 -4.7 0  3.699999999999999 -4.7 0  3.800000000000001 -4.7 0  3.9 -4.7 0  4 -4.7 0  4.1 -4.7 0  4.199999999999999 -4.7 0  4.300000000000001 -4.7 0  4.4 -4.7 0  4.5 -4.7 0  4.6 -4.7 0  4.699999999999999 -4.7 0  4.800000000000001 -4.7 0  4.9 -4.7 0  5 -4.7 0  -5 -4.6 0  -4.9 -4.6 0  -4.8 -4.6 0  -4.7 -4.6 0  -4.6 -4.6 0  -4.5 -4.6 0  -4.4 -4.6 0  -4.3 -4.6 0  -4.2 -4.6 0  -4.1 -4.6 0  -4 -4.6 0  -3.9 -4.6 0  -3.8 -4.6 0  -3.7 -4.6 0  -3.6 -4.6 0  -3.5 -4.6 0  -3.4 -4.6 0  -3.3 -4.6 0  -3.2 -4.6 0  -3.1 -4.6 0  -3 -4.6 0  -2.9 -4.6 0  -2.8 -4.6 0  -2.7 -4.6 0  -2.6 -4.6 0  -2.5 -4.6 0  -2.4 -4.6 0  -2.3 -4.6 0  -2.2 -4.6 0  -2.1 -4.6 0  -2 -4.6 0  -1.9 -4.6 0  -1.8 -4.6 0  -1.7 -4.6 0  -1.6 -4.6 0  -1.5 -4.6 0  -1.4 -4.6 0  -1.3 -4.6 0  -1.2 -4.6 0  -1.1 -4.6 0  -1 -4.6 0  -0.9000000000000004 -4.6 0  -0.7999999999999998 -4.6 0  -0.7000000000000002 -4.6 0  -0.5999999999999996 -4.6 0  -0.5 -4.6 0  -0.4000000000000004 -4.6 0  -0.2999999999999998 -4.6 0  -0.2000000000000002 -4.6 0  -0.09999999999999964 -4.6 0  0 -4.6 0  0.09999999999999964 -4.6 0  0.2000000000000002 -4.6 0  0.2999999999999998 -4.6 0  0.4000000000000004 -4.6 0  0.5 -4.6 0  0.5999999999999996 -4.6 0  0.7000000000000002 -4.6 0  0.7999999999999998 -4.6 0  0.9000000000000004 -4.6 0  1 -4.6 0  1.1 -4.6 0  1.2 -4.6 0  1.3 -4.6 0  1.4 -4.6 0  1.5 -4.6 0  1.6 -4.6 0  1.7 -4.6 0  1.8 -4.6 0  1.9 -4.6 0  2 -4.6 0  2.1 -4.6 0  2.2 -4.6 0  2.3 -4.6 0  2.4 -4.6 0  2.5 -4.6 0  2.6 -4.6 0  2.7 -4.6 0  2.8 -4.6 0  2.9 -4.6 0  3 -4.6 0  3.1 -4.6 0  3.199999999999999 -4.6 0  3.300000000000001 -4.6 0  3.4 -4.6 0  3.5 -4.6 0  3.6 -4.6 0  3.699999999999999 -4.6 0  3.800000000000001 -4.6 0  3.9 -4.6 0  4 -4.6 0  4.1 -4.6 0  4.199999999999999 -4.6 0  4.300000000000001 -4.6 0  4.4 -4.6 0  4.5 -4.6 0  4.6 -4.6 0  4.699999999999999 -4.6 0  4.800000000000001 -4.6 0  4.9 -4.6 0  5 -4.6 0  -5 -4.5 0  -4.9 -4.5 0  -4.8 -4.5 0  -4.7 -4.5 0  -4.6 -4.5 0  -4.5 -4.5 0  -4.4 -4.5 0  -4.3 -4.5 0  -4.2 -4.5 0  -4.1 -4.5 0  -4 -4.5 0  -3.9 -4.5 0  -3.8 -4.5 0  -3.7 -4.5 0  -3.6 -4.5 0  -3.5 -4.5 0  -3.4 -4.5 0  -3.3 -4.5 0  -3.2 -4.5 0  -3.1 -4.5 0  -3 -4.5 0  -2.9 -4.5 0  -2.8 -4.5 0  -2.7 -4.5 0  -2.6 -4.5 0  -2.5 -4.5 0  -2.4 -4.5 0  -2.3 -4.5 0  -2.2 -4.5 0  -2.1 -4.5 0  -2 -4.5 0  -1.9 -4.5 0  -1.8 -4.5 0  -1.7 -4.5 0  -1.6 -4.5 0  -1.5 -4.5 0  -1.4 -4.5 0  -1.3 -4.5 0  -1.2 -4.5 0  -1.1 -4.5 0  -1 -4.5 0  -0.9000000000000004 -4.5 0  -0.7999999999999998 -4.5 0  -0.7000000000000002 -4.5 0  -0.5999999999999996 -4.5 0  -0.5 -4.5 0  -0.4000000000000004 -4.5 0  -0.2999999999999998 -4.5 0  -0.2000000000000002 -4.5 0  -0.09999999999999964 -4.5 0  0 -4.5 0  0.09999999999999964 -4.5 0  0.2000000000000002 -4.5 0  0.2999999999999998 -4.5 0  0.4000000000000004 -4.5 0  0.5 -4.5 0  0.5999999999999996 -4.5 0  0.7000000000000002 -4.5 0  0.7999999999999998 -4.5 0  0.9000000000000004 -4.5 0  1 -4.5 0  1.1 -4.5 0  1.2 -4.5 0  1.3 -4.5 0  1.4 -4.5 0  1.5 -4.5 0  1.6 -4.5 0  1.7 -4.5 0  1.8 -4.5 0  1.9 -4.5 0  2 -4.5 0  2.1 -4.5 0  2.2 -4.5 0  2.3 -4.5 0  2.4 -4.5 0  2.5 -4.5 0  2.6 -4.5 0  2.7 -4.5 0  2.8 -4.5 0  2.9 -4.5 0  3 -4.5 0  3.1 -4.5 0  3.199999999999999 -4.5 0  3.300000000000001 -4.5 0  3.4 -4.5 0  3.5 -4.5 0  3.6 -4.5 0  3.699999999999999 -4.5 0  3.800000000000001 -4.5 0  3.9 -4.5 0  4 -4.5 0  4.1 -4.5 0  4.199999999999999 -4.5 0  4.300000000000001 -4.5 0  4.4 -4.5 0  4.5 -4.5 0  4.6 -4.5 0  4.699999999999999 -4.5 0  4.800000000000001 -4.5 0  4.9 -4.5 0  5 -4.5 0  -5 -4.4 0  -4.9 -4.4 0  -4.8 -4.4 0  -4.7 -4.4 0  -4.6 -4.4 0  -4.5 -4.4 0  -4.4 -4.4 0  -4.3 -4.4 0  -4.2 -4.4 0  -4.1 -4.4 0  -4 -4.4 0  -3.9 -4.4 0  -3.8 -4.4 0  -3.7 -4.4 0  -3.6 -4.4 0  -3.5 -4.4 0  -3.4 -4.4 0  -3.3 -4.4 0  -3.2 -4.4 0  -3.1 -4.4 0  -3 -4.4 0  -2.9 -4.4 0  -2.8 -4.4 0  -2.7 -4.4 0  -2.6 -4.4 0  -2.5 -4.4 0  -2.4 -4.4 0  -2.3 -4.4 0  -2.2 -4.4 0  -2.1 -4.4 0  -2 -4.4 0  -1.9 -4.4 0  -1.8 -4.
[...]
<PointData  Scalars="f_27-1"> 
<DataArray  type="Float64"  Name="f_27-1"  format="ascii">1.0010592767296751e+00  1.0030764569292483e+00  1.0063181709534257e+00  1.0119792612281306e+00  1.0210926289160127e+00  1.0329362227535104e+00  1.0471759168785657e+00  1.0611274631319596e+00  1.0729103751398983e+00  1.0800804446710213e+00  1.0823517570419625e+00  1.0797746665219170e+00  1.0740975311058341e+00  1.0661850564409543e+00  1.0577853087341222e+00  1.0488984832280772e+00  1.0405375354632280e+00  1.0321467641772439e+00  1.0243296551097216e+00  1.0165235575930340e+00  1.0092851103976408e+00  1.0020593795361232e+00  9.9551258761920181e-01  9.8901699602689419e-01  9.8329110533271802e-01  9.7765846289760938e-01  9.7286265119241733e-01  9.6818125472820904e-01  9.6440384947586300e-01  9.6076542208607651e-01  9.5808009259773941e-01  9.5556063633836130e-01  9.5400782239463089e-01  9.5259165711934779e-01  9.5212013863465450e-01  9.5165804681593880e-01  9.5211284611626201e-01  9.5234386639480106e-01  9.5347970981402752e-01  9.5408605652982126e-01  9.5562196450321080e-01  9.5630934431140335e-01  9.5799495548169167e-01  9.5852832530365317e-01  9.6019069417850800e-01  9.6038420334043428e-01  9.6193892574490492e-01  9.6168889778454969e-01  9.6307652892115159e-01  9.6235338466243625e-01  9.6353418082178255e-01  9.6232219533498453e-01  9.6329647677349750e-01  9.6159378681650454e-01  9.6237102271688313e-01  9.6021774146517291e-01  9.6079117838847983e-01  9.5829733500220615e-01  9.5868724911891656e-01  9.5599643659964595e-01  9.5631748981714260e-01  9.5364366694442615e-01  9.5407366605989896e-01  9.5172483529333485e-01  9.5251725953862543e-01  9.5083309789818560e-01  9.5227951282110446e-01  9.5156611895021681e-01  9.5392645932458087e-01  9.5437904278548635e-01  9.5781181462430787e-01  9.5949832879503538e-01  9.6403436983790813e-01  9.6690608311942594e-01  9.7250541029848314e-01  9.7643622604523272e-01  9.8304718820518866e-01  9.8791609801595237e-01  9.9547133999045556e-01  1.0011599774521724e+00  1.0095869108437878e+00  1.0159793401871449e+00  1.0251848468986351e+00  1.0321163322939955e+00  1.0418476277445783e+00  1.0490041043062235e+00  1.0587751932507252e+00  1.0654710315539171e+00  1.0739579085336100e+00  1.0781628728870949e+00  1.0822289631176507e+00  1.0799427910613268e+00  1.0748604477168262e+00  1.0626856943625655e+00  1.0489411719825958e+00  1.0332385086523121e+00  1.0210892420234599e+00  1.0114859966382050e+00  1.0061330052211319e+00  1.0030975244321760e+00  1.0009049203413889e+00  1.0030764569292496e+00  1.0042566942355171e+00  1.0079545753273702e+00  1.0139807822652420e+00  1.0231347622435778e+00  1.0343216184052828e+00  1.0472630949162025e+00  1.0594756161360461e+00  1.0698051206183565e+00  1.0761641418161341e+00  1.0785888377493926e+00  1.0767803957745825e+00  1.0721495886523509e+00  1.0652073270666904e+00  1.0574391571123618e+00  1.0489340383756904e+00  1.0406984666224548e+00  1.0323528177529535e+00  1.0245181256919031e+00  1.0167191131561337e+00  1.0095194317204426e+00  1.0023305034851189e+00  9.9585711316345527e-01  9.8943120216056424e-01  9.8374781420863722e-01  9.7822217845620651e-01  9.7347820099969729e-01  9.6890940071618803e-01  9.6523833873389364e-01  9.6171737419781611e-01  9.5916217739754694e-01  9.5677513234646461e-01  9.5531928099006669e-01  9.5401700362008290e-01  9.5358442647138697e-01  9.5317168825765752e-01  9.5360409887794317e-01  9.5380461960082485e-01  9.5485086677518671e-01  9.5538017556946830e-01  9.5676729207951072e-01  9.5736795235256733e-01  9.5888559642954996e-01  9.5933255803132456e-01  9.6084392123155971e-01  9.6096451687891193e-01  9.6240584544823238e-01  9.6210974263914584e-01  9.6341547844797581e-01  9.6269605573576711e-01  9.6381617976768419e-01  9.6264725404771589e-01  9.6361198501993517e-01  9.6196819207492323e-01  9.6278912834811226e-01  9.6073391649534623e-01  9.6137880113172047e-01  9.5903055265996417e-01  9.5951144999668614e-01  9.5698491708813171e-01  9.5742794558215272e-01  9.5489169026186715e-01  9.5543483142676000e-01  9.5320025158443467e-01  9.5403106437051843e-01  9.5240468773184284e-01  9.5381291883404551e-01  9.5306734304200702e-01  9.5532021663375932e-01  9.5567924630108547e-01  9.5894651518577734e-01  9.6053411093248842e-01  9.6488779386011614e-01  9.6769852520296462e-01  9.7314056270494587e-01  9.7705919926821838e-01  9.8353540951610419e-01  9.8841340501699193e-01  9.9580998331290338e-01  1.0015327740587814e+00  1.0097912680398680e+00  1.0162415929842237e+00  1.0252802716298703e+00  1.0322687067429750e+00  1.0417959620762192e+00  1.0488987814961581e+00  1.0582132247724254e+00  1.0645478942748343e+00  1.0723811025465670e+00  1.0760569756233174e+00  1.0792573213277989e+00  1.0762206988186995e+00  1.0709153466237926e+00  1.0598080202564562e+00  1.0481499731525346e+00  1.0344224536688011e+00  1.0234388283941918e+00  1.0137092404205432e+00  1.0081455813929079e+00  1.0038532321257241e+00  1.0030975244321765e+00  1.0063181709534257e+00  1.0079545753273695e+00  1.0128187597221165e+00  1.0199221440165427e+00  1.0289387688055778e+00  1.0383274918452647e+00  1.0474220020178540e+00  1.0547140333651368e+00  1.0605079184379584e+00  1.0643176068580655e+00  1.0665405550124105e+00  1.0666083970290641e+00  1.0648201414619982e+00  1.0607690341316787e+00  1.0552728350341893e+00  1.0482149154672251e+00  1.0407617331074634e+00  1.0326675021205738e+00  1.0249439800369957e+00  1.0172470009666486e+00  1.0100934128081316e+00  1.0031851162241763e+00  9.9693328674211790e-01  9.9079780321975031e-01  9.8549466970580890e-01  9.8028645635496536e-01  9.7594103342874439e-01  9.7184891854575384e-01  9.6863956335146140e-01  9.6570826303017265e-01  9.6373717017622917e-01  9.6191025962967847e-01  9.6103536731401096e-01  9.6016360968062675e-01  9.6010087996320237e-01  9.5991746439620473e-01  9.6038131200376520e-01  9.6054911145895872e-01  9.6134237148901636e-01  9.6157672846446784e-01  9.6254831721408085e-01  9.6270052477044810e-01  9.6371032136522883e-01  9.6372043607723989e-01  9.6469489616012893e-01  9.6451882446480908e-01  9.6546384612453773e-01  9.6501040258647086e-01  9.6597544103842115e-01  9.6521344562100797e-01  9.6613865438878777e-01  9.6516040770887401e-01  9.6598318322380750e-01  9.6478754507745490e-01  9.6558335147590446e-01  9.6410959742194680e-01  9.6491143761778753e-01  9.6323153914237081e-01  9.6396328474884396e-01  9.6223595807145357e-01  9.6286718843780439e-01  9.6113410900755603e-01  9.6179393830936155e-01  9.6012215875577367e-01  9.6087011372864706e-01  9.5952606821257458e-01  9.6049026090834178e-01  9.5976094705472581e-01  9.6125315480400275e-01  9.6141661819822655e-01  9.6378581167607891e-01  9.6509367920475120e-01  9.6854208548652621e-01  9.7112703769587660e-01  9.7569354683363141e-01  9.7951972441154678e-01  9.8520167097065459e-01  9.9012458080869847e-01  9.9691935975623658e-01  1.0028186406662660e+00  1.0105545798798807e+00  1.0171586837843851e+00  1.0255002898092513e+00  1.0323337019209968e+00  1.0409293366436541e+00  1.0476067841377337e+00  1.0559339942974979e+00  1.0613500410275205e+00  1.0671150141447743e+00  1.0680321235586574e+00  1.0681611100311574e+00  1.0634542430395904e+00  1.0594634014966700e+00  1.0524715467282306e+00  1.0468235263500381e+00  1.0380863058888870e+00  1.0300330369824577e+00  1.0205019404209599e+00  1.0135019448160276e+00  1.0081455813929083e+00  1.0061330052211317e+00  1.0119792612281320e+00  1.0139807822652427e+00  1.0199221440165440e+00  1.0270546072557942e+00  1.0347238776702405e+00  1.0408039484505072e+00  1.0451091824024901e+00  1.0473539026741008e+00  1.0493447808059020e+00  1.0511095347270900e+00  1.0534922087698972e+00  1.0553434534203128e+00  1.0561190806743272e+00  1.0548052417310645e+00  1.0514992466443678e+00  1.0462623215202602e+00  1.0399480430044206e+00  1.0327309235184285e+00  1.0256239310884412e+00  1.0182428294683543e+00  1.0114860352684327e+00  1.0048701728543170e+00  9.9883138252878612e-01  9.9318896141452717e-01  9.8820932000295625e-01  9.8358683913535727e-01  9.7988772985688077e-01  9.7648171261900485e-01  9.7403100762362316e-01  9.7186745799778385e-01  9.7051902891319652e-01  9.6933568423742955e-01  9.6883994023048015e-01  9.6824668490099797e-01  9.6826889381223047e-01  9.6792860672885561e-01  9.6816610584993867e-01  9.6790420515895048e-01  9.6818418695498243e-01  9.6789431259436776e-01  9.6822412586492190e-01  9.6781600580671157e-01  9.6827352772355602e-01  9.6773483270126404e-01  9.6832479333919597e-01  9.6769551737070425e-01  9.6834830607517641e-01  9.6768282982709541e-01  9.6839790587861785e-01  9.6760875351738096e-01  9.6848049676962078e-01  9.6751320390226070e-01  9.6846087472749276e-01  9.6746390519774461e-01  9.6836030668408424e-01  9.6738564155187834e-01  9.6829785098389620e-01  9.6727605449750720e-01  9.6826962059659605e-01  9.6723305124695180e-01  9.6818393318481089e-01  9.6730420147853347e-01  9.6811599034853901e-01  9.6736472548440411e-01  9.6815165006952630e-01  9.6750566869759480e-01  9.6830470927830004e-01  9.6795310111347410e-01  9.6886744635161848e-01  9.6909096563162900e-01  9.7044632301604794e-01  9.7154829741629278e-01  9.7378664456582531e-01  9.7607972518775254e-01  9.7951448140804798e-01  9.8321431437415963e-01  9.8790583612351834e-01  9.9296126773889959e-01  9.9877625097250078e-01  1.0047761363560539e+00  1.0114165769611847e+00  1.0180006759994342e+00  1.0251987674549050e+00  1.0321605421683646e+00  1.0395696753797872e+00  1.0459339389042748e+00  1.0518575219041106e+00  1.0550859411338176e+00  1.0570881344074581e+00  1.0559375515005034e+00  1.0546564274689727e+00  1.0514428553326340e+00  1.0497592355144392e+00  1.0465378818251359e+00  1.0447344015733233e+00  1.0399876802558843e+00  1.0353016982449792e+00  1.0271208933210814e+00  1.0205019404209599e+00  1.0137092404205423e+00  1.0114859966382050e+00  1.0210926289160125e+00  1.0231347622435769e+00  1.0289387688055769e+00  1.0347238776702392e+00  1.0397526609520567e+00  1.0420286942097405e+00  1.0420503058335666e+00  1.0406422897647563e+00  1.0392890814773732e+00  1.0384975500304880e+00  1.0391171335069200e+00  1.0402196318457551e+00  1.0417382701085938e+00  1.0423540762314671e+00  1.0419408677712807e+00  1.0397674552387406e+00  1.0362333549475502e+00  1.0313445771267593e+00  1.0256773949775089e+00  1.0194310926053809e+00  1.0133248332647691e+00  1.0071233032754410e+00  1.0017074458437780e+00  9.9661287045981228e-01  9.9239009832617209e-01  9.8876660149082896e-01  9.8595517698255664e-01  9.8362282556355607e-01  9.8209730527319206e-01  9.8074964799771713e-01  9.8010286169684169e-01  9.7935596392797730e-01  9.7910856622361675e-01  9.7858752719484454e-01  9.7841124659053813e-01  9.7784423155427702e-01  9.7766389080637917e-01  9.7690934477178271e-01  9.7674704087591724e-01  9.7587538395988394e-01  9.7574358065390610e-01  9.7488095921855034e-01  9.7484455847428764e-01  9.7398759701681525e-01  9.7414939288480895e-01  9.7325079770142975e-01  9.7367736136564675e-01  9.7277256970375481e-01  9.7334152849655109e-01  9.7256050123688131e-01  9.7319302660790619e-01  9.7247384326492203e-01  9.7330698393157655e-01  9.7257267645040468e-01  9.7356316486262862e-01  9.7297999062345730e-01  9.7395399399501736e-01  9.7362079907850430e-01  9.7458441648691685e-01  9.7441666736710397e-01  9.7547669358180278e-01  9.7543680346168304e-01  9.7644388355864298e-01  9.7666290841404235e-01  9.7744744290697305e-01  9.7781573165985225e-01  9.7840991274889877e-01  9.7880218563209387e-01  9.7924358247253718e-01  9.7977702411870460e-01  9.8022178600658239e-01  9.8126084183021089e-01  9.8215798557774248e-01  9.8414133411774796e-01  9.8605546729894245e-01  9.8930702796090442e-01  9.9252392183371774e-01  9.9711565753317721e-01  1.0014922332266238e+00  1.0072373811819693e+00  1.0125927924974005e+00  1.0190895320742341e+00  1.0250201325437487e+00  1.0314324962883628e+00  1.0365782234413055e+00  1.0410307425297514e+00  1.0433082786428265e+00  1.0440481005003734e+00  1.0429698027030905e+00  1.0409252462724856e+00  1.0390119876354353e+00  1.0375752045180464e+00  1.0379521510434644e+00  1.0387403298111577e+00  1.0407542938376766e+00  1.0408299631687585e+00  1.0400589272467515e+00  1.0353016982449792e+00  1.0300330369824571e+00  1.0234388283941913e+00  1.0210892420234585e+00  1.0329362227535113e+00  1.0343216184052839e+00  1.0383274918452661e+00  1.0408039484505076e+00  1.0420286942097412e+00  1.0402873449417693e+00  1.0372524099451064e+00  1.0333248365391399e+00  1.0299412574295232e+00  1.0273990996923776e+00  1.0262982739584008e+00  1.0264259786387460e+00  1.0278542762789860e+00  1.0297123918539290e+00  1.0313942815085517e+00  1.0318660151722221e+00  1.0309956833560212e+00  1.0283452668418938e+00  1.0246508199948055e+00  1.0200143618819213e+00  1.0151055843547134e+00  1.0102514746362874e+00  1.0058435002378150e+00  1.0018651404993524e+00  9.9874682616421551e-01  9.9609884295647544e-01  9.9424678791755428e-01  9.9280095389767720e-01  9.9186423385979050e-01  9.9108484434847344e-01  9.9056145834852738e-01  9.8985741602523680e-01  9.8936801956884701e-01  9.8841098719222753e-01  9.8775878135792883e-01  9.8658049950455251e-01  9.8574157810749974e-01  9.8447480433495249e-01  9.8367990057627064e-01  9.8235285402735195e-01  9.8182713055622628e-01  9.8050480257684536e-01  9.8025851179777901e-01  9.7907001128778648e-01  9.7905697391873525e-01  9.7803970839658894e-01  9.7827462278335864e-01  9.7730249274670156e-01  9.7787682372582674e-01  9.7693131746852191e-01  9.7769645072920952e-01  9.7699610385881419e-01  9.7777677877343960e-01  9.7732091668304555e-01  9.7822916998745857e-01  9.7791759778130183e-01  9.7895369030964619e-01  9.7893563759100122e-01  9.7993458800948263e-01  9.8037012494644371e-01  9.8127176127743965e-01  9.8205988320563509e-01  9.8299272189918185e-01  9.8402150297008251e-01  9.8486343719858493e-01  9.8620110515278847e-01  9.8679063771482312e-01  9.8831244068028823e-01  9.8863044410415524e-01  9.9014818137883776e-01  9.9024618073915471e-01  9.9179889355120132e-01  9.9184363561649491e-01  9.9378991792183691e-01  9.9423546323901479e-01  9.9704388560207824e-01  9.9845257659642073e-01  1.0024251292506436e+00  1.0050994808069953e+00  1.0103190212894082e+00  1.0140042246348846e+00  1.0199294667830554e+00  1.0236410211683156e+00  1.0286053246785039e+00  1.0303755181022105e+00  1.0323518073626226e+00  1.0309061319642010e+00  1.0300750797532434e+00  1.0273438427852439e+00  1.0268568887147880e+00  1.0263780545385717e+00  1.0284873541834174e+00  1.0307417905531162e+00  1.0341594021737051e+00  1.0370490280509830e+00  1.0394521938257937e+00  1.0408299631687592e+00  1.0399876802558834e+00  1.0380863058888870e+00  1.0344224536688007e+00  1.0332385086523119e+00  1.0471759168785653e+00  1.0472630949162025e+00  1.0474220020178533e+00  1.0451091824024894e+00  1.0420503058335664e+00  1.0372524099451055e+00  1.0323587953805458e+00  1.0274287993746527e+00  1.0231792179686088e+00  1.0193785887435263e+00  1.0166630505702714e+00  1.0147984638943908e+00  1.0143901778264990e+00  1.0148913314004315e+00  1.0163552859351939e+00  1.0180382348906383e+00  1.0193948206992858e+00  1.0199390562887845e+00  1.0195471256375541e+00  1.0180093433006308e+00  1.0160319001789504e+00  1.0134622444821941e+00  1.0109883409072560e+00  1.0086634111479544e+00  1.0067451871961399e+00  1.0052346211215972e+00  1.0042034708072272e+00  1.0033440056677354e+00  1.0027750297525855e+00  1.0020298067259232e+00  1.0013340874133116e+00  1.0003439231740650e+00  9.9927389281053081e-01  9.9792068134762968e-01  9.9669967754595523e-01  9.9506321000443376e-01  9.9395871655468837e-01  9.9233296840445384e-01  9.9137527828776661e-01  9.8995336642082232e-01  9.8922948411629763e-01  9.8793407467674987e-01  9.8759490577151543e-01  9.8633403235834871e-01  9.8635254750189361e-01  9.8517709672419262e-01  9.8540025155283895e-01  9.8445786011895575e-01  9.8483579230905760e-01  9.8403178980503236e-01  9.8470886746730291e-01  9.8397544506122414e-01  9.8483022767782746e-01  9.8444551373929823e-01  9.8525580197512796e-01  9.8531019890461202e-01  9.8614623775100807e-01  9.8653500219597434e-01  9.8742826235608838e-01  9.8820014141257961e-01  9.8900954232996263e-01  9.9034244703680119e-01  9.9098371278722619e-01  9.9278228559658077e-01  9.9340000490580038e-01  9.9550650636625526e-01  9.9603808962470164e-01  9.9841508958317615e-01  9.9870776065848177e-01  1.0011949629794505e+00  1.0011446418528078e+00  1.0034361211970797e+00  1.0030139778435800e+00  1.0050265114640669e+00  1.0043957475003940e+00  1.0065415362260706e+00  1.0063062398182656e+00  1.0092920878506351e+00  1.0101240216996326e+00  1.0140843066619591e+00  1.0156214543913833e+00  1.0194919999258298e+00  1.0199483410990184e+00  1.0218348415443252e+00  1.0197722195606218e+00  1.0193033405011374e+00  1.0158702703773821e+00  1.0153219900349344e+00  1.0132241241796944e+00  1.0148519283831128e+00  1.0152953279647932e+00  1.0192329894937482e+00  1.0219132455372011e+00  1.0274193440541590e+00  1.0314144077146281e+00  1.0370490280509834e+00  1.0407542938376750e+00  1.0447344015733231e+00  1.0468235263500376e+00  1.0481499731525348e+00  1.0489411719825961e+00  1.0611274631319592e+00  1.0594756161360459e+00  1.0547140333651366e+00  1.0473539026741017e+00  1.0406422897647569e+00  1.0333248365391405e+00  1.0274287993746531e+00  1.0218357462652647e+00  1.0167965510699706e+00  1.0122167298059535e+00  1.0082557577197833e+00  1.0051221240881112e+00  1.0032088129255792e+00  1.0025064641352859e+00  1.0034339569251054e+00  1.0053294892082743e+00  1.0081138147704412e+00  1.0109420910352258e+00  1.0132884966432099e+00  1.0149982036372653e+00  1.0158604789002699e+00  1.0160812270033071e+00  1.0161014214465516e+00  1.0158263525082607e+00  1.0156858627876251e+00  1.0154339476406915e+00  1.0150867358735771e+00  1.0145672729951074e+00  1.0137187146028657e+00  1.0125723100799959e+00  1.0112319799060296e+00  1.0095090103002808e+00  1.0078779250444110e+00  1.0060283942252151e+00  1.0043419339616986e+00  1.0026224341032512e+00  1.0011937377603393e+00  9.9950479399196357e-01  9.9849295213427069e-01  9.9686789087428240e-01  9.9614408073914018e-01  9.9470437708833515e-01  9.9419395799623922e-01  9.9288376586186566e-01  9.9270063752868698e-01  9.9142633247049605e-01  9.9166326176708142e-01  9.9046018768421262e-01  9.9092738865932595e-01  9.9004879904445331e-01  9.9058893288720040e-01  9.9002638542068289e-01  9.9079366259626578e-01  9.9044669787052575e-01  9.9133643085290124e-01  9.9145083318959770e-01  9.9220258692670549e-01  9.9291770628792431e-01  9.9354840129846700e-01  9.9480194610063244e-01  9.9541848640732622e-01  9.9716053317284492e-01  9.9768181778030907e-01  1.0000347509430130e+00  1.0003853449458766e+00  1.0032391821466733e+00  1.0035464467974573e+00  1.0066919407386876e+00  1.0069371073227451e+00  1.0101904410218014e+00  1.0101587096734861e+00  1.0132734407943402e+00  1.0127733963668979e+00  1.0154020813343081e+00  1.0144066673015306e+00  1.0165078662161093e+00  1.0152267420920027e+00  1.0171002403261136e+00  1.0156918313955394e+00  1.0172530925182288e+00  1.0152736002034799e+00  1.0156269543945511e+00  1.0122314091085871e+00  1.0110852762347586e+00  1.0067133305588492e+00  1.0054868969190689e+00  1.0021006131418468e+00  1.0028288698054777e+00  1.0021024262291260e+00  1.0057095758674379e+00  1.0077308633565627e+00  1.0135890764342701e+00  1.0170820492051607e+00  1.0236302734156555e+00  1.0274193440541595e+00  1.0341594021737042e+00  1.0387403298111579e+00  1.0465378818251354e+00  1.0524715467282304e+00  1.0598080202564562e+00  1.0626856943625660e+00  1.0729103751398983e+00  1.0698051206183563e+00  1.0605079184379580e+00  1.0493447808059013e+00  1.0392890814773730e+00  1.0299412574295217e+00  1.0231792179686081e+00  1.0167965510699708e+00  1.0115812427079010e+00  1.0066514392734431e+00  1.0022921231327944e+00  9.9846143650985464e-01  9.9543018349047940e-01  9.9336543296922830e-01  9.9249951469473174e-01  9.9291623074567337e-01  9.9485099798560461e-01  9.9786309701652742e-01  1.0020030152815769e+00  1.0064748911042170e+00  1.0110186916803099e+00  1.0152756207243