<?xml version="1.0"?>
<VTKFile type="UnstructuredGrid"  version="0.1"  >
<UnstructuredGrid>
<Piece  NumberOfPoints="10201" NumberOfCells="20000">
<Points>
<DataArray  type="Float64"  NumberOfComponents="3"  format="ascii">-5 -5 0  -4.9 -5 0  -4.8 -5 0  -4.7 -5 0  -4.6 -5 0  -4.5 -5 0  -4.4 -5 0  -4.3 -5 0  -4.2 -5 0  -4.1 -5 0  -4 -5 0  -3.9 -5 0  -3.8 -5 0  -3.7 -5 0  -3.6 -5 0  -3.5 -5 0  -3.4 -5 0  -3.3 -5 0  -3.2 -5 0  -3.1 -5 0  -3 -5 0  -2.9 -5 0  -2.8 -5 0  -2.7 -5 0  -2.6 -5 0  -2.5 -5 0  -2.4 -5 0  -2.3 -5 0  -2.2 -5 0  -2.1 -5 0  -2 -5 0  -1.9 -5 0  -1.8 -5 0  -1.7 -5 0  -1.6 -5 0  -1.5 -5 0  -1.4 -5 0  -1.3 -5 0  -1.2 -5 0  -1.1 -5 0  -1 -5 0  -0.9000000000000004 -5 0  -0.7999999999999998 -5 0  -0.7000000000000002 -5 0  -0.5999999999999996 -5 0  -0.5 -5 0  -0.4000000000000004 -5 0  -0.2999999999999998 -5 0  -0.2000000000000002 -5 0  -0.09999999999999964 -5 0  0 -5 0  0.09999999999999964 -5 0  0.2000000000000002 -5 0  0.2999999999999998 -5 0  0.4000000000000004 -5 0  0.5 -5 0  0.5999999999999996 -5 0  0.7000000000000002 -5 0  0.7999999999999998 -5 0  0.9000000000000004 -5 0  1 -5 0  1.1 -5 0  1.2 -5 0  1.3 -5 0  1.4 -5 0  1.5 -5 0  1.6 -5 0  1.7 -5 0  1.8 -5 0  1.9 -5 0  2 -5 0  2.1 -5 0  2.2 -5 0  2.3 -5 0  2.4 -5 0  2.5 -5 0  2.6 -5 0  2.7 -5 0  2.8 -5 0  2.9 -5 0  3 -5 0  3.1 -5 0  3.199999999999999 -5 0  3.300000000000001 -5 0  3.4 -5 0  3.5 -5 0  3.6 -5 0  3.699999999999999 -5 0  3.800000000000001 -5 0  3.9 -5 0  4 -5 0  4.1 -5 0  4.199999999999999 -5 0  4.300000000000001 -5 0  4.4 -5 0  4.5 -5 0  4.6 -5 0  4.699999999999999 -5 0  4.800000000000001 -5 0  4.9 -5 0  5 -5 0  -5 -4.9 0  -4.9 -4.9 0  -4.8 -4.9 0  -4.7 -4.9 0  -4.6 -4.9 0  -4.5 -4.9 0  -4.4 -4.9 0  -4.3 -4.9 0  -4.2 -4.9 0  -4.1 -4.9 0  -4 -4.9 0  -3.9 -4.9 0  -3.8 -4.9 0  -3.7 -4.9 0  -3.6 -4.9 0  -3.5 -4.9 0  -3.4 -4.9 0  -3.3 -4.9 0  -3.2 -4.9 0  -3.1 -4.9 0  -3 -4.9 0  -2.9 -4.9 0  -2.8 -4.9 0  -2.7 -4.9 0  -2.6 -4.9 0  -2.5 -4.9 0  -2.4 -4.9 0  -2.3 -4.9 0  -2.2 -4.9 0  -2.1 -4.9 0  -2 -4.9 0  -1.9 -4.9 0  -1.8 -4.9 0  -1.7 -4.9 0  -1.6 -4.9 0  -1.5 -4.9 0  -1.4 -4.9 0  -1.3 -4.9 0  -1.2 -4.9 0  -1.1 -4.9 0  -1 -4.9 0  -0.9000000000000004 -4.9 0  -0.7999999999999998 -4.9 0  -0.7000000000000002 -4.9 0  -0.5999999999999996 -4.9 0  -0.5 -4.9 0  -0.4000000000000004 -4.9 0  -0.2999999999999998 -4.9 0  -0.2000000000000002 -4.9 0  -0.09999999999999964 -4.9 0  0 -4.9 0  0.09999999999999964 -4.9 0  0.2000000000000002 -4.9 0  0.2999999999999998 -4.9 0  0.4000000000000004 -4.9 0  0.5 -4.9 0  0.5999999999999996 -4.9 0  0.7000000000000002 -4.9 0  0.7999999999999998 -4.9 0  0.9000000000000004 -4.9 0  1 -4.9 0  1.1 -4.9 0  1.2 -4.9 0  1.3 -4.9 0  1.4 -4.9 0  1.5 -4.9 0  1.6 -4.9 0  1.7 -4.9 0  1.8 -4.9 0  1.9 -4.9 0  2 -4.9 0  2.1 -4.9 0  2.2 -4.9 0  2.3 -4.9 0  2.4 -4.9 0  2.5 -4.9 0  2.6 -4.9 0  2.7 -4.9 0  2.8 -4.9 0  2.9 -4.9 0  3 -4.9 0  3.1 -4.9 0  3.199999999999999 -4.9 0  3.300000000000001 -4.9 0  3.4 -4.9 0  3.5 -4.9 0  3.6 -4.9 0  3.699999999999999 -4.9 0  3.800000000000001 -4.9 0  3.9 -4.9 0  4 -4.9 0  4.1 -4.9 0  4.199999999999999 -4.9 0  4.300000000000001 -4.9 0  4.4 -4.9 0  4.5 -4.9 0  4.6 -4.9 0  4.699999999999999 -4.9 0  4.800000000000001 -4.9 0  4.9 -4.9 0  5 -4.9 0  -5 -4.8 0  -4.9 -4.8 0  -4.8 -4.8 0  -4.7 -4.8 0  -4.6 -4.8 0  -4.5 -4.8 0  -4.4 -4.8 0  -4.3 -4.8 0  -4.2 -4.8 0  -4.1 -4.8 0  -4 -4.8 0  -3.9 -4.8 0  -3.8 -4.8 0  -3.7 -4.8 0  -3.6 -4.8 0  -3.5 -4.8 0  -3.4 -4.8 0  -3.3 -4.8 0  -3.2 -4.8 0  -3.1 -4.8 0  -3 -4.8 0  -2.9 -4.8 0  -2.8 -4.8 0  -2.7 -4.8 0  -2.6 -4.8 0  -2.5 -4.8 0  -2.4 -4.8 0  -2.3 -4.8 0  -2.2 -4.8 0  -2.1 -4.8 0  -2 -4.8 0  -1.9 -4.8 0  -1.8 -4.8 0  -1.7 -4.8 0  -1.6 -4.8 0  -1.5 -4.8 0  -1.4 -4.8 0  -1.3 -4.8 0  -1.2 -4.8 0  -1.1 -4.8 0  -1 -4.8 0  -0.9000000000000004 -4.8 0  -0.7999999999999998 -4.8 0  -0.7000000000000002 -4.8 0  -0.5999999999999996 -4.8 0  -0.5 -4.8 0  -0.4000000000000004 -4.8 0  -0.2999999999999998 -4.8 0  -0.2000000000000002 -4.8 0  -0.09999999999999964 -4.8 0  0 -4.8 0  0.09999999999999964 -4.8 0  0.2000000000000002 -4.8 0  0.2999999999999998 -4.8 0  0.4000000000000004 -4.8 0  0.5 -4.8 0  0.5999999999999996 -4.8 0  0.7000000000000002 -4.8 0  0.7999999999999998 -4.8 0  0.9000000000000004 -4.8 0  1 -4.8 0  1.1 -4.8 0  1.2 -4.8 0  1.3 -4.8 0  1.4 -4.8 0  1.5 -4.8 0  1.6 -4.8 0  1.7 -4.8 0  1.8 -4.8 0  1.9 -4.8 0  2 -4.8 0  2.1 -4.8 0  2.2 -4.8 0  2.3 -4.8 0  2.4 -4.8 0  2.5 -4.8 0  2.6 -4.8 0  2.7 -4.8 0  2.8 -4.8 0  2.9 -4.8 0  3 -4.8 0  3.1 -4.8 0  3.199999999999999 -4.8 0  3.300000000000001 -4.8 0  3.4 -4.8 0  3.5 -4.8 0  3.6 -4.8 0  3.699999999999999 -4.8 0  3.800000000000001 -4.8 0  3.9 -4.8 0  4 -4.8 0  4.1 -4.8 0  4.199999999999999 -4.8 0  4.300000000000001 -4.8 0  4.4 -4.8 0  4.5 -4.8 0  4.6 -4.8 0  4.699999999999999 -4.8 0  4.800000000000001 -4.8 0  4.9 -4.8 0  5 -4.8 0  -5 -4.7 0  -4.9 -4.7 0  -4.8 -4.7 0  -4.7 -4.7 0  -4.6 -4.7 0  -4.5 -4.7 0  -4.4 -4.7 0  -4.3 -4.7 0  -4.2 -4.7 0  -4.1 -4.7 0  -4 -4.7 0  -3.9 -4.7 0  -3.8 -4.7 0  -3.7 -4.7 0  -3.6 -4.7 0  -3.5 -4.7 0  -3.4 -4.7 0  -3.3 -4.7 0  -3.2 -4.7 0  -3.1 -4.7 0  -3 -4.7 0  -2.9 -4.7 0  -2.8 -4.7 0  -2.7 -4.7 0  -2.6 -4.7 0  -2.5 -4.7 0  -2.4 -4.7 0  -2.3 -4.7 0  -2.2 -4.7 0  -2.1 -4.7 0  -2 -4.7 0  -1.9 -4.7 0  -1.8 -4.7 0  -1.7 -4.7 0  -1.6 -4.7 0  -1.5 -4.7 0  -1.4 -4.7 0  -1.3 -4.7 0  -1.2 -4.7 0  -1.1 -4.7 0  -1 -4.7 0  -0.9000000000000004 -4.7 0  -0.7999999999999998 -4.7 0  -0.7000000000000002 -4.7 0  -0.5999999999999996 -4.7 0  -0.5 -4.7 0  -0.4000000000000004 -4.7 0  -0.2999999999999998 -4.7 0  -0.2000000000000002 -4.7 0  -0.09999999999999964 -4.7 0  0 -4.7 0  0.09999999999999964 -4.7 0  0.2000000000000002 -4.7 0  0.2999999999999998 -4.7 0  0.4000000000000004 -4.7 0  0.5 -4.7 0  0.5999999999999996 -4.7 0  0.7000000000000002 -4.7 0  0.7999999999999998 -4.7 0  0.9000000000000004 -4.7 0  1 -4.7 0  1.1 -4.7 0  1.2 -4.7 0  1.3 -4.7 0  1.4 -4.7 0  1.5 -4.7 0  1.6 -4.7 0  1.7 -4.7 0  1.8 -4.7 0  1.9 -4.7 0  2 -4.7 0  2.1 -4.7 0  2.2 -4.7 0  2.3 -4.7 0  2.4 -4.7 0  2.5 -4.7 0  2.6 -4.7 0  2.7 -4.7 0  2.8 -4.7 0  2.9 -4.7 0  3 -4.7 0  3.1 -4.7 0  3.199999999999999 -4.7 0  3.300000000000001 -4.7 0  3.4 -4.7 0  3.5 -4.7 0  3.6 -4.7 0  3.699999999999999 -4.7 0  3.800000000000001 -4.7 0  3.9 -4.7 0  4 -4.7 0  4.1 -4.7 0  4.199999999999999 -4.7 0  4.300000000000001 -4.7 0  4.4 -4.7 0  4.5 -4.7 0  4.6 -4.7 0  4.699999999999999 -4.7 0  4.800000000000001 -4.7 0  4.9 -4.7 0  5 -4.7 0  -5 -4.6 0  -4.9 -4.6 0  -4.8 -4.6 0  -4.7 -4.6 0  -4.6 -4.6 0  -4.5 -4.6 0  -4.4 -4.6 0  -4.3 -4.6 0  -4.2 -4.6 0  -4.1 -4.6 0  -4 -4.6 0  -3.9 -4.6 0  -3.8 -4.6 0  -3.7 -4.6 0  -3.6 -4.6 0  -3.5 -4.6 0  -3.4 -4.6 0  -3.3 -4.6 0  -3.2 -4.6 0  -3.1 -4.6 0  -3 -4.6 0  -2.9 -4.6 0  -2.8 -4.6 0  -2.7 -4.6 0  -2.6 -4.6 0  -2.5 -4.6 0  -2.4 -4.6 0  -2.3 -4.6 0  -2.2 -4.6 0  -2.1 -4.6 0  -2 -4.6 0  -1.9 -4.6 0  -1.8 -4.6 0  -1.7 -4.6 0  -1.6 -4.6 0  -1.5 -4.6 0  -1.4 -4.6 0  -1.3 -4.6 0  -1.2 -4.6 0  -1.1 -4.6 0  -1 -4.6 0  -0.9000000000000004 -4.6 0  -0.7999999999999998 -4.6 0  -0.7000000000000002 -4.6 0  -0.5999999999999996 -4.6 0  -0.5 -4.6 0  -0.4000000000000004 -4.6 0  -0.2999999999999998 -4.6 0  -0.2000000000000002 -4.6 0  -0.09999999999999964 -4.6 0  0 -4.6 0  0.09999999999999964 -4.6 0  0.2000000000000002 -4.6 0  0.2999999999999998 -4.6 0  0.4000000000000004 -4.6 0  0.5 -4.6 0  0.5999999999999996 -4.6 0  0.7000000000000002 -4.6 0  0.7999999999999998 -4.6 0  0.9000000000000004 -4.6 0  1 -4.6 0  1.1 -4.6 0  1.2 -4.6 0  1.3 -4.6 0  1.4 -4.6 0  1.5 -4.6 0  1.6 -4.6 0  1.7 -4.6 0  1.8 -4.6 0  1.9 -4.6 0  2 -4.6 0  2.1 -4.6 0  2.2 -4.6 0  2.3 -4.6 0  2.4 -4.6 0  2.5 -4.6 0  2.6 -4.6 0  2.7 -4.6 0  2.8 -4.6 0  2.9 -4.6 0  3 -4.6 0  3.1 -4.6 0  3.199999999999999 -4.6 0  3.300000000000001 -4.6 0  3.4 -4.6 0  3.5 -4.6 0  3.6 -4.6 0  3.699999999999999 -4.6 0  3.800000000000001 -4.6 0  3.9 -4.6 0  4 -4.6 0  4.1 -4.6 0  4.199999999999999 -4.6 0  4.300000000000001 -4.6 0  4.4 -4.6 0  4.5 -4.6 0  4.6 -4.6 0  4.699999999999999 -4.6 0  4.800000000000001 -4.6 0  4.9 -4.6 0  5 -4.6 0  -5 -4.5 0  -4.9 -4.5 0  -4.8 -4.5 0  -4.7 -4.5 0  -4.6 -4.5 0  -4.5 -4.5 0  -4.4 -4.5 0  -4.3 -4.5 0  -4.2 -4.5 0  -4.1 -4.5 0  -4 -4.5 0  -3.9 -4.5 0  -3.8 -4.5 0  -3.7 -4.5 0  -3.6 -4.5 0  -3.5 -4.5 0  -3.4 -4.5 0  -3.3 -4.5 0  -3.2 -4.5 0  -3.1 -4.5 0  -3 -4.5 0  -2.9 -4.5 0  -2.8 -4.5 0  -2.7 -4.5 0  -2.6 -4.5 0  -2.5 -4.5 0  -2.4 -4.5 0  -2.3 -4.5 0  -2.2 -4.5 0  -2.1 -4.5 0  -2 -4.5 0  -1.9 -4.5 0  -1.8 -4.5 0  -1.7 -4.5 0  -1.6 -4.5 0  -1.5 -4.5 0  -1.4 -4.5 0  -1.3 -4.5 0  -1.2 -4.5 0  -1.1 -4.5 0  -1 -4.5 0  -0.9000000000000004 -4.5 0  -0.7999999999999998 -4.5 0  -0.7000000000000002 -4.5 0  -0.5999999999999996 -4.5 0  -0.5 -4.5 0  -0.4000000000000004 -4.5 0  -0.2999999999999998 -4.5 0  -0.2000000000000002 -4.5 0  -0.09999999999999964 -4.5 0  0 -4.5 0  0.09999999999999964 -4.5 0  0.2000000000000002 -4.5 0  0.2999999999999998 -4.5 0  0.4000000000000004 -4.5 0  0.5 -4.5 0  0.5999999999999996 -4.5 0  0.7000000000000002 -4.5 0  0.7999999999999998 -4.5 0  0.9000000000000004 -4.5 0  1 -4.5 0  1.1 -4.5 0  1.2 -4.5 0  1.3 -4.5 0  1.4 -4.5 0  1.5 -4.5 0  1.6 -4.5 0  1.7 -4.5 0  1.8 -4.5 0  1.9 -4.5 0  2 -4.5 0  2.1 -4.5 0  2.2 -4.5 0  2.3 -4.5 0  2.4 -4.5 0  2.5 -4.5 0  2.6 -4.5 0  2.7 -4.5 0  2.8 -4.5 0  2.9 -4.5 0  3 -4.5 0  3.1 -4.5 0  3.199999999999999 -4.5 0  3.300000000000001 -4.5 0  3.4 -4.5 0  3.5 -4.5 0  3.6 -4.5 0  3.699999999999999 -4.5 0  3.800000000000001 -4.5 0  3.9 -4.5 0  4 -4.5 0  4.1 -4.5 0  4.199999999999999 -4.5 0  4.300000000000001 -4.5 0  4.4 -4.5 0  4.5 -4.5 0  4.6 -4.5 0  4.699999999999999 -4.5 0  4.800000000000001 -4.5 0  4.9 -4.5 0  5 -4.5 0  -5 -4.4 0  -4.9 -4.4 0  -4.8 -4.4 0  -4.7 -4.4 0  -4.6 -4.4 0  -4.5 -4.4 0  -4.4 -4.4 0  -4.3 -4.4 0  -4.2 -4.4 0  -4.1 -4.4 0  -4 -4.4 0  -3.9 -4.4 0  -3.8 -4.4 0  -3.7 -4.4 0  -3.6 -4.4 0  -3.5 -4.4 0  -3.4 -4.4 0  -3.3 -4.4 0  -3.2 -4.4 0  -3.1 -4.4 0  -3 -4.4 0  -2.9 -4.4 0  -2.8 -4.4 0  -2.7 -4.4 0  -2.6 -4.4 0  -2.5 -4.4 0  -2.4 -4.4 0  -2.3 -4.4 0  -2.2 -4.4 0  -2.1 -4.4 0  -2 -4.4 0  -1.9 -4.4 0  -1.8 -4.
[...]
<PointData  Scalars="f_27-1"> 
<DataArray  type="Float64"  Name="f_27-1"  format="ascii">1.0000016982581468e+00  9.9999930607870335e-01  1.0000007011711165e+00  9.9999981048740672e-01  1.0000006785021920e+00  1.0000002212997676e+00  1.0000004671874743e+00  1.0000001478526308e+00  9.9999949009373823e-01  9.9999816210248138e-01  9.9999656727347941e-01  9.9999447831137289e-01  9.9999199471399447e-01  9.9999063788154163e-01  9.9999034312909263e-01  9.9999052775365938e-01  9.9999182095304417e-01  9.9999384495355848e-01  9.9999416273351238e-01  9.9999350473955706e-01  9.9999398986673749e-01  9.9999454206718719e-01  9.9999491270380503e-01  9.9999689493759902e-01  9.9999852109225107e-01  9.9999801125636978e-01  9.9999836754640237e-01  1.0000000053625153e+00  1.0000002808470203e+00  1.0000001570316002e+00  1.0000001508992871e+00  9.9999910164267691e-01  9.9999947053843186e-01  1.0000012389200437e+00  1.0000002607290646e+00  9.9999864304417196e-01  9.9999996614674680e-01  1.0000009088323643e+00  1.0000000461764949e+00  9.9999961706404905e-01  9.9999944908968130e-01  1.0000002696757857e+00  1.0000012269675906e+00  9.9999913305197252e-01  9.9999854679297040e-01  1.0000019008369201e+00  1.0000007697127220e+00  9.9999737114515919e-01  1.0000006718123506e+00  1.0000023594035734e+00  9.9999790216189910e-01  9.9999898361564254e-01  1.0000026210082118e+00  9.9999927806965538e-01  9.9999810314613713e-01  1.0000018736808436e+00  1.0000003990559410e+00  9.9999814374498364e-01  1.0000009287066807e+00  1.0000008832054175e+00  9.9999863405419109e-01  1.0000002607005507e+00  1.0000008868668266e+00  9.9999915726890976e-01  9.9999993567337453e-01  1.0000006870305038e+00  9.9999953332337832e-01  9.9999984487253590e-01  1.0000004589550346e+00  9.9999976148968694e-01  9.9999985107343281e-01  1.0000002938216337e+00  9.9999986323346879e-01  9.9999991443449332e-01  1.0000001509067882e+00  9.9999995333032410e-01  9.9999991185040737e-01  1.0000001352086643e+00  9.9999990838484043e-01  1.0000000325937004e+00  9.9999997851866129e-01  1.0000000619450657e+00  9.9999988367551107e-01  1.0000001503337068e+00  9.9999984176343149e-01  1.0000001561310661e+00  9.9999983900499045e-01  1.0000001771550839e+00  9.9999980257002574e-01  1.0000002122187961e+00  9.9999978323328431e-01  1.0000002121419620e+00  9.9999979785686877e-01  1.0000001893710215e+00  9.9999982531947240e-01  1.0000001569502259e+00  9.9999986401317109e-01  1.0000001128085325e+00  9.9999990432800390e-01  1.0000001441524518e+00  9.9999965818093084e-01  9.9999930607870335e-01  9.9999896403208377e-01  1.0000000352818699e+00  9.9999853458574162e-01  9.9999876242760866e-01  9.9999706442551950e-01  9.9999644435380697e-01  9.9999510256881252e-01  9.9999405228743432e-01  9.9999415754713095e-01  9.9999607784475542e-01  9.9999917615294132e-01  1.0000046364458073e+00  1.0000127024379930e+00  1.0000197120981207e+00  1.0000251156197359e+00  1.0000302577695195e+00  1.0000318817845857e+00  1.0000291924260509e+00  1.0000281055406359e+00  1.0000272952314810e+00  1.0000215194307862e+00  1.0000153244350027e+00  1.0000106423723627e+00  1.0000014570433342e+00  9.9999237165373200e-01  9.9998987540047868e-01  9.9998711387364603e-01  9.9998359385141422e-01  9.9998632201043258e-01  9.9998971757084620e-01  9.9999078608181702e-01  9.9999568039889775e-01  9.9999850874478158e-01  9.9999595078744941e-01  9.9999841800150524e-01  1.0000021692600856e+00  9.9999909887711824e-01  9.9999848180521878e-01  1.0000011268242974e+00  9.9999966558962505e-01  1.0000000384768721e+00  1.0000011081565965e+00  9.9999786302834093e-01  1.0000001303122796e+00  1.0000033338325311e+00  9.9999719190583669e-01  9.9999781562331835e-01  1.0000049257740518e+00  9.9999896559496126e-01  9.9999543324226969e-01  1.0000042783104235e+00  1.0000015458423390e+00  9.9999476507214824e-01  1.0000022648766616e+00  1.0000031926095505e+00  9.9999565947342017e-01  1.0000003448479355e+00  1.0000035004822518e+00  9.9999711318510864e-01  9.9999923310949657e-01  1.0000029552651937e+00  9.9999836937618325e-01  9.9999888959166261e-01  1.0000021522876472e+00  9.9999917566818175e-01  9.9999899539626125e-01  1.0000014302708837e+00  9.9999960508546482e-01  9.9999925012151702e-01  1.0000009158352758e+00  9.9999977854672417e-01  9.9999953346057369e-01  1.0000005392638227e+00  9.9999989086091845e-01  9.9999968754059343e-01  1.0000003821444687e+00  9.9999983850944840e-01  9.9999993280952260e-01  1.0000001060039387e+00  1.0000000277216159e+00  9.9999981047347408e-01  1.0000002648918143e+00  9.9999975404531427e-01  1.0000001982837419e+00  9.9999981529535309e-01  1.0000002198676152e+00  9.9999972285659799e-01  1.0000003222173013e+00  9.9999966116697414e-01  1.0000003319331077e+00  9.9999968463175648e-01  1.0000002991360244e+00  9.9999971572396196e-01  1.0000002670467847e+00  9.9999975700517407e-01  1.0000002130941341e+00  9.9999981743563993e-01  1.0000001611884359e+00  9.9999984358595839e-01  1.0000001441524522e+00  1.0000007011711156e+00  1.0000000352818696e+00  1.0000017851763505e+00  1.0000005851992808e+00  1.0000030646042000e+00  1.0000035816203698e+00  1.0000067511253712e+00  1.0000081984171389e+00  1.0000110430687439e+00  1.0000123614351242e+00  1.0000100414310351e+00  1.0000041648535218e+00  9.9999477658909486e-01  9.9997869265069705e-01  9.9995947617626424e-01  9.9994429447108579e-01  9.9993112473938328e-01  9.9992093570701490e-01  9.9992158482713611e-01  9.9992695784620500e-01  9.9992748983185198e-01  9.9993341641746802e-01  9.9994837069553211e-01  9.9996052177431405e-01  9.9997560743408820e-01  9.9999972576940821e-01  1.0000153123315321e+00  1.0000211612674168e+00  1.0000314731124165e+00  1.0000353423833315e+00  1.0000273515425984e+00  1.0000231608309247e+00  1.0000175928437123e+00  1.0000063671289021e+00  1.0000063975513787e+00  1.0000084247505832e+00  9.9999875333950139e-01  9.9999753060084540e-01  1.0000043233161884e+00  1.0000002122432905e+00  9.9999803864152736e-01  1.0000016256810129e+00  9.9999829037155041e-01  1.0000001776923433e+00  1.0000039758608430e+00  9.9999548745698541e-01  9.9999782325957287e-01  1.0000078575021669e+00  9.9999680808257074e-01  9.9999317896098627e-01  1.0000084290881659e+00  1.0000011752483402e+00  9.9999060212993218e-01  1.0000055583335368e+00  1.0000049787770358e+00  9.9999124444821019e-01  1.0000018398731290e+00  1.0000064286662471e+00  9.9999365537361040e-01  9.9999922833746469e-01  1.0000059085210669e+00  9.9999616087363963e-01  9.9999812502068608e-01  1.0000045306011258e+00  9.9999795133699187e-01  9.9999807292704435e-01  1.0000031092644259e+00  9.9999898236629259e-01  9.9999847018391141e-01  1.0000020199562643e+00  9.9999945014342473e-01  9.9999899907535850e-01  1.0000012146856616e+00  9.9999972038093121e-01  9.9999933341733682e-01  1.0000008276283738e+00  9.9999967432323122e-01  9.9999980064345029e-01  1.0000002932871286e+00  1.0000000030329226e+00  9.9999964401255526e-01  1.0000005049766036e+00  9.9999956114413013e-01  1.0000003138565243e+00  9.9999972622191602e-01  1.0000003469745555e+00  9.9999953222610438e-01  1.0000005577331192e+00  9.9999941595549591e-01  1.0000005628499737e+00  9.9999947214275320e-01  1.0000005003573378e+00  9.9999951939358189e-01  1.0000004565499367e+00  9.9999958117513488e-01  1.0000003650784008e+00  9.9999969619683782e-01  1.0000002433611186e+00  9.9999980594412685e-01  1.0000001611884359e+00  9.9999990432800390e-01  9.9999981048740738e-01  9.9999853458574239e-01  1.0000005851992810e+00  9.9999729325612896e-01  9.9999895204875378e-01  9.9999528950181760e-01  9.9999406066736363e-01  9.9999017614020580e-01  9.9998845311696238e-01  9.9998467511283251e-01  9.9998521650362726e-01  9.9999118554891364e-01  1.0000006744685070e+00  1.0000165767475251e+00  1.0000419579750885e+00  1.0000660601357378e+00  1.0000841094095714e+00  1.0001026903991783e+00  1.0001128056857671e+00  1.0001074044558473e+00  1.0001048269714083e+00  1.0001064680017935e+00  1.0000924020291300e+00  1.0000727805654097e+00  1.0000587395205736e+00  1.0000307481947441e+00  9.9999677981798218e-01  9.9998161765385751e-01  9.9996824339401780e-01  9.9995069397414593e-01  9.9995331684549771e-01  9.9996324814983073e-01  9.9996594401897998e-01  9.9998026642220639e-01  9.9999225821315507e-01  9.9998629227594327e-01  9.9999260854452665e-01  1.0000055410268536e+00  9.9999766761276709e-01  9.9999474441803682e-01  1.0000035286909681e+00  9.9999940051676506e-01  9.9999890281504455e-01  1.0000037740167187e+00  9.9999508617392707e-01  9.9999876517960407e-01  1.0000091408499623e+00  9.9999397420729763e-01  9.9999303724532662e-01  1.0000124611370698e+00  9.9999860199454227e-01  9.9998766985613685e-01  1.0000103992433800e+00  1.0000046989797555e+00  9.9998657035309091e-01  1.0000053981734163e+00  1.0000083110161428e+00  9.9998904113457865e-01  1.0000008793849109e+00  1.0000087455115785e+00  9.9999265058925635e-01  9.9999834981644842e-01  1.0000072683095100e+00  9.9999568642246173e-01  9.9999761732308146e-01  1.0000052507512336e+00  9.9999766329550877e-01  9.9999786263731349e-01  1.0000035109708620e+00  9.9999869828083965e-01  9.9999851409952567e-01  1.0000021516280799e+00  9.9999931190828839e-01  9.9999898208381666e-01  1.0000014407674676e+00  9.9999936465135275e-01  9.9999968427660413e-01  1.0000005522477677e+00  9.9999992326148601e-01  9.9999945908767363e-01  1.0000008175561967e+00  9.9999929279632060e-01  1.0000004786015275e+00  9.9999960666406296e-01  1.0000005100387706e+00  9.9999928452069320e-01  1.0000008702769696e+00  9.9999908388973824e-01  1.0000008823511000e+00  9.9999917105454117e-01  1.0000007924343359e+00  9.9999922889420001e-01  1.0000007429348181e+00  9.9999931072010106e-01  1.0000006085515210e+00  9.9999949032503199e-01  1.0000004096886648e+00  9.9999968207168177e-01  1.0000002433611186e+00  9.9999981743564004e-01  1.0000001128085323e+00  1.0000006785021924e+00  9.9999876242760910e-01  1.0000030646041997e+00  9.9999895204875366e-01  1.0000045108219238e+00  1.0000017460674080e+00  1.0000078374509442e+00  1.0000094913887501e+00  1.0000143060475264e+00  1.0000170095844012e+00  1.0000214939823551e+00  1.0000169946909838e+00  1.0000071869950091e+00  9.9999299647980000e-01  9.9996688414840973e-01  9.9993221588895975e-01  9.9990631915720729e-01  9.9988397458231038e-01  9.9986092989415110e-01  9.9985719883165736e-01  9.9986584950015867e-01  9.9986124879986882e-01  9.9986356037168833e-01  9.9988837003320408e-01  9.9990759928191497e-01  9.9992857427911852e-01  9.9997342461187422e-01  1.0000083830463531e+00  1.0000236651248968e+00  1.0000505334104843e+00  1.0000668714285261e+00  1.0000547301376033e+00  1.0000489235074044e+00  1.0000414641126669e+00  1.0000175441506036e+00  1.0000144245000075e+00  1.0000191539457268e+00  9.9999961390138459e-01  9.9999554304019000e-01  1.0000091181463324e+00  1.0000002364874789e+00  9.9999569675721200e-01  1.0000043555759508e+00  9.9999670927413387e-01  9.9999898469566051e-01  1.0000083549222714e+00  9.9999217868854196e-01  9.9999496674629929e-01  1.0000147320591557e+00  9.9999441446678961e-01  9.9998730270326364e-01  1.0000157006722696e+00  1.0000015888076477e+00  9.9998298667567953e-01  1.0000110490958158e+00  1.0000079254185958e+00  9.9998390804329895e-01  1.0000048913809036e+00  1.0000105024973012e+00  9.9998782632011352e-01  1.0000003798361323e+00  1.0000098484111639e+00  9.9999205722656381e-01  9.9999826583597196e-01  1.0000076692103963e+00  9.9999527925341292e-01  9.9999783705011125e-01  1.0000053714053569e+00  9.9999722389262902e-01  9.9999832174847358e-01  1.0000033800344172e+00  9.9999846852310892e-01  9.9999876276804367e-01  1.0000022655182292e+00  9.9999877288290651e-01  9.9999967773899789e-01  1.0000008840782348e+00  9.9999974067950215e-01  9.9999927489267881e-01  1.0000012424683180e+00  9.9999887292152478e-01  1.0000007663288966e+00  9.9999940348009964e-01  1.0000007495631198e+00  9.9999893389496275e-01  1.0000013214559733e+00  9.9999858983126855e-01  1.0000013700987527e+00  9.9999870498863053e-01  1.0000012452257083e+00  9.9999877980266250e-01  1.0000011852490844e+00  9.9999888914004520e-01  1.0000009915878194e+00  9.9999915632764913e-01  1.0000006863115036e+00  9.9999946013837371e-01  1.0000004096886657e+00  9.9999969619683771e-01  1.0000002130941341e+00  9.9999986401317098e-01  1.0000002212997683e+00  9.9999706442551972e-01  1.0000035816203698e+00  9.9999528950181793e-01  1.0000017460674082e+00  9.9999360880971988e-01  9.9999766021159553e-01  9.9998836679140191e-01  9.9998793963847399e-01  9.9998244718217844e-01  9.9997951054358403e-01  9.9997750347011372e-01  9.9998925748155465e-01  1.0000028693798901e+00  1.0000247258065291e+00  1.0000630368799819e+00  1.0001012031458245e+00  1.0001247428753177e+00  1.0001526676950017e+00  1.0001741142180161e+00  1.0001672694186017e+00  1.0001640060141548e+00  1.0001767550198222e+00  1.0001627333590803e+00  1.0001329335374598e+00  1.0001177575708489e+00  1.0000809942818170e+00  1.0000242873556422e+00  9.9999585774721222e-01  9.9996943131786031e-01  9.9992908377058387e-01  9.9992454715345347e-01  9.9993852107862491e-01  9.9993821953588591e-01  9.9995935540573355e-01  9.9998277745971642e-01  9.9997421847152701e-01  9.9998474626046030e-01  1.0000082126125072e+00  9.9999485853854853e-01  9.9999033345560229e-01  1.0000071590652730e+00  9.9999877433097351e-01  9.9999658981566197e-01  1.0000070543065946e+00  9.9999289023519378e-01  9.9999719981110768e-01  1.0000143211578729e+00  9.9999049950700891e-01  9.9998976259105177e-01  1.0000196617784263e+00  9.9999607391389789e-01  9.9998194173583788e-01  1.0000177963158197e+00  1.0000044402291537e+00  9.9997953292670094e-01  1.0000113403082329e+00  1.0000100361651321e+00  9.9998226096954257e-01  1.0000048485039317e+00  1.0000114111375500e+00  9.9998707568557188e-01  1.0000007114175047e+00  1.0000098990748774e+00  9.9999159376937818e-01  9.9999892129392276e-01  1.0000074132068091e+00  9.9999475789944936e-01  9.9999876093042972e-01  1.0000048481908252e+00  9.9999698078821009e-01  9.9999887187125991e-01  1.0000033015485321e+00  9.9999775828695436e-01  9.9999989512455456e-01  1.0000012919303198e+00  9.9999937773724545e-01  9.9999914969358705e-01  1.0000017864816777e+00  9.9999825401865849e-01  1.0000012165043388e+00  9.9999910931176783e-01  1.0000010516335556e+00  9.9999849175532474e-01  1.0000019155793287e+00  9.9999791675282990e-01  1.0000020459203214e+00  9.9999805745517267e-01  1.0000018728595452e+00  9.9999815606524345e-01  1.0000018055249351e+00  9.9999828962001658e-01  1.0000015474294035e+00  9.9999866340280363e-01  1.0000011090451804e+00  9.9999911381113094e-01  1.0000006863115032e+00  9.9999949032503155e-01  1.0000003650784002e+00  9.9999975700517396e-01  1.0000001569502255e+00  1.0000004671874734e+00  9.9999644435380708e-01  1.0000067511253716e+00  9.9999406066736407e-01  1.0000078374509442e+00  9.9999766021159564e-01  1.0000089328308601e+00  1.0000037682921499e+00  1.0000168259641555e+00  1.0000143488097379e+00  1.0000221734075809e+00  1.0000244482475620e+00  1.0000210476106812e+00  1.0000022470173582e+00  9.9998677754504450e-01  9.9995371657104748e-01  9.9990616364244611e-01  9.9987336778634350e-01  9.9985175513642688e-01  9.9981777307143738e-01  9.9980726640844630e-01  9.9982104515168690e-01  9.9980824064225415e-01  9.9979501032562690e-01  9.9982386050790761e-01  9.9984648487212846e-01  9.9986196023139573e-01  9.9991951823089287e-01  9.9997318333697405e-01  9.9999738871835109e-01  1.0000467369701072e+00  1.0000872501660905e+00  1.0000766435368131e+00  1.0000729980647793e+00  1.0000696265394633e+00  1.0000337711417844e+00  1.0000257851823979e+00  1.0000330718071204e+00  1.0000016750082497e+00  9.9999439405812895e-01  1.0000160937090701e+00  1.0000000361592176e+00  9.9999205082211062e-01  1.0000081493706305e+00  9.9999595808950126e-01  9.9999714659049688e-01  1.0000119431923624e+00  9.9998912466086898e-01  9.9999373782755185e-01  1.0000205972335485e+00  9.9998993213953447e-01  9.9998429331317840e-01  1.0000236997081087e+00  9.9999792742490068e-01  9.9997759116505669e-01  1.0000193559890938e+00  1.0000063405139701e+00  9.9997723196353405e-01  1.0000119000146175e+00  1.0000108058793802e+00  9.9998130704023058e-01  1.0000055462945272e+00  1.0000111101050975e+00  9.9998667492680038e-01  1.0000017216991370e+00  1.0000091720538029e+00  9.9999115773842118e-01  1.0000002842425686e+00  1.0000063348553951e+00  9.9999468031759497e-01  9.9999959170456898e-01  1.0000044603295761e+00  9.9999618532204104e-01  1.0000005072013378e+00  1.0000017296912471e+00  9.9999876267250221e-01  9.9999916277914580e-01  1.0000024422339160e+00  9.9999738117728521e-01  1.0000018890456150e+00  9.9999869732377256e-01  1.0000014155010026e+00  9.9999795931632707e-01  1.0000026687704320e+00  9.9999703298991316e-01  1.0000029458225872e+00  9.9999719522593833e-01  1.0000027069152357e+00  9.9999732278220743e-01  1.0000026446150196e+00  9.9999746552506363e-01  1.0000023239472586e+00  9.9999796079019432e-01  1.0000017222543247e+00  9.9999859305514893e-01  1.0000011090451808e+00  9.9999915632764913e-01  1.0000006085515207e+00  9.9999958117513521e-01  1.0000002670467854e+00  9.9999982531947262e-01  1.0000001478526308e+00  9.9999510256881263e-01  1.0000081984171392e+00  9.9999017614020591e-01  1.0000094913887498e+00  9.9998836679140235e-01  1.0000037682921494e+00  9.9998784270047769e-01  9.9999405931604690e-01  9.9997798296315654e-01  9.9998514944015382e-01  9.9997309707111981e-01  9.9997586798523252e-01  9.9998803809088088e-01  1.0000118436673107e+00  1.0000300558923834e+00  1.0000786056306337e+00  1.0001261015642773e+00  1.0001466345852998e+00  1.0001717825262755e+00  1.0002065035201486e+00  1.0001980145440859e+00  1.0001910403234056e+00  1.0002234107356851e+00  1.0002228116465026e+00  1.0001868484193326e+00  1.0001802297639260e+00  1.0001509410817262e+00  1.0000792772104798e+00  1.0000415759958898e+00  1.0000041785136795e+00  9.9993154566032838e-01  9.9990889428705731e-01  9.9992226374415616e-01  9.9991169276978087e-01  9.9993377148368157e-01  9.9996949578827343e-01  9.9995857123458221e-01  9.9997394419550190e-01  1.0000101745775170e+00  9.9999012290552303e-01  9.9998429170715464e-01  1.0000120679287783e+00  9.9999831067885314e-01  9.9999299325561941e-01  1.0000102216928510e+00  9.9999138128130038e-01  9.9999644723962366e-01  1.0000182320681914e+00  9.9998584509874811e-01  9.9998938495689871e-01  1.0000265650689470e+00  9.9998985975346333e-01  9.9997940545407848e-01  1.0000270393165271e+00  9.9999917510343295e-01  9.9997449699894148e-01  1.0000208121753049e+00  1.0000069492491728e+00  9.9997596989734261e-01  1.0000129418937613e+00  1.0000102086258136e+00  9.9998107123195323e-01  1.0000067493010658e+00  1.0000098841536664e+00  9.9998654400099474e-01  1.0000033891960269e+00  1.0000073999676857e+00  9.9999151590925472e-01  1.0000012764116690e+00  1.0000055212260275e+00  9.9999396607783608e-01  1.0000017353941304e+00  1.0000020865254156e+00  9.9999783485461580e-01  9.9999943128512714e-01  1.0000031595893824e+00  9.9999621921239856e-01  1.0000028410432868e+00  9.9999814695855949e-01  1.0000018196772169e+00  9.9999737004192957e-01  1.0000035607030644e+00  9.9999594431802552e-01  1.0000040663316543e+00  9.9999612769005686e-01  1.0000037345187029e+00  9.9999628886079550e-01  1.0000037024745732e+00  9.9999640843304693e-01  1.0000033366491332e+00  9.9999702878378649e-01  1.0000025548498819e+00  9.9999786876505614e-01  1.0000017222543243e+00  9.9999866340280397e-01  1.0000009915878190e+00  9.9999931072010106e-01  1.0000004565499363e+00  9.9999971572396174e-01  1.0000001893710222e+00  9.9999949009373812e-01  9.9999405228743410e-01  1.0000110430687441e+00  9.9998845311696294e-01  1.0000143060475275e+00  9.9998793963847432e-01  1.0000168259641558e+00  9.9999405931604735e-01  1.0000172343179994e+00  1.0000089050598628e+00  1.0000265110429936e+00  1.0000147341079162e+00  1.0000327749213171e+00  1.0000181496288088e+00  9.9999839483926445e-01  9.9997429621437606e-01  9.9994967571726145e-01  9.9988691026927656e-01  9.9985538479185110e-01  9.9984619294120047e-01  9.9981136410091476e-01  9.9978859479997