<?xml version="1.0"?>
<VTKFile type="UnstructuredGrid"  version="0.1"  >
<UnstructuredGrid>
<Piece  NumberOfPoints="10201" NumberOfCells="20000">
<Points>
<DataArray  type="Float64"  NumberOfComponents="3"  format="ascii">-5 -5 0  -4.9 -5 0  -4.8 -5 0  -4.7 -5 0  -4.6 -5 0  -4.5 -5 0  -4.4 -5 0  -4.3 -5 0  -4.2 -5 0  -4.1 -5 0  -4 -5 0  -3.9 -5 0  -3.8 -5 0  -3.7 -5 0  -3.6 -5 0  -3.5 -5 0  -3.4 -5 0  -3.3 -5 0  -3.2 -5 0  -3.1 -5 0  -3 -5 0  -2.9 -5 0  -2.8 -5 0  -2.7 -5 0  -2.6 -5 0  -2.5 -5 0  -2.4 -5 0  -2.3 -5 0  -2.2 -5 0  -2.1 -5 0  -2 -5 0  -1.9 -5 0  -1.8 -5 0  -1.7 -5 0  -1.6 -5 0  -1.5 -5 0  -1.4 -5 0  -1.3 -5 0  -1.2 -5 0  -1.1 -5 0  -1 -5 0  -0.9000000000000004 -5 0  -0.7999999999999998 -5 0  -0.7000000000000002 -5 0  -0.5999999999999996 -5 0  -0.5 -5 0  -0.4000000000000004 -5 0  -0.2999999999999998 -5 0  -0.2000000000000002 -5 0  -0.09999999999999964 -5 0  0 -5 0  0.09999999999999964 -5 0  0.2000000000000002 -5 0  0.2999999999999998 -5 0  0.4000000000000004 -5 0  0.5 -5 0  0.5999999999999996 -5 0  0.7000000000000002 -5 0  0.7999999999999998 -5 0  0.9000000000000004 -5 0  1 -5 0  1.1 -5 0  1.2 -5 0  1.3 -5 0  1.4 -5 0  1.5 -5 0  1.6 -5 0  1.7 -5 0  1.8 -5 0  1.9 -5 0  2 -5 0  2.1 -5 0  2.2 -5 0  2.3 -5 0  2.4 -5 0  2.5 -5 0  2.6 -5 0  2.7 -5 0  2.8 -5 0  2.9 -5 0  3 -5 0  3.1 -5 0  3.199999999999999 -5 0  3.300000000000001 -5 0  3.4 -5 0  3.5 -5 0  3.6 -5 0  3.699999999999999 -5 0  3.800000000000001 -5 0  3.9 -5 0  4 -5 0  4.1 -5 0  4.199999999999999 -5 0  4.300000000000001 -5 0  4.4 -5 0  4.5 -5 0  4.6 -5 0  4.699999999999999 -5 0  4.800000000000001 -5 0  4.9 -5 0  5 -5 0  -5 -4.9 0  -4.9 -4.9 0  -4.8 -4.9 0  -4.7 -4.9 0  -4.6 -4.9 0  -4.5 -4.9 0  -4.4 -4.9 0  -4.3 -4.9 0  -4.2 -4.9 0  -4.1 -4.9 0  -4 -4.9 0  -3.9 -4.9 0  -3.8 -4.9 0  -3.7 -4.9 0  -3.6 -4.9 0  -3.5 -4.9 0  -3.4 -4.9 0  -3.3 -4.9 0  -3.2 -4.9 0  -3.1 -4.9 0  -3 -4.9 0  -2.9 -4.9 0  -2.8 -4.9 0  -2.7 -4.9 0  -2.6 -4.9 0  -2.5 -4.9 0  -2.4 -4.9 0  -2.3 -4.9 0  -2.2 -4.9 0  -2.1 -4.9 0  -2 -4.9 0  -1.9 -4.9 0  -1.8 -4.9 0  -1.7 -4.9 0  -1.6 -4.9 0  -1.5 -4.9 0  -1.4 -4.9 0  -1.3 -4.9 0  -1.2 -4.9 0  -1.1 -4.9 0  -1 -4.9 0  -0.9000000000000004 -4.9 0  -0.7999999999999998 -4.9 0  -0.7000000000000002 -4.9 0  -0.5999999999999996 -4.9 0  -0.5 -4.9 0  -0.4000000000000004 -4.9 0  -0.2999999999999998 -4.9 0  -0.2000000000000002 -4.9 0  -0.09999999999999964 -4.9 0  0 -4.9 0  0.09999999999999964 -4.9 0  0.2000000000000002 -4.9 0  0.2999999999999998 -4.9 0  0.4000000000000004 -4.9 0  0.5 -4.9 0  0.5999999999999996 -4.9 0  0.7000000000000002 -4.9 0  0.7999999999999998 -4.9 0  0.9000000000000004 -4.9 0  1 -4.9 0  1.1 -4.9 0  1.2 -4.9 0  1.3 -4.9 0  1.4 -4.9 0  1.5 -4.9 0  1.6 -4.9 0  1.7 -4.9 0  1.8 -4.9 0  1.9 -4.9 0  2 -4.9 0  2.1 -4.9 0  2.2 -4.9 0  2.3 -4.9 0  2.4 -4.9 0  2.5 -4.9 0  2.6 -4.9 0  2.7 -4.9 0  2.8 -4.9 0  2.9 -4.9 0  3 -4.9 0  3.1 -4.9 0  3.199999999999999 -4.9 0  3.300000000000001 -4.9 0  3.4 -4.9 0  3.5 -4.9 0  3.6 -4.9 0  3.699999999999999 -4.9 0  3.800000000000001 -4.9 0  3.9 -4.9 0  4 -4.9 0  4.1 -4.9 0  4.199999999999999 -4.9 0  4.300000000000001 -4.9 0  4.4 -4.9 0  4.5 -4.9 0  4.6 -4.9 0  4.699999999999999 -4.9 0  4.800000000000001 -4.9 0  4.9 -4.9 0  5 -4.9 0  -5 -4.8 0  -4.9 -4.8 0  -4.8 -4.8 0  -4.7 -4.8 0  -4.6 -4.8 0  -4.5 -4.8 0  -4.4 -4.8 0  -4.3 -4.8 0  -4.2 -4.8 0  -4.1 -4.8 0  -4 -4.8 0  -3.9 -4.8 0  -3.8 -4.8 0  -3.7 -4.8 0  -3.6 -4.8 0  -3.5 -4.8 0  -3.4 -4.8 0  -3.3 -4.8 0  -3.2 -4.8 0  -3.1 -4.8 0  -3 -4.8 0  -2.9 -4.8 0  -2.8 -4.8 0  -2.7 -4.8 0  -2.6 -4.8 0  -2.5 -4.8 0  -2.4 -4.8 0  -2.3 -4.8 0  -2.2 -4.8 0  -2.1 -4.8 0  -2 -4.8 0  -1.9 -4.8 0  -1.8 -4.8 0  -1.7 -4.8 0  -1.6 -4.8 0  -1.5 -4.8 0  -1.4 -4.8 0  -1.3 -4.8 0  -1.2 -4.8 0  -1.1 -4.8 0  -1 -4.8 0  -0.9000000000000004 -4.8 0  -0.7999999999999998 -4.8 0  -0.7000000000000002 -4.8 0  -0.5999999999999996 -4.8 0  -0.5 -4.8 0  -0.4000000000000004 -4.8 0  -0.2999999999999998 -4.8 0  -0.2000000000000002 -4.8 0  -0.09999999999999964 -4.8 0  0 -4.8 0  0.09999999999999964 -4.8 0  0.2000000000000002 -4.8 0  0.2999999999999998 -4.8 0  0.4000000000000004 -4.8 0  0.5 -4.8 0  0.5999999999999996 -4.8 0  0.7000000000000002 -4.8 0  0.7999999999999998 -4.8 0  0.9000000000000004 -4.8 0  1 -4.8 0  1.1 -4.8 0  1.2 -4.8 0  1.3 -4.8 0  1.4 -4.8 0  1.5 -4.8 0  1.6 -4.8 0  1.7 -4.8 0  1.8 -4.8 0  1.9 -4.8 0  2 -4.8 0  2.1 -4.8 0  2.2 -4.8 0  2.3 -4.8 0  2.4 -4.8 0  2.5 -4.8 0  2.6 -4.8 0  2.7 -4.8 0  2.8 -4.8 0  2.9 -4.8 0  3 -4.8 0  3.1 -4.8 0  3.199999999999999 -4.8 0  3.300000000000001 -4.8 0  3.4 -4.8 0  3.5 -4.8 0  3.6 -4.8 0  3.699999999999999 -4.8 0  3.800000000000001 -4.8 0  3.9 -4.8 0  4 -4.8 0  4.1 -4.8 0  4.199999999999999 -4.8 0  4.300000000000001 -4.8 0  4.4 -4.8 0  4.5 -4.8 0  4.6 -4.8 0  4.699999999999999 -4.8 0  4.800000000000001 -4.8 0  4.9 -4.8 0  5 -4.8 0  -5 -4.7 0  -4.9 -4.7 0  -4.8 -4.7 0  -4.7 -4.7 0  -4.6 -4.7 0  -4.5 -4.7 0  -4.4 -4.7 0  -4.3 -4.7 0  -4.2 -4.7 0  -4.1 -4.7 0  -4 -4.7 0  -3.9 -4.7 0  -3.8 -4.7 0  -3.7 -4.7 0  -3.6 -4.7 0  -3.5 -4.7 0  -3.4 -4.7 0  -3.3 -4.7 0  -3.2 -4.7 0  -3.1 -4.7 0  -3 -4.7 0  -2.9 -4.7 0  -2.8 -4.7 0  -2.7 -4.7 0  -2.6 -4.7 0  -2.5 -4.7 0  -2.4 -4.7 0  -2.3 -4.7 0  -2.2 -4.7 0  -2.1 -4.7 0  -2 -4.7 0  -1.9 -4.7 0  -1.8 -4.7 0  -1.7 -4.7 0  -1.6 -4.7 0  -1.5 -4.7 0  -1.4 -4.7 0  -1.3 -4.7 0  -1.2 -4.7 0  -1.1 -4.7 0  -1 -4.7 0  -0.9000000000000004 -4.7 0  -0.7999999999999998 -4.7 0  -0.7000000000000002 -4.7 0  -0.5999999999999996 -4.7 0  -0.5 -4.7 0  -0.4000000000000004 -4.7 0  -0.2999999999999998 -4.7 0  -0.2000000000000002 -4.7 0  -0.09999999999999964 -4.7 0  0 -4.7 0  0.09999999999999964 -4.7 0  0.2000000000000002 -4.7 0  0.2999999999999998 -4.7 0  0.4000000000000004 -4.7 0  0.5 -4.7 0  0.5999999999999996 -4.7 0  0.7000000000000002 -4.7 0  0.7999999999999998 -4.7 0  0.9000000000000004 -4.7 0  1 -4.7 0  1.1 -4.7 0  1.2 -4.7 0  1.3 -4.7 0  1.4 -4.7 0  1.5 -4.7 0  1.6 -4.7 0  1.7 -4.7 0  1.8 -4.7 0  1.9 -4.7 0  2 -4.7 0  2.1 -4.7 0  2.2 -4.7 0  2.3 -4.7 0  2.4 -4.7 0  2.5 -4.7 0  2.6 -4.7 0  2.7 -4.7 0  2.8 -4.7 0  2.9 -4.7 0  3 -4.7 0  3.1 -4.7 0  3.199999999999999 -4.7 0  3.300000000000001 -4.7 0  3.4 -4.7 0  3.5 -4.7 0  3.6 -4.7 0  3.699999999999999 -4.7 0  3.800000000000001 -4.7 0  3.9 -4.7 0  4 -4.7 0  4.1 -4.7 0  4.199999999999999 -4.7 0  4.300000000000001 -4.7 0  4.4 -4.7 0  4.5 -4.7 0  4.6 -4.7 0  4.699999999999999 -4.7 0  4.800000000000001 -4.7 0  4.9 -4.7 0  5 -4.7 0  -5 -4.6 0  -4.9 -4.6 0  -4.8 -4.6 0  -4.7 -4.6 0  -4.6 -4.6 0  -4.5 -4.6 0  -4.4 -4.6 0  -4.3 -4.6 0  -4.2 -4.6 0  -4.1 -4.6 0  -4 -4.6 0  -3.9 -4.6 0  -3.8 -4.6 0  -3.7 -4.6 0  -3.6 -4.6 0  -3.5 -4.6 0  -3.4 -4.6 0  -3.3 -4.6 0  -3.2 -4.6 0  -3.1 -4.6 0  -3 -4.6 0  -2.9 -4.6 0  -2.8 -4.6 0  -2.7 -4.6 0  -2.6 -4.6 0  -2.5 -4.6 0  -2.4 -4.6 0  -2.3 -4.6 0  -2.2 -4.6 0  -2.1 -4.6 0  -2 -4.6 0  -1.9 -4.6 0  -1.8 -4.6 0  -1.7 -4.6 0  -1.6 -4.6 0  -1.5 -4.6 0  -1.4 -4.6 0  -1.3 -4.6 0  -1.2 -4.6 0  -1.1 -4.6 0  -1 -4.6 0  -0.9000000000000004 -4.6 0  -0.7999999999999998 -4.6 0  -0.7000000000000002 -4.6 0  -0.5999999999999996 -4.6 0  -0.5 -4.6 0  -0.4000000000000004 -4.6 0  -0.2999999999999998 -4.6 0  -0.2000000000000002 -4.6 0  -0.09999999999999964 -4.6 0  0 -4.6 0  0.09999999999999964 -4.6 0  0.2000000000000002 -4.6 0  0.2999999999999998 -4.6 0  0.4000000000000004 -4.6 0  0.5 -4.6 0  0.5999999999999996 -4.6 0  0.7000000000000002 -4.6 0  0.7999999999999998 -4.6 0  0.9000000000000004 -4.6 0  1 -4.6 0  1.1 -4.6 0  1.2 -4.6 0  1.3 -4.6 0  1.4 -4.6 0  1.5 -4.6 0  1.6 -4.6 0  1.7 -4.6 0  1.8 -4.6 0  1.9 -4.6 0  2 -4.6 0  2.1 -4.6 0  2.2 -4.6 0  2.3 -4.6 0  2.4 -4.6 0  2.5 -4.6 0  2.6 -4.6 0  2.7 -4.6 0  2.8 -4.6 0  2.9 -4.6 0  3 -4.6 0  3.1 -4.6 0  3.199999999999999 -4.6 0  3.300000000000001 -4.6 0  3.4 -4.6 0  3.5 -4.6 0  3.6 -4.6 0  3.699999999999999 -4.6 0  3.800000000000001 -4.6 0  3.9 -4.6 0  4 -4.6 0  4.1 -4.6 0  4.199999999999999 -4.6 0  4.300000000000001 -4.6 0  4.4 -4.6 0  4.5 -4.6 0  4.6 -4.6 0  4.699999999999999 -4.6 0  4.800000000000001 -4.6 0  4.9 -4.6 0  5 -4.6 0  -5 -4.5 0  -4.9 -4.5 0  -4.8 -4.5 0  -4.7 -4.5 0  -4.6 -4.5 0  -4.5 -4.5 0  -4.4 -4.5 0  -4.3 -4.5 0  -4.2 -4.5 0  -4.1 -4.5 0  -4 -4.5 0  -3.9 -4.5 0  -3.8 -4.5 0  -3.7 -4.5 0  -3.6 -4.5 0  -3.5 -4.5 0  -3.4 -4.5 0  -3.3 -4.5 0  -3.2 -4.5 0  -3.1 -4.5 0  -3 -4.5 0  -2.9 -4.5 0  -2.8 -4.5 0  -2.7 -4.5 0  -2.6 -4.5 0  -2.5 -4.5 0  -2.4 -4.5 0  -2.3 -4.5 0  -2.2 -4.5 0  -2.1 -4.5 0  -2 -4.5 0  -1.9 -4.5 0  -1.8 -4.5 0  -1.7 -4.5 0  -1.6 -4.5 0  -1.5 -4.5 0  -1.4 -4.5 0  -1.3 -4.5 0  -1.2 -4.5 0  -1.1 -4.5 0  -1 -4.5 0  -0.9000000000000004 -4.5 0  -0.7999999999999998 -4.5 0  -0.7000000000000002 -4.5 0  -0.5999999999999996 -4.5 0  -0.5 -4.5 0  -0.4000000000000004 -4.5 0  -0.2999999999999998 -4.5 0  -0.2000000000000002 -4.5 0  -0.09999999999999964 -4.5 0  0 -4.5 0  0.09999999999999964 -4.5 0  0.2000000000000002 -4.5 0  0.2999999999999998 -4.5 0  0.4000000000000004 -4.5 0  0.5 -4.5 0  0.5999999999999996 -4.5 0  0.7000000000000002 -4.5 0  0.7999999999999998 -4.5 0  0.9000000000000004 -4.5 0  1 -4.5 0  1.1 -4.5 0  1.2 -4.5 0  1.3 -4.5 0  1.4 -4.5 0  1.5 -4.5 0  1.6 -4.5 0  1.7 -4.5 0  1.8 -4.5 0  1.9 -4.5 0  2 -4.5 0  2.1 -4.5 0  2.2 -4.5 0  2.3 -4.5 0  2.4 -4.5 0  2.5 -4.5 0  2.6 -4.5 0  2.7 -4.5 0  2.8 -4.5 0  2.9 -4.5 0  3 -4.5 0  3.1 -4.5 0  3.199999999999999 -4.5 0  3.300000000000001 -4.5 0  3.4 -4.5 0  3.5 -4.5 0  3.6 -4.5 0  3.699999999999999 -4.5 0  3.800000000000001 -4.5 0  3.9 -4.5 0  4 -4.5 0  4.1 -4.5 0  4.199999999999999 -4.5 0  4.300000000000001 -4.5 0  4.4 -4.5 0  4.5 -4.5 0  4.6 -4.5 0  4.699999999999999 -4.5 0  4.800000000000001 -4.5 0  4.9 -4.5 0  5 -4.5 0  -5 -4.4 0  -4.9 -4.4 0  -4.8 -4.4 0  -4.7 -4.4 0  -4.6 -4.4 0  -4.5 -4.4 0  -4.4 -4.4 0  -4.3 -4.4 0  -4.2 -4.4 0  -4.1 -4.4 0  -4 -4.4 0  -3.9 -4.4 0  -3.8 -4.4 0  -3.7 -4.4 0  -3.6 -4.4 0  -3.5 -4.4 0  -3.4 -4.4 0  -3.3 -4.4 0  -3.2 -4.4 0  -3.1 -4.4 0  -3 -4.4 0  -2.9 -4.4 0  -2.8 -4.4 0  -2.7 -4.4 0  -2.6 -4.4 0  -2.5 -4.4 0  -2.4 -4.4 0  -2.3 -4.4 0  -2.2 -4.4 0  -2.1 -4.4 0  -2 -4.4 0  -1.9 -4.4 0  -1.8 -4.
[...]
<PointData  Scalars="f_27-1"> 
<DataArray  type="Float64"  Name="f_27-1"  format="ascii">9.9986966152859924e-01  1.0000526361778797e+00  9.9991977995038950e-01  1.0001718110480793e+00  1.0005416213062903e+00  1.0017933589069445e+00  1.0041269581840260e+00  1.0084757098922486e+00  1.0154952017197978e+00  1.0254964121288896e+00  1.0383474795002772e+00  1.0525237140896830e+00  1.0661537404762724e+00  1.0771313177027977e+00  1.0838148919151938e+00  1.0859838544612959e+00  1.0838579472734255e+00  1.0787473791788047e+00  1.0716778595928986e+00  1.0637333413481966e+00  1.0554764788164335e+00  1.0474647882166797e+00  1.0396740487653005e+00  1.0322503856109877e+00  1.0252235769486482e+00  1.0183907216707118e+00  1.0118413949051606e+00  1.0056885860652691e+00  9.9973638180454116e-01  9.9416655671721632e-01  9.8903639742417060e-01  9.8411383306726874e-01  9.7969428378677825e-01  9.7558125043029620e-01  9.7193250142325571e-01  9.6848004167112089e-01  9.6560734644589674e-01  9.6287381529393568e-01  9.6057533556167529e-01  9.5856688771117282e-01  9.5691605657761547e-01  9.5537873667182094e-01  9.5433155074089260e-01  9.5324079603994039e-01  9.5253825363810618e-01  9.5191518680148468e-01  9.5141853260148479e-01  9.5119087513482659e-01  9.5088985294052575e-01  9.5071161222963330e-01  9.5076732236765893e-01  9.5063362917599092e-01  9.5074998464607341e-01  9.5106257886208945e-01  9.5117113178437263e-01  9.5172850920933072e-01  9.5226028867819890e-01  9.5291239230311953e-01  9.5383835839275544e-01  9.5496321063856460e-01  9.5615680144742754e-01  9.5801658674967216e-01  9.5966441340294806e-01  9.6213159668221049e-01  9.6462008801650356e-01  9.6772600104756035e-01  9.7090775639653271e-01  9.7497818374202982e-01  9.7879901860118346e-01  9.8373635182880870e-01  9.8834344935069163e-01  9.9392801905866135e-01  9.9928153951702348e-01  1.0055492891193554e+00  1.0114685586190078e+00  1.0185212911694281e+00  1.0252054650025308e+00  1.0330570147800739e+00  1.0405226353320787e+00  1.0487936894477621e+00  1.0564024817250415e+00  1.0642842644879327e+00  1.0710744203392915e+00  1.0778433656416893e+00  1.0829770017037632e+00  1.0864617111757531e+00  1.0858704108716402e+00  1.0803975505526426e+00  1.0691769452330127e+00  1.0543657146500944e+00  1.0383930529618353e+00  1.0246256469197270e+00  1.0142462363921159e+00  1.0075399125495172e+00  1.0036241051191983e+00  1.0016514629329396e+00  1.0006535037281274e+00  1.0002456053803555e+00  1.0000876646290240e+00  1.0000344675943740e+00  1.0000064992846673e+00  1.0000526361778790e+00  9.9996956600891085e-01  1.0000482551674930e+00  1.0003562565771835e+00  1.0009896171285675e+00  1.0024459427532693e+00  1.0051161289083921e+00  1.0098945137084798e+00  1.0170422144675346e+00  1.0270534346394065e+00  1.0391386789494816e+00  1.0522820069308974e+00  1.0646581836489719e+00  1.0745436565388176e+00  1.0806914034429900e+00  1.0828240865943202e+00  1.0811816722420042e+00  1.0768501731353251e+00  1.0704853174279567e+00  1.0631943430468143e+00  1.0553784465332141e+00  1.0476093256039938e+00  1.0398781202983218e+00  1.0325591840445223e+00  1.0253687768811963e+00  1.0185539372687686e+00  1.0120924591778904e+00  1.0059143440372338e+00  1.0000237392800493e+00  9.9462173289315792e-01  9.8938708433477796e-01  9.8465578839606005e-01  9.8027180135986391e-01  9.7626419016956589e-01  9.7257822728195154e-01  9.6936202942895799e-01  9.6644994985814670e-01  9.6386680934069535e-01  9.6173579911024909e-01  9.5983912274427452e-01  9.5822200833096105e-01  9.5696850274843093e-01  9.5586953954706355e-01  9.5500678056957022e-01  9.5440481333815763e-01  9.5382786211393367e-01  9.5352775074154272e-01  9.5320553114352802e-01  9.5296397283630163e-01  9.5299159428561109e-01  9.5283274771432547e-01  9.5290078201725936e-01  9.5310063429648606e-01  9.5313410643166019e-01  9.5342517125996862e-01  9.5384738528191360e-01  9.5414180305299523e-01  9.5490530872552370e-01  9.5565958584493649e-01  9.5666961816908846e-01  9.5802000923048702e-01  9.5952942049179291e-01  9.6133179730050622e-01  9.6365327723428118e-01  9.6597502805693958e-01  9.6894676100306765e-01  9.7213763290998367e-01  9.7573501767445991e-01  9.7966971914090195e-01  9.8412977396494528e-01  9.8872724013858737e-01  9.9408389914520712e-01  9.9952327612703740e-01  1.0056495243567520e+00  1.0119889425091053e+00  1.0188813160878323e+00  1.0257967544061897e+00  1.0332022105194967e+00  1.0403861355421973e+00  1.0480338622046368e+00  1.0554076358100697e+00  1.0630282979334791e+00  1.0700695406818050e+00  1.0763574350119791e+00  1.0804231743217847e+00  1.0819350722287886e+00  1.0796200281134221e+00  1.0738779889133712e+00  1.0646093526573088e+00  1.0530012114011935e+00  1.0401369962066762e+00  1.0279549413102402e+00  1.0176151254049959e+00  1.0101836605325287e+00  1.0053473042283014e+00  1.0025816154559746e+00  1.0011194520654865e+00  1.0004813556918424e+00  1.0001720857182419e+00  1.0000575418560698e+00  1.0000344675943753e+00  9.9991977995038994e-01  1.0000482551674932e+00  1.0002774234971366e+00  1.0009358281787046e+00  1.0021446444169049e+00  1.0046864989225934e+00  1.0088617578459809e+00  1.0150956841215444e+00  1.0233245172000140e+00  1.0328339605352146e+00  1.0426206835669574e+00  1.0515391963889986e+00  1.0588161748033662e+00  1.0642277735119012e+00  1.0678010385647243e+00  1.0696657745754008e+00  1.0697438482268669e+00  1.0680871584830991e+00  1.0647123061899280e+00  1.0599686985798982e+00  1.0539933289356314e+00  1.0473165337780583e+00  1.0401633853182919e+00  1.0329467787220243e+00  1.0258070777848702e+00  1.0190768962313645e+00  1.0126030988500074e+00  1.0065435323820697e+00  1.0009516156013762e+00  9.9566059025742137e-01  9.9079961748477940e-01  9.8634813282434985e-01  9.8223945077191199e-01  9.7847402438279762e-01  9.7524409138769019e-01  9.7227801042172268e-01  9.6976393203252653e-01  9.6761243794603780e-01  9.6583782489218917e-01  9.6423784036641569e-01  9.6315632486909564e-01  9.6208799054848859e-01  9.6139316621998727e-01  9.6078903786059910e-01  9.6034408180876119e-01  9.6000604363346642e-01  9.5977236644065111e-01  9.5954665710451947e-01  9.5955461654138963e-01  9.5939052009197334e-01  9.5935787704819386e-01  9.5946220253867864e-01  9.5933902613724864e-01  9.5949971665424294e-01  9.5967617870301469e-01  9.5981100851445733e-01  9.6017059676147676e-01  9.6066914288545202e-01  9.6106744332863336e-01  9.6198346022081171e-01  9.6271795220098699e-01  9.6400219762655870e-01  9.6536326553528728e-01  9.6720644771263886e-01  9.6913388752903640e-01  9.7192423172902376e-01  9.7446927512039883e-01  9.7810566894774820e-01  9.8155258577134463e-01  9.8598351441431775e-01  9.9030032145085933e-01  9.9563942347579815e-01  1.0006536187397186e+00  1.0068782637506841e+00  1.0125805882817174e+00  1.0194080130981171e+00  1.0257285832567018e+00  1.0330482622325177e+00  1.0397869822173829e+00  1.0473748246362802e+00  1.0539877328158866e+00  1.0609539394151766e+00  1.0661062210550729e+00  1.0703911265780963e+00  1.0719445969176413e+00  1.0717414211229737e+00  1.0686331828446334e+00  1.0642010413163927e+00  1.0577816751029483e+00  1.0506842826396425e+00  1.0420578024662657e+00  1.0328592297571861e+00  1.0233523412562966e+00  1.0152088841876541e+00  1.0087877243771204e+00  1.0046925884770499e+00  1.0022291457421912e+00  1.0010081985932271e+00  1.0003715383439451e+00  1.0001720857182412e+00  1.0000876646290235e+00  1.0001718110480788e+00  1.0003562565771831e+00  1.0009358281787053e+00  1.0022347704010266e+00  1.0047691747275587e+00  1.0090735888989413e+00  1.0150140476070844e+00  1.0228190449895413e+00  1.0309479844289264e+00  1.0386237214010301e+00  1.0442493765796206e+00  1.0478789772848485e+00  1.0497739429627981e+00  1.0512189372565794e+00  1.0527307020536967e+00  1.0547492760224628e+00  1.0564332029994608e+00  1.0575161622045388e+00  1.0568563594247178e+00  1.0546558235124823e+00  1.0505905774984658e+00  1.0454937665432242e+00  1.0393311093258102e+00  1.0330238441845399e+00  1.0264223312694294e+00  1.0201228527200843e+00  1.0138945148027143e+00  1.0082604489532343e+00  1.0027782661632927e+00  9.9789687656672343e-01  9.9331485519867202e-01  9.8929994151627210e-01  9.8556357683128804e-01  9.8252555301868860e-01  9.7972260146351831e-01  9.7743063277699216e-01  9.7553820626563925e-01  9.7398244654579169e-01  9.7269453862038513e-01  9.7179678373393064e-01  9.7101631413374601e-01  9.7043057002324862e-01  9.7006636335203045e-01  9.6968225138801578e-01  9.6953268283891059e-01  9.6933796313287179e-01  9.6924262475032386e-01  9.6923585762588771e-01  9.6910512580231944e-01  9.6910031465784330e-01  9.6915874009359837e-01  9.6909910578559699e-01  9.6916352149033858e-01  9.6934414898138299e-01  9.6925583934121196e-01  9.6952151047615664e-01  9.6960848822540602e-01  9.6981228816299991e-01  9.7010221342464142e-01  9.7056338005344733e-01  9.7098719013059276e-01  9.7190603770954564e-01  9.7263991307580100e-01  9.7400398489163853e-01  9.7540827249316375e-01  9.7735775756360588e-01  9.7946249116596096e-01  9.8240389005265283e-01  9.8529862594486550e-01  9.8926793250790279e-01  9.9313135599289160e-01  9.9798980851007968e-01  1.0027604497127356e+00  1.0084085189526666e+00  1.0137386144769183e+00  1.0200485582269838e+00  1.0258163724644347e+00  1.0325292961920598e+00  1.0385259101418247e+00  1.0450661510794310e+00  1.0502838605698430e+00  1.0550964691495508e+00  1.0573941146722514e+00  1.0585510901949442e+00  1.0569891682550636e+00  1.0549583710742081e+00  1.0518542674735252e+00  1.0498761715264786e+00  1.0478646330111661e+00  1.0465981969442175e+00  1.0437184444711263e+00  1.0393671317377555e+00  1.0322003525929604e+00  1.0240166723678219e+00  1.0157439813994549e+00  1.0094072703819765e+00  1.0048884306460453e+00  1.0023962061565577e+00  1.0010081985932282e+00  1.0004813556918415e+00  1.0002456053803563e+00  1.0005416213062899e+00  1.0009896171285673e+00  1.0021446444169047e+00  1.0047691747275587e+00  1.0091062550037933e+00  1.0152209099607510e+00  1.0230672027023591e+00  1.0312034525654810e+00  1.0381991565679098e+00  1.0426715922350096e+00  1.0441725444508021e+00  1.0434146622317906e+00  1.0415337285691197e+00  1.0397233842757549e+00  1.0387682112875705e+00  1.0387594515125553e+00  1.0397281373514577e+00  1.0409728468547204e+00  1.0419525361938080e+00  1.0422124791242473e+00  1.0412443887462730e+00  1.0390916733298223e+00  1.0357107633241744e+00  1.0314811770173606e+00  1.0264619606738816e+00  1.0212236131373265e+00  1.0158282948764499e+00  1.0106152534985391e+00  1.0056748823500907e+00  1.0012523761764711e+00  9.9729120899187118e-01  9.9389804915047597e-01  9.9107317181537524e-01  9.8874160876066430e-01  9.8678499562327049e-01  9.8538843997752767e-01  9.8420360544606322e-01  9.8331863645134598e-01  9.8273535118540445e-01  9.8219352419333272e-01  9.8184360428443329e-01  9.8157590624200686e-01  9.8135721641470530e-01  9.8117857603753400e-01  9.8107115176310911e-01  9.8087674941646008e-01  9.8087662657741781e-01  9.8066469893646102e-01  9.8066565161122177e-01  9.8067641989782550e-01  9.8056961019057542e-01  9.8063873132825297e-01  9.8069000340797097e-01  9.8065239384621539e-01  9.8076198389545866e-01  9.8093303465907311e-01  9.8091435420398376e-01  9.8126012150773256e-01  9.8132923751553358e-01  9.8166542790167444e-01  9.8187520523736171e-01  9.8235369990444865e-01  9.8267336432716290e-01  9.8361265896178074e-01  9.8420305340486858e-01  9.8571449684267110e-01  9.8700518095362288e-01  9.8922777365759862e-01  9.9131530630937459e-01  9.9449350973368134e-01  9.9735265885602753e-01  1.0015246009832079e+00  1.0052037130044926e+00  1.0102130526963495e+00  1.0147748175759970e+00  1.0205515676043859e+00  1.0256030306754906e+00  1.0315805914289808e+00  1.0360212002264753e+00  1.0405948694446121e+00  1.0426625288010951e+00  1.0441537188216692e+00  1.0431692871753455e+00  1.0422773290399241e+00  1.0401211353189106e+00  1.0395793853084963e+00  1.0388526939710012e+00  1.0400587384430240e+00  1.0408291088692299e+00  1.0425333811879760e+00  1.0426442539341443e+00  1.0419307348280944e+00  1.0379152503260121e+00  1.0319266454239528e+00  1.0235731466685538e+00  1.0157828795297159e+00  1.0090678115630201e+00  1.0048884306460457e+00  1.0022291457421897e+00  1.0011194520654862e+00  1.0006535037281268e+00  1.0017933589069450e+00  1.0024459427532688e+00  1.0046864989225939e+00  1.0090735888989413e+00  1.0152209099607512e+00  1.0233225892174704e+00  1.0315710745443332e+00  1.0385305787742438e+00  1.0424256152527311e+00  1.0431172400002979e+00  1.0408537512608069e+00  1.0372625604510366e+00  1.0330234941070162e+00  1.0294892924297987e+00  1.0265219395474450e+00  1.0250437561980339e+00  1.0245166141797344e+00  1.0253215810542360e+00  1.0267735430665659e+00  1.0286138386320567e+00  1.0298061159878202e+00  1.0303363616127257e+00  1.0293964629479009e+00  1.0275353207611091e+00  1.0244761115364263e+00  1.0210834852355521e+00  1.0170438709607652e+00  1.0133196581422099e+00  1.0095358479079577e+00  1.0063523467017983e+00  1.0033724017659928e+00  1.0011228125873111e+00  9.9910619572295567e-01  9.9768632082024977e-01  9.9654935474147099e-01  9.9580729905985710e-01  9.9510528241470486e-01  9.9480091440735707e-01  9.9435285062341050e-01  9.9411038262588725e-01  9.9384768966741932e-01  9.9356575820336801e-01  9.9331183797060785e-01  9.9302644421177211e-01  9.9274643624136927e-01  9.9252921513821712e-01  9.9226015319072691e-01  9.9208860250654018e-01  9.9200956200106738e-01  9.9180466190527916e-01  9.9180547256015195e-01  9.9188601614476279e-01  9.9181803501322974e-01  9.9211504646168491e-01  9.9224692689282235e-01  9.9250510080482734e-01  9.9276541750554326e-01  9.9316790493362206e-01  9.9332496336689269e-01  9.9388472390792537e-01  9.9405190838262614e-01  9.9463051827310345e-01  9.9490469219523436e-01  9.9550235184579072e-01  9.9582041860121284e-01  9.9670151104049165e-01  9.9713067074606221e-01  9.9845821428838710e-01  9.9941517374367594e-01  1.0014232953862747e+00  1.0032542439497423e+00  1.0062612125805499e+00  1.0090181776977150e+00  1.0131039204992329e+00  1.0165271334287023e+00  1.0209453705533120e+00  1.0241369770287683e+00  1.0275724448652888e+00  1.0290327696383785e+00  1.0302869016191338e+00  1.0292698342461832e+00  1.0285584531819083e+00  1.0262961960615793e+00  1.0253956796777888e+00  1.0240825571873438e+00  1.0250148300188087e+00  1.0259816534841117e+00  1.0293384540447501e+00  1.0323278631650861e+00  1.0368604273269830e+00  1.0397834937737485e+00  1.0425363974284207e+00  1.0419654950017756e+00  1.0392991712869808e+00  1.0324881683582170e+00  1.0245374777196539e+00  1.0157828795297179e+00  1.0094072703819756e+00  1.0046925884770501e+00  1.0025816154559746e+00  1.0016514629329392e+00  1.0041269581840260e+00  1.0051161289083925e+00  1.0088617578459806e+00  1.0150140476070848e+00  1.0230672027023597e+00  1.0315710745443334e+00  1.0385784147105530e+00  1.0424393083949544e+00  1.0428717132996821e+00  1.0402593955771704e+00  1.0360696932443809e+00  1.0311767991147425e+00  1.0264657417506717e+00  1.0219773246545365e+00  1.0181861160646981e+00  1.0149669037940816e+00  1.0126688321977093e+00  1.0114107967019914e+00  1.0112073943569408e+00  1.0119218998549551e+00  1.0133645264474627e+00  1.0150736687631841e+00  1.0166044589840288e+00  1.0176998680735370e+00  1.0180637620998105e+00  1.0177522095733487e+00  1.0168156685492695e+00  1.0156250916029081e+00  1.0140832947150407e+00  1.0126992742204395e+00  1.0113415166566064e+00  1.0102871614239373e+00  1.0093514687719249e+00  1.0087958065188203e+00  1.0082137850267283e+00  1.0078470134769979e+00  1.0074612416525253e+00  1.0071265744784406e+00  1.0066457132800333e+00  1.0062835152624290e+00  1.0056888674814681e+00  1.0052004618194830e+00  1.0046272917380006e+00  1.0040746282784343e+00  1.0036185949284191e+00  1.0030823873799259e+00  1.0027359804233673e+00  1.0024071252192304e+00  1.0021063921155353e+00  1.0019813611542039e+00  1.0019909984015742e+00  1.0019233875536080e+00  1.0021388176300543e+00  1.0023865193026087e+00  1.0025596906076537e+00  1.0031055111206786e+00  1.0034668461692859e+00  1.0040777838232624e+00  1.0046184531040772e+00  1.0053748292585338e+00  1.0058346806819065e+00  1.0066943999433848e+00  1.0069809817657185e+00  1.0077585068927613e+00  1.0079360344208077e+00  1.0085395711662890e+00  1.0085993157069677e+00  1.0092899369913901e+00  1.0093654085218986e+00  1.0104622284020031e+00  1.0109587946484166e+00  1.0126425747956771e+00  1.0137956925657396e+00  1.0159022411609346e+00  1.0170601006555617e+00  1.0188185769349689e+00  1.0188661743868874e+00  1.0191093834942724e+00  1.0174126720931562e+00  1.0160478652702998e+00  1.0133872756948366e+00  1.0120390388826945e+00  1.0103294766207160e+00  1.0110277822858706e+00  1.0118481144855775e+00  1.0151707710315208e+00  1.0182272018981959e+00  1.0231376127821652e+00  1.0269785970783509e+00  1.0320660321003097e+00  1.0354861551945029e+00  1.0396249070698684e+00  1.0411207483399258e+00  1.0418070096559129e+00  1.0381665925071009e+00  1.0324881683582179e+00  1.0235731466685529e+00  1.0157439813994538e+00  1.0087877243771204e+00  1.0053473042283003e+00  1.0036241051191972e+00  1.0084757098922486e+00  1.0098945137084792e+00  1.0150956841215448e+00  1.0228190449895409e+00  1.0312034525654818e+00  1.0385305787742440e+00  1.0424393083949548e+00  1.0429193620776100e+00  1.0401104577094753e+00  1.0356588411405545e+00  1.0303893987111270e+00  1.0252312419225504e+00  1.0199458199054274e+00  1.0151816835083833e+00  1.0104195001829670e+00  1.0063599029351660e+00  1.0028006404258356e+00  1.0002634279337375e+00  9.9864051501693929e-01  9.9839947948660379e-01  9.9918411827789577e-01  1.0011691070209379e+00  1.0036830838059652e+00  1.0067648167401779e+00  1.0095305351298924e+00  1.0122387858709192e+00  1.0143026734351990e+00  1.0160716156863001e+00  1.0172683474483344e+00  1.0184502393786710e+00  1.0191066482991922e+00  1.0198334851169302e+00  1.0201602710767450e+00  1.0204026050248536e+00  1.0202495186779752e+00  1.0200768887652005e+00  1.0194565373269422e+00  1.0188526472233543e+00  1.0179628365231612e+00  1.0171346370065748e+00  1.0161271250422181e+00  1.0153176125591201e+00  1.0143687042202096e+00  1.0136777682535547e+00  1.0128915132507932e+00  1.0123494122272663e+00  1.0118707911762406e+00  1.0114427403155850e+00  1.0112339559308263e+00  1.0111276499365573e+00  1.0109825254756857e+00  1.0111520259630569e+00  1.0113035022137198e+00  1.0115684272080294e+00  1.0119911850771546e+00  1.0125785344221889e+00  1.0130012076605410e+00  1.0138849634751730e+00  1.0144280625592015e+00  1.0153620824614249e+00  1.0160351567372377e+00  1.0170316094018212e+00  1.0176568114464679e+00  1.0187148180068444e+00  1.0191182305083195e+00  1.0200428605098755e+00  1.0201874668276139e+00  1.0207445729836309e+00  1.0205112271907697e+00  1.0206635773872470e+00  1.0198636398505119e+00  1.0195822608162965e+00  1.0180633171685689e+00  1.0169658329897313e+00  1.0145744026981225e+00  1.0123934335717648e+00  1.0089881063089829e+00  1.0061865889770170e+00  1.0025745828623851e+00  1.0003965640779227e+00  9.9815296353583149e-01  9.9791393869734424e-01  9.9800864555083535e-01  1.0001420969028516e+00  1.0022587062942292e+00  1.0062170298887507e+00  1.0097523985840815e+00  1.0149913530523793e+00  1.0195032573028575e+00  1.0255167855029776e+00  1.0302636013650177e+00  1.0359069509039340e+00  1.0392656466204995e+00  1.0425166373630712e+00  1.0418070096559124e+00  1.0392991712869806e+00  1.0319266454239531e+00  1.0240166723678219e+00  1.0152088841876550e+00  1.0101836605325285e+00  1.0075399125495181e+00  1.0154952017197996e+00  1.0170422144675346e+00  1.0233245172000145e+00  1.0309479844289269e+00  1.0381991565679101e+00  1.0424256152527307e+00  1.0428717132996828e+00  1.0401104577094753e+00  1.0354715479037575e+00  1.0300768184214162e+00  1.0248034806840751e+00  1.0193334750460039e+00  1.0143540957093466e+00  1.0092357935769951e+00  1.0045753654393084e+00  1.0001608521904832e+00  9.9621177562793539e-01  9.9282558209635197e-01  9.9020402158278265e-01  9.8840068255278435e-01  9.8775628767327339e-01  9.8818826239066