<?xml version="1.0"?>
<VTKFile type="UnstructuredGrid"  version="0.1"  >
<UnstructuredGrid>
<Piece  NumberOfPoints="10201" NumberOfCells="20000">
<Points>
<DataArray  type="Float64"  NumberOfComponents="3"  format="ascii">-5 -5 0  -4.9 -5 0  -4.8 -5 0  -4.7 -5 0  -4.6 -5 0  -4.5 -5 0  -4.4 -5 0  -4.3 -5 0  -4.2 -5 0  -4.1 -5 0  -4 -5 0  -3.9 -5 0  -3.8 -5 0  -3.7 -5 0  -3.6 -5 0  -3.5 -5 0  -3.4 -5 0  -3.3 -5 0  -3.2 -5 0  -3.1 -5 0  -3 -5 0  -2.9 -5 0  -2.8 -5 0  -2.7 -5 0  -2.6 -5 0  -2.5 -5 0  -2.4 -5 0  -2.3 -5 0  -2.2 -5 0  -2.1 -5 0  -2 -5 0  -1.9 -5 0  -1.8 -5 0  -1.7 -5 0  -1.6 -5 0  -1.5 -5 0  -1.4 -5 0  -1.3 -5 0  -1.2 -5 0  -1.1 -5 0  -1 -5 0  -0.9000000000000004 -5 0  -0.7999999999999998 -5 0  -0.7000000000000002 -5 0  -0.5999999999999996 -5 0  -0.5 -5 0  -0.4000000000000004 -5 0  -0.2999999999999998 -5 0  -0.2000000000000002 -5 0  -0.09999999999999964 -5 0  0 -5 0  0.09999999999999964 -5 0  0.2000000000000002 -5 0  0.2999999999999998 -5 0  0.4000000000000004 -5 0  0.5 -5 0  0.5999999999999996 -5 0  0.7000000000000002 -5 0  0.7999999999999998 -5 0  0.9000000000000004 -5 0  1 -5 0  1.1 -5 0  1.2 -5 0  1.3 -5 0  1.4 -5 0  1.5 -5 0  1.6 -5 0  1.7 -5 0  1.8 -5 0  1.9 -5 0  2 -5 0  2.1 -5 0  2.2 -5 0  2.3 -5 0  2.4 -5 0  2.5 -5 0  2.6 -5 0  2.7 -5 0  2.8 -5 0  2.9 -5 0  3 -5 0  3.1 -5 0  3.199999999999999 -5 0  3.300000000000001 -5 0  3.4 -5 0  3.5 -5 0  3.6 -5 0  3.699999999999999 -5 0  3.800000000000001 -5 0  3.9 -5 0  4 -5 0  4.1 -5 0  4.199999999999999 -5 0  4.300000000000001 -5 0  4.4 -5 0  4.5 -5 0  4.6 -5 0  4.699999999999999 -5 0  4.800000000000001 -5 0  4.9 -5 0  5 -5 0  -5 -4.9 0  -4.9 -4.9 0  -4.8 -4.9 0  -4.7 -4.9 0  -4.6 -4.9 0  -4.5 -4.9 0  -4.4 -4.9 0  -4.3 -4.9 0  -4.2 -4.9 0  -4.1 -4.9 0  -4 -4.9 0  -3.9 -4.9 0  -3.8 -4.9 0  -3.7 -4.9 0  -3.6 -4.9 0  -3.5 -4.9 0  -3.4 -4.9 0  -3.3 -4.9 0  -3.2 -4.9 0  -3.1 -4.9 0  -3 -4.9 0  -2.9 -4.9 0  -2.8 -4.9 0  -2.7 -4.9 0  -2.6 -4.9 0  -2.5 -4.9 0  -2.4 -4.9 0  -2.3 -4.9 0  -2.2 -4.9 0  -2.1 -4.9 0  -2 -4.9 0  -1.9 -4.9 0  -1.8 -4.9 0  -1.7 -4.9 0  -1.6 -4.9 0  -1.5 -4.9 0  -1.4 -4.9 0  -1.3 -4.9 0  -1.2 -4.9 0  -1.1 -4.9 0  -1 -4.9 0  -0.9000000000000004 -4.9 0  -0.7999999999999998 -4.9 0  -0.7000000000000002 -4.9 0  -0.5999999999999996 -4.9 0  -0.5 -4.9 0  -0.4000000000000004 -4.9 0  -0.2999999999999998 -4.9 0  -0.2000000000000002 -4.9 0  -0.09999999999999964 -4.9 0  0 -4.9 0  0.09999999999999964 -4.9 0  0.2000000000000002 -4.9 0  0.2999999999999998 -4.9 0  0.4000000000000004 -4.9 0  0.5 -4.9 0  0.5999999999999996 -4.9 0  0.7000000000000002 -4.9 0  0.7999999999999998 -4.9 0  0.9000000000000004 -4.9 0  1 -4.9 0  1.1 -4.9 0  1.2 -4.9 0  1.3 -4.9 0  1.4 -4.9 0  1.5 -4.9 0  1.6 -4.9 0  1.7 -4.9 0  1.8 -4.9 0  1.9 -4.9 0  2 -4.9 0  2.1 -4.9 0  2.2 -4.9 0  2.3 -4.9 0  2.4 -4.9 0  2.5 -4.9 0  2.6 -4.9 0  2.7 -4.9 0  2.8 -4.9 0  2.9 -4.9 0  3 -4.9 0  3.1 -4.9 0  3.199999999999999 -4.9 0  3.300000000000001 -4.9 0  3.4 -4.9 0  3.5 -4.9 0  3.6 -4.9 0  3.699999999999999 -4.9 0  3.800000000000001 -4.9 0  3.9 -4.9 0  4 -4.9 0  4.1 -4.9 0  4.199999999999999 -4.9 0  4.300000000000001 -4.9 0  4.4 -4.9 0  4.5 -4.9 0  4.6 -4.9 0  4.699999999999999 -4.9 0  4.800000000000001 -4.9 0  4.9 -4.9 0  5 -4.9 0  -5 -4.8 0  -4.9 -4.8 0  -4.8 -4.8 0  -4.7 -4.8 0  -4.6 -4.8 0  -4.5 -4.8 0  -4.4 -4.8 0  -4.3 -4.8 0  -4.2 -4.8 0  -4.1 -4.8 0  -4 -4.8 0  -3.9 -4.8 0  -3.8 -4.8 0  -3.7 -4.8 0  -3.6 -4.8 0  -3.5 -4.8 0  -3.4 -4.8 0  -3.3 -4.8 0  -3.2 -4.8 0  -3.1 -4.8 0  -3 -4.8 0  -2.9 -4.8 0  -2.8 -4.8 0  -2.7 -4.8 0  -2.6 -4.8 0  -2.5 -4.8 0  -2.4 -4.8 0  -2.3 -4.8 0  -2.2 -4.8 0  -2.1 -4.8 0  -2 -4.8 0  -1.9 -4.8 0  -1.8 -4.8 0  -1.7 -4.8 0  -1.6 -4.8 0  -1.5 -4.8 0  -1.4 -4.8 0  -1.3 -4.8 0  -1.2 -4.8 0  -1.1 -4.8 0  -1 -4.8 0  -0.9000000000000004 -4.8 0  -0.7999999999999998 -4.8 0  -0.7000000000000002 -4.8 0  -0.5999999999999996 -4.8 0  -0.5 -4.8 0  -0.4000000000000004 -4.8 0  -0.2999999999999998 -4.8 0  -0.2000000000000002 -4.8 0  -0.09999999999999964 -4.8 0  0 -4.8 0  0.09999999999999964 -4.8 0  0.2000000000000002 -4.8 0  0.2999999999999998 -4.8 0  0.4000000000000004 -4.8 0  0.5 -4.8 0  0.5999999999999996 -4.8 0  0.7000000000000002 -4.8 0  0.7999999999999998 -4.8 0  0.9000000000000004 -4.8 0  1 -4.8 0  1.1 -4.8 0  1.2 -4.8 0  1.3 -4.8 0  1.4 -4.8 0  1.5 -4.8 0  1.6 -4.8 0  1.7 -4.8 0  1.8 -4.8 0  1.9 -4.8 0  2 -4.8 0  2.1 -4.8 0  2.2 -4.8 0  2.3 -4.8 0  2.4 -4.8 0  2.5 -4.8 0  2.6 -4.8 0  2.7 -4.8 0  2.8 -4.8 0  2.9 -4.8 0  3 -4.8 0  3.1 -4.8 0  3.199999999999999 -4.8 0  3.300000000000001 -4.8 0  3.4 -4.8 0  3.5 -4.8 0  3.6 -4.8 0  3.699999999999999 -4.8 0  3.800000000000001 -4.8 0  3.9 -4.8 0  4 -4.8 0  4.1 -4.8 0  4.199999999999999 -4.8 0  4.300000000000001 -4.8 0  4.4 -4.8 0  4.5 -4.8 0  4.6 -4.8 0  4.699999999999999 -4.8 0  4.800000000000001 -4.8 0  4.9 -4.8 0  5 -4.8 0  -5 -4.7 0  -4.9 -4.7 0  -4.8 -4.7 0  -4.7 -4.7 0  -4.6 -4.7 0  -4.5 -4.7 0  -4.4 -4.7 0  -4.3 -4.7 0  -4.2 -4.7 0  -4.1 -4.7 0  -4 -4.7 0  -3.9 -4.7 0  -3.8 -4.7 0  -3.7 -4.7 0  -3.6 -4.7 0  -3.5 -4.7 0  -3.4 -4.7 0  -3.3 -4.7 0  -3.2 -4.7 0  -3.1 -4.7 0  -3 -4.7 0  -2.9 -4.7 0  -2.8 -4.7 0  -2.7 -4.7 0  -2.6 -4.7 0  -2.5 -4.7 0  -2.4 -4.7 0  -2.3 -4.7 0  -2.2 -4.7 0  -2.1 -4.7 0  -2 -4.7 0  -1.9 -4.7 0  -1.8 -4.7 0  -1.7 -4.7 0  -1.6 -4.7 0  -1.5 -4.7 0  -1.4 -4.7 0  -1.3 -4.7 0  -1.2 -4.7 0  -1.1 -4.7 0  -1 -4.7 0  -0.9000000000000004 -4.7 0  -0.7999999999999998 -4.7 0  -0.7000000000000002 -4.7 0  -0.5999999999999996 -4.7 0  -0.5 -4.7 0  -0.4000000000000004 -4.7 0  -0.2999999999999998 -4.7 0  -0.2000000000000002 -4.7 0  -0.09999999999999964 -4.7 0  0 -4.7 0  0.09999999999999964 -4.7 0  0.2000000000000002 -4.7 0  0.2999999999999998 -4.7 0  0.4000000000000004 -4.7 0  0.5 -4.7 0  0.5999999999999996 -4.7 0  0.7000000000000002 -4.7 0  0.7999999999999998 -4.7 0  0.9000000000000004 -4.7 0  1 -4.7 0  1.1 -4.7 0  1.2 -4.7 0  1.3 -4.7 0  1.4 -4.7 0  1.5 -4.7 0  1.6 -4.7 0  1.7 -4.7 0  1.8 -4.7 0  1.9 -4.7 0  2 -4.7 0  2.1 -4.7 0  2.2 -4.7 0  2.3 -4.7 0  2.4 -4.7 0  2.5 -4.7 0  2.6 -4.7 0  2.7 -4.7 0  2.8 -4.7 0  2.9 -4.7 0  3 -4.7 0  3.1 -4.7 0  3.199999999999999 -4.7 0  3.300000000000001 -4.7 0  3.4 -4.7 0  3.5 -4.7 0  3.6 -4.7 0  3.699999999999999 -4.7 0  3.800000000000001 -4.7 0  3.9 -4.7 0  4 -4.7 0  4.1 -4.7 0  4.199999999999999 -4.7 0  4.300000000000001 -4.7 0  4.4 -4.7 0  4.5 -4.7 0  4.6 -4.7 0  4.699999999999999 -4.7 0  4.800000000000001 -4.7 0  4.9 -4.7 0  5 -4.7 0  -5 -4.6 0  -4.9 -4.6 0  -4.8 -4.6 0  -4.7 -4.6 0  -4.6 -4.6 0  -4.5 -4.6 0  -4.4 -4.6 0  -4.3 -4.6 0  -4.2 -4.6 0  -4.1 -4.6 0  -4 -4.6 0  -3.9 -4.6 0  -3.8 -4.6 0  -3.7 -4.6 0  -3.6 -4.6 0  -3.5 -4.6 0  -3.4 -4.6 0  -3.3 -4.6 0  -3.2 -4.6 0  -3.1 -4.6 0  -3 -4.6 0  -2.9 -4.6 0  -2.8 -4.6 0  -2.7 -4.6 0  -2.6 -4.6 0  -2.5 -4.6 0  -2.4 -4.6 0  -2.3 -4.6 0  -2.2 -4.6 0  -2.1 -4.6 0  -2 -4.6 0  -1.9 -4.6 0  -1.8 -4.6 0  -1.7 -4.6 0  -1.6 -4.6 0  -1.5 -4.6 0  -1.4 -4.6 0  -1.3 -4.6 0  -1.2 -4.6 0  -1.1 -4.6 0  -1 -4.6 0  -0.9000000000000004 -4.6 0  -0.7999999999999998 -4.6 0  -0.7000000000000002 -4.6 0  -0.5999999999999996 -4.6 0  -0.5 -4.6 0  -0.4000000000000004 -4.6 0  -0.2999999999999998 -4.6 0  -0.2000000000000002 -4.6 0  -0.09999999999999964 -4.6 0  0 -4.6 0  0.09999999999999964 -4.6 0  0.2000000000000002 -4.6 0  0.2999999999999998 -4.6 0  0.4000000000000004 -4.6 0  0.5 -4.6 0  0.5999999999999996 -4.6 0  0.7000000000000002 -4.6 0  0.7999999999999998 -4.6 0  0.9000000000000004 -4.6 0  1 -4.6 0  1.1 -4.6 0  1.2 -4.6 0  1.3 -4.6 0  1.4 -4.6 0  1.5 -4.6 0  1.6 -4.6 0  1.7 -4.6 0  1.8 -4.6 0  1.9 -4.6 0  2 -4.6 0  2.1 -4.6 0  2.2 -4.6 0  2.3 -4.6 0  2.4 -4.6 0  2.5 -4.6 0  2.6 -4.6 0  2.7 -4.6 0  2.8 -4.6 0  2.9 -4.6 0  3 -4.6 0  3.1 -4.6 0  3.199999999999999 -4.6 0  3.300000000000001 -4.6 0  3.4 -4.6 0  3.5 -4.6 0  3.6 -4.6 0  3.699999999999999 -4.6 0  3.800000000000001 -4.6 0  3.9 -4.6 0  4 -4.6 0  4.1 -4.6 0  4.199999999999999 -4.6 0  4.300000000000001 -4.6 0  4.4 -4.6 0  4.5 -4.6 0  4.6 -4.6 0  4.699999999999999 -4.6 0  4.800000000000001 -4.6 0  4.9 -4.6 0  5 -4.6 0  -5 -4.5 0  -4.9 -4.5 0  -4.8 -4.5 0  -4.7 -4.5 0  -4.6 -4.5 0  -4.5 -4.5 0  -4.4 -4.5 0  -4.3 -4.5 0  -4.2 -4.5 0  -4.1 -4.5 0  -4 -4.5 0  -3.9 -4.5 0  -3.8 -4.5 0  -3.7 -4.5 0  -3.6 -4.5 0  -3.5 -4.5 0  -3.4 -4.5 0  -3.3 -4.5 0  -3.2 -4.5 0  -3.1 -4.5 0  -3 -4.5 0  -2.9 -4.5 0  -2.8 -4.5 0  -2.7 -4.5 0  -2.6 -4.5 0  -2.5 -4.5 0  -2.4 -4.5 0  -2.3 -4.5 0  -2.2 -4.5 0  -2.1 -4.5 0  -2 -4.5 0  -1.9 -4.5 0  -1.8 -4.5 0  -1.7 -4.5 0  -1.6 -4.5 0  -1.5 -4.5 0  -1.4 -4.5 0  -1.3 -4.5 0  -1.2 -4.5 0  -1.1 -4.5 0  -1 -4.5 0  -0.9000000000000004 -4.5 0  -0.7999999999999998 -4.5 0  -0.7000000000000002 -4.5 0  -0.5999999999999996 -4.5 0  -0.5 -4.5 0  -0.4000000000000004 -4.5 0  -0.2999999999999998 -4.5 0  -0.2000000000000002 -4.5 0  -0.09999999999999964 -4.5 0  0 -4.5 0  0.09999999999999964 -4.5 0  0.2000000000000002 -4.5 0  0.2999999999999998 -4.5 0  0.4000000000000004 -4.5 0  0.5 -4.5 0  0.5999999999999996 -4.5 0  0.7000000000000002 -4.5 0  0.7999999999999998 -4.5 0  0.9000000000000004 -4.5 0  1 -4.5 0  1.1 -4.5 0  1.2 -4.5 0  1.3 -4.5 0  1.4 -4.5 0  1.5 -4.5 0  1.6 -4.5 0  1.7 -4.5 0  1.8 -4.5 0  1.9 -4.5 0  2 -4.5 0  2.1 -4.5 0  2.2 -4.5 0  2.3 -4.5 0  2.4 -4.5 0  2.5 -4.5 0  2.6 -4.5 0  2.7 -4.5 0  2.8 -4.5 0  2.9 -4.5 0  3 -4.5 0  3.1 -4.5 0  3.199999999999999 -4.5 0  3.300000000000001 -4.5 0  3.4 -4.5 0  3.5 -4.5 0  3.6 -4.5 0  3.699999999999999 -4.5 0  3.800000000000001 -4.5 0  3.9 -4.5 0  4 -4.5 0  4.1 -4.5 0  4.199999999999999 -4.5 0  4.300000000000001 -4.5 0  4.4 -4.5 0  4.5 -4.5 0  4.6 -4.5 0  4.699999999999999 -4.5 0  4.800000000000001 -4.5 0  4.9 -4.5 0  5 -4.5 0  -5 -4.4 0  -4.9 -4.4 0  -4.8 -4.4 0  -4.7 -4.4 0  -4.6 -4.4 0  -4.5 -4.4 0  -4.4 -4.4 0  -4.3 -4.4 0  -4.2 -4.4 0  -4.1 -4.4 0  -4 -4.4 0  -3.9 -4.4 0  -3.8 -4.4 0  -3.7 -4.4 0  -3.6 -4.4 0  -3.5 -4.4 0  -3.4 -4.4 0  -3.3 -4.4 0  -3.2 -4.4 0  -3.1 -4.4 0  -3 -4.4 0  -2.9 -4.4 0  -2.8 -4.4 0  -2.7 -4.4 0  -2.6 -4.4 0  -2.5 -4.4 0  -2.4 -4.4 0  -2.3 -4.4 0  -2.2 -4.4 0  -2.1 -4.4 0  -2 -4.4 0  -1.9 -4.4 0  -1.8 -4.
[...]
<PointData  Scalars="f_27-1"> 
<DataArray  type="Float64"  Name="f_27-1"  format="ascii">1.0000000139193208e+00  9.9999999518217975e-01  1.0000000110510683e+00  1.0000000088853060e+00  1.0000000298877498e+00  1.0000000524862418e+00  1.0000001107091299e+00  1.0000001999147212e+00  1.0000003506444044e+00  1.0000005831770693e+00  1.0000009061181871e+00  1.0000013011901858e+00  1.0000017483037542e+00  1.0000021638950769e+00  1.0000024168596875e+00  1.0000024490763915e+00  1.0000022669885449e+00  1.0000018860678330e+00  1.0000014775495440e+00  1.0000013055827692e+00  1.0000013410031987e+00  1.0000013539546440e+00  1.0000013047116236e+00  1.0000011331420064e+00  1.0000006950082840e+00  1.0000002990679799e+00  1.0000003216893603e+00  1.0000003771867116e+00  1.0000000915295526e+00  9.9999987750854336e-01  9.9999995431845912e-01  1.0000000275048009e+00  1.0000000914135372e+00  1.0000000906868105e+00  9.9999983603238118e-01  9.9999984202810044e-01  1.0000002648837054e+00  1.0000001432466274e+00  9.9999964280495002e-01  9.9999995675903597e-01  1.0000003925285357e+00  9.9999989377287068e-01  9.9999966228416337e-01  1.0000002432517225e+00  1.0000001992198670e+00  9.9999969225229568e-01  9.9999997518897876e-01  1.0000002729579192e+00  9.9999988100769199e-01  9.9999984000471642e-01  1.0000001819902520e+00  1.0000000254041348e+00  9.9999984383687235e-01  1.0000000713260018e+00  1.0000000760987253e+00  9.9999990028200147e-01  1.0000000053345135e+00  1.0000000698537677e+00  9.9999995115157825e-01  9.9999998168719484e-01  1.0000000471082087e+00  9.9999998101289755e-01  9.9999997998147261e-01  1.0000000272792133e+00  9.9999999444852805e-01  9.9999998523995781e-01  1.0000000146242329e+00  9.9999999914780724e-01  9.9999999075567825e-01  1.0000000076601057e+00  1.0000000002233245e+00  9.9999999473867540e-01  1.0000000040363126e+00  1.0000000002230123e+00  9.9999999714413079e-01  1.0000000022534725e+00  9.9999999993169342e-01  9.9999999863374778e-01  1.0000000011805890e+00  9.9999999989496879e-01  9.9999999928675276e-01  1.0000000007529111e+00  9.9999999973034759e-01  9.9999999980240906e-01  1.0000000003321594e+00  9.9999999982017707e-01  9.9999999997311295e-01  1.0000000001040714e+00  9.9999999997765465e-01  9.9999999986523180e-01  1.0000000002697036e+00  9.9999999966294451e-01  1.0000000003492779e+00  9.9999999965817021e-01  1.0000000003424261e+00  9.9999999964974795e-01  1.0000000003512417e+00  9.9999999966714626e-01  1.0000000003378267e+00  9.9999999935661332e-01  1.0000000016640755e+00  9.9999999518217930e-01  9.9999998824318292e-01  9.9999999696972830e-01  9.9999997142107977e-01  9.9999995118863216e-01  9.9999988688723140e-01  9.9999977887565461e-01  9.9999955739126389e-01  9.9999918740968641e-01  9.9999857435256079e-01  9.9999761071973059e-01  9.9999623262655202e-01  9.9999443251352726e-01  9.9999222298251456e-01  9.9998980539549553e-01  9.9998755773336856e-01  9.9998573087635689e-01  9.9998449537480461e-01  9.9998407747642737e-01  9.9998429833934943e-01  9.9998464504986806e-01  9.9998520123595591e-01  9.9998634684018406e-01  9.9998784870791446e-01  9.9998968070655025e-01  9.9999226121551166e-01  9.9999484746242506e-01  9.9999636467454578e-01  9.9999751357541855e-01  9.9999893582958732e-01  9.9999966944419172e-01  9.9999968949161189e-01  9.9999993516971264e-01  9.9999998110626764e-01  9.9999975709689226e-01  1.0000001866128732e+00  1.0000003480795201e+00  9.9999956486199204e-01  9.9999974064934005e-01  1.0000006453328012e+00  9.9999999962444364e-01  9.9999931211114712e-01  1.0000003295446025e+00  1.0000005127388045e+00  9.9999942907659467e-01  9.9999982365309892e-01  1.0000006054085839e+00  9.9999982482755156e-01  9.9999957897653990e-01  1.0000003873375578e+00  1.0000001214522973e+00  9.9999961333839393e-01  1.0000001381497010e+00  1.0000002187972175e+00  9.9999975427203514e-01  9.9999999045391352e-01  1.0000001925722453e+00  9.9999987861267703e-01  9.9999993954765631e-01  1.0000001308705113e+00  9.9999995221157434e-01  9.9999993968560574e-01  1.0000000777673617e+00  9.9999998568681692e-01  9.9999995596180313e-01  1.0000000432429217e+00  9.9999999741566603e-01  9.9999997223687498e-01  1.0000000236112896e+00  1.0000000000362701e+00  9.9999998403994106e-01  1.0000000130067399e+00  9.9999999990907640e-01  9.9999999141052243e-01  1.0000000073862045e+00  9.9999999925505301e-01  9.9999999587139277e-01  1.0000000040535577e+00  9.9999999913878979e-01  9.9999999808174500e-01  1.0000000023843685e+00  9.9999999894478109e-01  9.9999999954691365e-01  1.0000000010214294e+00  9.9999999937554818e-01  9.9999999991471744e-01  1.0000000004926233e+00  9.9999999958395913e-01  1.0000000000513749e+00  1.0000000003070066e+00  9.9999999950943541e-01  1.0000000005058380e+00  9.9999999954497876e-01  1.0000000004297289e+00  9.9999999953707208e-01  1.0000000005261247e+00  9.9999999941233897e-01  1.0000000006283647e+00  9.9999999932090822e-01  1.0000000007174432e+00  9.9999999935661343e-01  1.0000000110510687e+00  9.9999999696972819e-01  1.0000000267380247e+00  1.0000000163322111e+00  1.0000000778401488e+00  1.0000001439946005e+00  1.0000003147162120e+00  1.0000006273792035e+00  1.0000012243019589e+00  1.0000022136935032e+00  1.0000038453439737e+00  1.0000063419741285e+00  1.0000097935847898e+00  1.0000142300639379e+00  1.0000195105290204e+00  1.0000249681337519e+00  1.0000297982271331e+00  1.0000335548573545e+00  1.0000357398130562e+00  1.0000360865816105e+00  1.0000354976929724e+00  1.0000347545379864e+00  1.0000331251411876e+00  1.0000302523288018e+00  1.0000267203053175e+00  1.0000218966864503e+00  1.0000156851322290e+00  1.0000106657516930e+00  1.0000076913991691e+00  1.0000045662362600e+00  1.0000016543513073e+00  1.0000008135595113e+00  1.0000005897974362e+00  1.0000000052616465e+00  1.0000002993064523e+00  1.0000002378573234e+00  9.9999923079550923e-01  9.9999997326459722e-01  1.0000010854471333e+00  9.9999952808934189e-01  9.9999894447152549e-01  1.0000010092699332e+00  1.0000006129402894e+00  9.9999869127955598e-01  1.0000000725826150e+00  1.0000011808040763e+00  9.9999930539249748e-01  9.9999933683693698e-01  1.0000009702849586e+00  1.0000000053610059e+00  9.9999919191176445e-01  1.0000004787474948e+00  1.0000003561589828e+00  9.9999939981680930e-01  1.0000001033263894e+00  1.0000003949772767e+00  9.9999966141098562e-01  9.9999993008897803e-01  1.0000002992764760e+00  9.9999984411663467e-01  9.9999989172150172e-01  1.0000001899035740e+00  9.9999993961859068e-01  9.9999990978478015e-01  1.0000001098997198e+00  9.9999997969095511e-01  9.9999993943584431e-01  1.0000000611711419e+00  9.9999999307870513e-01  9.9999996402780200e-01  1.0000000337837949e+00  9.9999999644451454e-01  9.9999998037221272e-01  1.0000000189435183e+00  9.9999999671850293e-01  9.9999999051228028e-01  1.0000000102890831e+00  9.9999999722866140e-01  9.9999999565457109e-01  1.0000000058988081e+00  9.9999999718736798e-01  9.9999999905088977e-01  1.0000000024609559e+00  9.9999999847736853e-01  9.9999999972008691e-01  1.0000000013807480e+00  9.9999999871595624e-01  1.0000000004582770e+00  1.0000000003621510e+00  9.9999999924735372e-01  1.0000000007316938e+00  9.9999999944121531e-01  1.0000000004716214e+00  9.9999999945376317e-01  1.0000000007217580e+00  9.9999999912191273e-01  1.0000000009511640e+00  9.9999999908181736e-01  1.0000000008206777e+00  9.9999999932090766e-01  1.0000000003378271e+00  1.0000000088853056e+00  9.9999997142107899e-01  1.0000000163322105e+00  9.9999994938923209e-01  9.9999996388080081e-01  9.9999984479435111e-01  9.9999972147262806e-01  9.9999940059345349e-01  9.9999881472831309e-01  9.9999776225982651e-01  9.9999604699520372e-01  9.9999326298952529e-01  9.9998919681358023e-01  9.9998380557268718e-01  9.9997704855823843e-01  9.9996939828061682e-01  9.9996205870398669e-01  9.9995587587377455e-01  9.9995128623785190e-01  9.9994911986341894e-01  9.9994911457037572e-01  9.9994947314091875e-01  9.9995018507595990e-01  9.9995283654847555e-01  9.9995691340489046e-01  9.9996202558899916e-01  9.9996991846385330e-01  9.9997891619914447e-01  9.9998494266951510e-01  9.9998942625315868e-01  9.9999481355426145e-01  9.9999807654412232e-01  9.9999852056514804e-01  9.9999948282947038e-01  9.9999999938439432e-01  9.9999926009241236e-01  1.0000003572322407e+00  1.0000011228509147e+00  9.9999887352864369e-01  9.9999908504203516e-01  1.0000018292329138e+00  1.0000001450171112e+00  9.9999797770168652e-01  1.0000008767380970e+00  1.0000015271958058e+00  9.9999836311486812e-01  9.9999948393546056e-01  1.0000017486750314e+00  9.9999946013752761e-01  9.9999881952457281e-01  1.0000011497819963e+00  1.0000002762223015e+00  9.9999890071079101e-01  1.0000004703728240e+00  1.0000005611176082e+00  9.9999927059157490e-01  1.0000000550675052e+00  1.0000005133065379e+00  9.9999960688475753e-01  9.9999989507489462e-01  1.0000003615531776e+00  9.9999981597541809e-01  9.9999987505758903e-01  1.0000002233248926e+00  9.9999992030520146e-01  9.9999990454727439e-01  1.0000001290428597e+00  9.9999996468920305e-01  9.9999993981204671e-01  1.0000000722864677e+00  9.9999998185445582e-01  9.9999996638705613e-01  1.0000000402800451e+00  9.9999998806090074e-01  9.9999998389361078e-01  1.0000000215044793e+00  9.9999999196069200e-01  9.9999999283341445e-01  1.0000000120188417e+00  9.9999999323412114e-01  9.9999999904245174e-01  1.0000000046419117e+00  9.9999999682199314e-01  9.9999999950894936e-01  1.0000000030379568e+00  9.9999999682172724e-01  1.0000000016984067e+00  9.9999999991236876e-01  9.9999999928761985e-01  1.0000000006714793e+00  9.9999999969934406e-01  1.0000000001026612e+00  9.9999999973579390e-01  1.0000000006661105e+00  9.9999999892418800e-01  1.0000000013055395e+00  9.9999999867818290e-01  1.0000000011566879e+00  9.9999999908181714e-01  1.0000000006283649e+00  9.9999999966714648e-01  1.0000000298877503e+00  9.9999995118863250e-01  1.0000000778401490e+00  9.9999996388080103e-01  1.0000000952528079e+00  1.0000000757514604e+00  1.0000002911041981e+00  1.0000005075369087e+00  1.0000010943298312e+00  1.0000021178571241e+00  1.0000038676982508e+00  1.0000067111465576e+00  1.0000111806618788e+00  1.0000173525297840e+00  1.0000252641408074e+00  1.0000348529495895e+00  1.0000449090070997e+00  1.0000537780309526e+00  1.0000609197972932e+00  1.0000656512397250e+00  1.0000670132159506e+00  1.0000667409554989e+00  1.0000669524272745e+00  1.0000657234376227e+00  1.0000615803730477e+00  1.0000563469985315e+00  1.0000487418639279e+00  1.0000369445592738e+00  1.0000261459608675e+00  1.0000194567241789e+00  1.0000122077625202e+00  1.0000049637621631e+00  1.0000026448308941e+00  1.0000019749209257e+00  1.0000000942262302e+00  1.0000004857020393e+00  1.0000007572552461e+00  9.9999850168272386e-01  9.9999973335738346e-01  1.0000022846007040e+00  9.9999910020021809e-01  9.9999775432734239e-01  1.0000021532557508e+00  1.0000012244793000e+00  9.9999718703613771e-01  1.0000003390351375e+00  1.0000024430713044e+00  9.9999831541219086e-01  9.9999880598331325e-01  1.0000021579980700e+00  9.9999971874429661e-01  9.9999837917229450e-01  1.0000012387328834e+00  1.0000005152328491e+00  9.9999868785073620e-01  1.0000004613085129e+00  1.0000007004161826e+00  9.9999917319975962e-01  1.0000000460890908e+00  1.0000005811763455e+00  9.9999955147939668e-01  9.9999990246677362e-01  1.0000003945819369e+00  9.9999977530994499e-01  9.9999989091261587e-01  1.0000002412662086e+00  9.9999988824732577e-01  9.9999992160152251e-01  1.0000001390320286e+00  9.9999994105692569e-01  9.9999995415163823e-01  1.0000000778278615e+00  9.9999996490395016e-01  9.9999997866513080e-01  1.0000000409652090e+00  9.9999997891661929e-01  9.9999999117172889e-01  1.0000000223837746e+00  9.9999998449383409e-01  1.0000000009571055e+00  1.0000000077090274e+00  9.9999999361517244e-01  9.9999999964043207e-01  1.0000000059442418e+00  9.9999999287560215e-01  1.0000000048248594e+00  9.9999999819136465e-01  1.0000000001121911e+00  9.9999999995216660e-01  1.0000000007391450e+00  9.9999999882400870e-01  1.0000000009013157e+00  9.9999999992883692e-01  9.9999999913279303e-01  1.0000000015331447e+00  9.9999999823191188e-01  1.0000000016539581e+00  9.9999999867818234e-01  1.0000000009511647e+00  9.9999999941233952e-01  1.0000000003512419e+00  1.0000000524862420e+00  9.9999988688723140e-01  1.0000001439946005e+00  9.9999984479435078e-01  1.0000000757514602e+00  9.9999982728721870e-01  9.9999985460194463e-01  9.9999949774071917e-01  9.9999913481438862e-01  9.9999813442490237e-01  9.9999651808633061e-01  9.9999383297926348e-01  9.9998948552328815e-01  9.9998301928709865e-01  9.9997460194676013e-01  9.9996410485635678e-01  9.9995205290895606e-01  9.9994068197397501e-01  9.9993141808293062e-01  9.9992423677159326e-01  9.9992045233326421e-01  9.9992017825316726e-01  9.9991961200636914e-01  9.9991827333969296e-01  9.9992039528434429e-01  9.9992540200677615e-01  9.9993131540452584e-01  9.9994236944670822e-01  9.9995753214049454e-01  9.9996846875669265e-01  9.9997685073713227e-01  9.9998789592534831e-01  9.9999508423385675e-01  9.9999604146361165e-01  9.9999827995984403e-01  1.0000001409238994e+00  9.9999867443358459e-01  1.0000003300387015e+00  1.0000020406190708e+00  9.9999804662309666e-01  9.9999838249541351e-01  1.0000033812705542e+00  1.0000000271954974e+00  9.9999631486523288e-01  1.0000020029796233e+00  1.0000025406665414e+00  9.9999664801507870e-01  9.9999957391499061e-01  1.0000032701280317e+00  9.9999842314382337e-01  9.9999814921938657e-01  1.0000024731076458e+00  9.9999996873678487e-01  9.9999801313880265e-01  1.0000013230634601e+00  1.0000006834278079e+00  9.9999851204464585e-01  1.0000004990186007e+00  1.0000007764753789e+00  9.9999907677126765e-01  1.0000000908041462e+00  1.0000006085641802e+00  9.9999948329053301e-01  9.9999995214360005e-01  1.0000004035712933e+00  9.9999972171965468e-01  9.9999993633068196e-01  1.0000002430511268e+00  9.9999984862497826e-01  9.9999995712841439e-01  1.0000001383168273e+00  9.9999991275201772e-01  9.9999998212268371e-01  1.0000000722259264e+00  9.9999995044235046e-01  9.9999999463607159e-01  1.0000000387983647e+00  9.9999996656767554e-01  1.0000000078271414e+00  1.0000000113733085e+00  9.9999998767769882e-01  1.0000000007963654e+00  1.0000000108755989e+00  9.9999998497871001e-01  1.0000000119712751e+00  9.9999999345547852e-01  1.0000000030054184e+00  9.9999999746961676e-01  1.0000000037592718e+00  9.9999999527259620e-01  1.0000000043519159e+00  9.9999999724804944e-01  1.0000000007251642e+00  1.0000000009370451e+00  9.9999999815258345e-01  1.0000000020308430e+00  9.9999999823191099e-01  1.0000000013055397e+00  9.9999999912191340e-01  1.0000000005261243e+00  9.9999999964974839e-01  1.0000001107091296e+00  9.9999977887565461e-01  1.0000003147162122e+00  9.9999972147262872e-01  1.0000002911041979e+00  9.9999985460194507e-01  1.0000003106747277e+00  1.0000002591923680e+00  1.0000008238220113e+00  1.0000014380637516e+00  1.0000030515563467e+00  1.0000054511865093e+00  1.0000094374181989e+00  1.0000157662366811e+00  1.0000244753565675e+00  1.0000352686024576e+00  1.0000483683762409e+00  1.0000620910788551e+00  1.0000733918485627e+00  1.0000821364989423e+00  1.0000884396315333e+00  1.0000902650502608e+00  1.0000901527535750e+00  1.0000930518089037e+00  1.0000951362539940e+00  1.0000917757806647e+00  1.0000871256139436e+00  1.0000800990029493e+00  1.0000645894531337e+00  1.0000479910717537e+00  1.0000374948759541e+00  1.0000248935251377e+00  1.0000108669068912e+00  1.0000061877127053e+00  1.0000050180553970e+00  1.0000006299165565e+00  1.0000005430416665e+00  1.0000015369951250e+00  9.9999774990289136e-01  9.9999952246814050e-01  1.0000037751213016e+00  9.9999822454626275e-01  9.9999640861477379e-01  1.0000040790137592e+00  1.0000015059475174e+00  9.9999495690590834e-01  1.0000014512829458e+00  1.0000039282840765e+00  9.9999631626652064e-01  9.9999872230681952e-01  1.0000040068707008e+00  9.9999857296259620e-01  9.9999755822566994e-01  1.0000027602946520e+00  1.0000001470245592e+00  9.9999770714663927e-01  1.0000014509889266e+00  1.0000007638185937e+00  9.9999835573858165e-01  1.0000006014628471e+00  1.0000007866488234e+00  9.9999897785510383e-01  1.0000001910247185e+00  1.0000005921938946e+00  9.9999940843033841e-01  1.0000000419843273e+00  1.0000003813452110e+00  9.9999966642844740e-01  1.0000000064723975e+00  1.0000002237645345e+00  9.9999980874173489e-01  1.0000000113198770e+00  1.0000001165875936e+00  9.9999989434740422e-01  1.0000000122642227e+00  1.0000000619688969e+00  9.9999993249287134e-01  1.0000000258516932e+00  1.0000000138980987e+00  9.9999997751016145e-01  1.0000000043604873e+00  1.0000000187499871e+00  9.9999997001236518e-01  1.0000000270411611e+00  9.9999998225778175e-01  1.0000000106282090e+00  9.9999999096847925e-01  1.0000000111029328e+00  9.9999998683189939e-01  1.0000000128124817e+00  9.9999999011098928e-01  1.0000000057546041e+00  9.9999999802813566e-01  9.9999999945429641e-01  1.0000000016903892e+00  9.9999999815258267e-01  1.0000000015331452e+00  9.9999999892418812e-01  1.0000000007217571e+00  9.9999999953707208e-01  1.0000000003424259e+00  1.0000001999147208e+00  9.9999955739126356e-01  1.0000006273792035e+00  9.9999940059345294e-01  1.0000005075369087e+00  9.9999949774071861e-01  1.0000002591923671e+00  9.9999945220970143e-01  9.9999957725749566e-01  9.9999869567408650e-01  9.9999766357776076e-01  9.9999523727592909e-01  9.9999184698393428e-01  9.9998609902183555e-01  9.9997745030324314e-01  9.9996660153828909e-01  9.9995353728299474e-01  9.9993840793161504e-01  9.9992479550245683e-01  9.9991524280006938e-01  9.9990777348742965e-01  9.9990353546495236e-01  9.9990401966801246e-01  9.9990230504247102e-01  9.9989588993835021e-01  9.9989422511088966e-01  9.9989789090859360e-01  9.9990064349560259e-01  9.9991030875005382e-01  9.9992984285349973e-01  9.9994512001847757e-01  9.9995721385665892e-01  9.9997617468620370e-01  9.9998961491001581e-01  9.9999115490036239e-01  9.9999549545683031e-01  1.0000002938674659e+00  9.9999792822463818e-01  1.0000000219397491e+00  1.0000031259129258e+00  9.9999686572989388e-01  9.9999771860260467e-01  1.0000056435459153e+00  9.9999926893699953e-01  9.9999412956827183e-01  1.0000043003007806e+00  1.0000033686290934e+00  9.9999377481332463e-01  1.0000006364223366e+00  1.0000052935501389e+00  9.9999610469081002e-01  9.9999789013177065e-01  1.0000046786881744e+00  9.9999867423105215e-01  9.9999706130021992e-01  1.0000030642309734e+00  1.0000002096297935e+00  9.9999746351912289e-01  1.0000016441326109e+00  1.0000007378044180e+00  9.9999822673596916e-01  1.0000007710292445e+00  1.0000007187290778e+00  9.9999889144327925e-01  1.0000003428817275e+00  1.0000005185132999e+00  9.9999934710816141e-01  1.0000001626009367e+00  1.0000003207659411e+00  9.9999962166240752e-01  1.0000001002825132e+00  1.0000001675423957e+00  9.9999979348475254e-01  1.0000000620904803e+00  1.0000000887077889e+00  9.9999987236626187e-01  1.0000000666599811e+00  1.0000000102350548e+00  9.9999996170438044e-01  1.0000000129203428e+00  1.0000000303089935e+00  9.9999994316208396e-01  1.0000000568526963e+00  9.9999995810303810e-01  1.0000000282211996e+00  9.9999997602229862e-01  1.0000000272388958e+00  9.9999996855178774e-01  1.0000000315268369e+00  9.9999997351190417e-01  1.0000000184950617e+00  9.9999998949289082e-01  1.0000000045023520e+00  9.9999999900985137e-01  9.9999999945429618e-01  1.0000000009370451e+00  9.9999999913279325e-01  1.0000000006661096e+00  9.9999999945376372e-01  1.0000000004297296e+00  9.9999999965817055e-01  1.0000003506444042e+00  9.9999918740968696e-01  1.0000012243019591e+00  9.9999881472831331e-01  1.0000010943298310e+00  9.9999913481438851e-01  1.0000008238220117e+00  9.9999957725749566e-01  1.0000009291749572e+00  1.0000006320129236e+00  1.0000020329759916e+00  1.0000036958561433e+00  1.0000070808639854e+00  1.0000117521273972e+00  1.0000197767110022e+00  1.0000307116897593e+00  1.0000432444724994e+00  1.0000582586032611e+00  1.0000739033859323e+00  1.0000848018418051e+00  1.0000913716030031e+00  1.0000969710146