<?xml version="1.0"?>
<VTKFile type="UnstructuredGrid"  version="0.1"  >
<UnstructuredGrid>
<Piece  NumberOfPoints="10201" NumberOfCells="20000">
<Points>
<DataArray  type="Float64"  NumberOfComponents="3"  format="ascii">-5 -5 0  -4.9 -5 0  -4.8 -5 0  -4.7 -5 0  -4.6 -5 0  -4.5 -5 0  -4.4 -5 0  -4.3 -5 0  -4.2 -5 0  -4.1 -5 0  -4 -5 0  -3.9 -5 0  -3.8 -5 0  -3.7 -5 0  -3.6 -5 0  -3.5 -5 0  -3.4 -5 0  -3.3 -5 0  -3.2 -5 0  -3.1 -5 0  -3 -5 0  -2.9 -5 0  -2.8 -5 0  -2.7 -5 0  -2.6 -5 0  -2.5 -5 0  -2.4 -5 0  -2.3 -5 0  -2.2 -5 0  -2.1 -5 0  -2 -5 0  -1.9 -5 0  -1.8 -5 0  -1.7 -5 0  -1.6 -5 0  -1.5 -5 0  -1.4 -5 0  -1.3 -5 0  -1.2 -5 0  -1.1 -5 0  -1 -5 0  -0.9000000000000004 -5 0  -0.7999999999999998 -5 0  -0.7000000000000002 -5 0  -0.5999999999999996 -5 0  -0.5 -5 0  -0.4000000000000004 -5 0  -0.2999999999999998 -5 0  -0.2000000000000002 -5 0  -0.09999999999999964 -5 0  0 -5 0  0.09999999999999964 -5 0  0.2000000000000002 -5 0  0.2999999999999998 -5 0  0.4000000000000004 -5 0  0.5 -5 0  0.5999999999999996 -5 0  0.7000000000000002 -5 0  0.7999999999999998 -5 0  0.9000000000000004 -5 0  1 -5 0  1.1 -5 0  1.2 -5 0  1.3 -5 0  1.4 -5 0  1.5 -5 0  1.6 -5 0  1.7 -5 0  1.8 -5 0  1.9 -5 0  2 -5 0  2.1 -5 0  2.2 -5 0  2.3 -5 0  2.4 -5 0  2.5 -5 0  2.6 -5 0  2.7 -5 0  2.8 -5 0  2.9 -5 0  3 -5 0  3.1 -5 0  3.199999999999999 -5 0  3.300000000000001 -5 0  3.4 -5 0  3.5 -5 0  3.6 -5 0  3.699999999999999 -5 0  3.800000000000001 -5 0  3.9 -5 0  4 -5 0  4.1 -5 0  4.199999999999999 -5 0  4.300000000000001 -5 0  4.4 -5 0  4.5 -5 0  4.6 -5 0  4.699999999999999 -5 0  4.800000000000001 -5 0  4.9 -5 0  5 -5 0  -5 -4.9 0  -4.9 -4.9 0  -4.8 -4.9 0  -4.7 -4.9 0  -4.6 -4.9 0  -4.5 -4.9 0  -4.4 -4.9 0  -4.3 -4.9 0  -4.2 -4.9 0  -4.1 -4.9 0  -4 -4.9 0  -3.9 -4.9 0  -3.8 -4.9 0  -3.7 -4.9 0  -3.6 -4.9 0  -3.5 -4.9 0  -3.4 -4.9 0  -3.3 -4.9 0  -3.2 -4.9 0  -3.1 -4.9 0  -3 -4.9 0  -2.9 -4.9 0  -2.8 -4.9 0  -2.7 -4.9 0  -2.6 -4.9 0  -2.5 -4.9 0  -2.4 -4.9 0  -2.3 -4.9 0  -2.2 -4.9 0  -2.1 -4.9 0  -2 -4.9 0  -1.9 -4.9 0  -1.8 -4.9 0  -1.7 -4.9 0  -1.6 -4.9 0  -1.5 -4.9 0  -1.4 -4.9 0  -1.3 -4.9 0  -1.2 -4.9 0  -1.1 -4.9 0  -1 -4.9 0  -0.9000000000000004 -4.9 0  -0.7999999999999998 -4.9 0  -0.7000000000000002 -4.9 0  -0.5999999999999996 -4.9 0  -0.5 -4.9 0  -0.4000000000000004 -4.9 0  -0.2999999999999998 -4.9 0  -0.2000000000000002 -4.9 0  -0.09999999999999964 -4.9 0  0 -4.9 0  0.09999999999999964 -4.9 0  0.2000000000000002 -4.9 0  0.2999999999999998 -4.9 0  0.4000000000000004 -4.9 0  0.5 -4.9 0  0.5999999999999996 -4.9 0  0.7000000000000002 -4.9 0  0.7999999999999998 -4.9 0  0.9000000000000004 -4.9 0  1 -4.9 0  1.1 -4.9 0  1.2 -4.9 0  1.3 -4.9 0  1.4 -4.9 0  1.5 -4.9 0  1.6 -4.9 0  1.7 -4.9 0  1.8 -4.9 0  1.9 -4.9 0  2 -4.9 0  2.1 -4.9 0  2.2 -4.9 0  2.3 -4.9 0  2.4 -4.9 0  2.5 -4.9 0  2.6 -4.9 0  2.7 -4.9 0  2.8 -4.9 0  2.9 -4.9 0  3 -4.9 0  3.1 -4.9 0  3.199999999999999 -4.9 0  3.300000000000001 -4.9 0  3.4 -4.9 0  3.5 -4.9 0  3.6 -4.9 0  3.699999999999999 -4.9 0  3.800000000000001 -4.9 0  3.9 -4.9 0  4 -4.9 0  4.1 -4.9 0  4.199999999999999 -4.9 0  4.300000000000001 -4.9 0  4.4 -4.9 0  4.5 -4.9 0  4.6 -4.9 0  4.699999999999999 -4.9 0  4.800000000000001 -4.9 0  4.9 -4.9 0  5 -4.9 0  -5 -4.8 0  -4.9 -4.8 0  -4.8 -4.8 0  -4.7 -4.8 0  -4.6 -4.8 0  -4.5 -4.8 0  -4.4 -4.8 0  -4.3 -4.8 0  -4.2 -4.8 0  -4.1 -4.8 0  -4 -4.8 0  -3.9 -4.8 0  -3.8 -4.8 0  -3.7 -4.8 0  -3.6 -4.8 0  -3.5 -4.8 0  -3.4 -4.8 0  -3.3 -4.8 0  -3.2 -4.8 0  -3.1 -4.8 0  -3 -4.8 0  -2.9 -4.8 0  -2.8 -4.8 0  -2.7 -4.8 0  -2.6 -4.8 0  -2.5 -4.8 0  -2.4 -4.8 0  -2.3 -4.8 0  -2.2 -4.8 0  -2.1 -4.8 0  -2 -4.8 0  -1.9 -4.8 0  -1.8 -4.8 0  -1.7 -4.8 0  -1.6 -4.8 0  -1.5 -4.8 0  -1.4 -4.8 0  -1.3 -4.8 0  -1.2 -4.8 0  -1.1 -4.8 0  -1 -4.8 0  -0.9000000000000004 -4.8 0  -0.7999999999999998 -4.8 0  -0.7000000000000002 -4.8 0  -0.5999999999999996 -4.8 0  -0.5 -4.8 0  -0.4000000000000004 -4.8 0  -0.2999999999999998 -4.8 0  -0.2000000000000002 -4.8 0  -0.09999999999999964 -4.8 0  0 -4.8 0  0.09999999999999964 -4.8 0  0.2000000000000002 -4.8 0  0.2999999999999998 -4.8 0  0.4000000000000004 -4.8 0  0.5 -4.8 0  0.5999999999999996 -4.8 0  0.7000000000000002 -4.8 0  0.7999999999999998 -4.8 0  0.9000000000000004 -4.8 0  1 -4.8 0  1.1 -4.8 0  1.2 -4.8 0  1.3 -4.8 0  1.4 -4.8 0  1.5 -4.8 0  1.6 -4.8 0  1.7 -4.8 0  1.8 -4.8 0  1.9 -4.8 0  2 -4.8 0  2.1 -4.8 0  2.2 -4.8 0  2.3 -4.8 0  2.4 -4.8 0  2.5 -4.8 0  2.6 -4.8 0  2.7 -4.8 0  2.8 -4.8 0  2.9 -4.8 0  3 -4.8 0  3.1 -4.8 0  3.199999999999999 -4.8 0  3.300000000000001 -4.8 0  3.4 -4.8 0  3.5 -4.8 0  3.6 -4.8 0  3.699999999999999 -4.8 0  3.800000000000001 -4.8 0  3.9 -4.8 0  4 -4.8 0  4.1 -4.8 0  4.199999999999999 -4.8 0  4.300000000000001 -4.8 0  4.4 -4.8 0  4.5 -4.8 0  4.6 -4.8 0  4.699999999999999 -4.8 0  4.800000000000001 -4.8 0  4.9 -4.8 0  5 -4.8 0  -5 -4.7 0  -4.9 -4.7 0  -4.8 -4.7 0  -4.7 -4.7 0  -4.6 -4.7 0  -4.5 -4.7 0  -4.4 -4.7 0  -4.3 -4.7 0  -4.2 -4.7 0  -4.1 -4.7 0  -4 -4.7 0  -3.9 -4.7 0  -3.8 -4.7 0  -3.7 -4.7 0  -3.6 -4.7 0  -3.5 -4.7 0  -3.4 -4.7 0  -3.3 -4.7 0  -3.2 -4.7 0  -3.1 -4.7 0  -3 -4.7 0  -2.9 -4.7 0  -2.8 -4.7 0  -2.7 -4.7 0  -2.6 -4.7 0  -2.5 -4.7 0  -2.4 -4.7 0  -2.3 -4.7 0  -2.2 -4.7 0  -2.1 -4.7 0  -2 -4.7 0  -1.9 -4.7 0  -1.8 -4.7 0  -1.7 -4.7 0  -1.6 -4.7 0  -1.5 -4.7 0  -1.4 -4.7 0  -1.3 -4.7 0  -1.2 -4.7 0  -1.1 -4.7 0  -1 -4.7 0  -0.9000000000000004 -4.7 0  -0.7999999999999998 -4.7 0  -0.7000000000000002 -4.7 0  -0.5999999999999996 -4.7 0  -0.5 -4.7 0  -0.4000000000000004 -4.7 0  -0.2999999999999998 -4.7 0  -0.2000000000000002 -4.7 0  -0.09999999999999964 -4.7 0  0 -4.7 0  0.09999999999999964 -4.7 0  0.2000000000000002 -4.7 0  0.2999999999999998 -4.7 0  0.4000000000000004 -4.7 0  0.5 -4.7 0  0.5999999999999996 -4.7 0  0.7000000000000002 -4.7 0  0.7999999999999998 -4.7 0  0.9000000000000004 -4.7 0  1 -4.7 0  1.1 -4.7 0  1.2 -4.7 0  1.3 -4.7 0  1.4 -4.7 0  1.5 -4.7 0  1.6 -4.7 0  1.7 -4.7 0  1.8 -4.7 0  1.9 -4.7 0  2 -4.7 0  2.1 -4.7 0  2.2 -4.7 0  2.3 -4.7 0  2.4 -4.7 0  2.5 -4.7 0  2.6 -4.7 0  2.7 -4.7 0  2.8 -4.7 0  2.9 -4.7 0  3 -4.7 0  3.1 -4.7 0  3.199999999999999 -4.7 0  3.300000000000001 -4.7 0  3.4 -4.7 0  3.5 -4.7 0  3.6 -4.7 0  3.699999999999999 -4.7 0  3.800000000000001 -4.7 0  3.9 -4.7 0  4 -4.7 0  4.1 -4.7 0  4.199999999999999 -4.7 0  4.300000000000001 -4.7 0  4.4 -4.7 0  4.5 -4.7 0  4.6 -4.7 0  4.699999999999999 -4.7 0  4.800000000000001 -4.7 0  4.9 -4.7 0  5 -4.7 0  -5 -4.6 0  -4.9 -4.6 0  -4.8 -4.6 0  -4.7 -4.6 0  -4.6 -4.6 0  -4.5 -4.6 0  -4.4 -4.6 0  -4.3 -4.6 0  -4.2 -4.6 0  -4.1 -4.6 0  -4 -4.6 0  -3.9 -4.6 0  -3.8 -4.6 0  -3.7 -4.6 0  -3.6 -4.6 0  -3.5 -4.6 0  -3.4 -4.6 0  -3.3 -4.6 0  -3.2 -4.6 0  -3.1 -4.6 0  -3 -4.6 0  -2.9 -4.6 0  -2.8 -4.6 0  -2.7 -4.6 0  -2.6 -4.6 0  -2.5 -4.6 0  -2.4 -4.6 0  -2.3 -4.6 0  -2.2 -4.6 0  -2.1 -4.6 0  -2 -4.6 0  -1.9 -4.6 0  -1.8 -4.6 0  -1.7 -4.6 0  -1.6 -4.6 0  -1.5 -4.6 0  -1.4 -4.6 0  -1.3 -4.6 0  -1.2 -4.6 0  -1.1 -4.6 0  -1 -4.6 0  -0.9000000000000004 -4.6 0  -0.7999999999999998 -4.6 0  -0.7000000000000002 -4.6 0  -0.5999999999999996 -4.6 0  -0.5 -4.6 0  -0.4000000000000004 -4.6 0  -0.2999999999999998 -4.6 0  -0.2000000000000002 -4.6 0  -0.09999999999999964 -4.6 0  0 -4.6 0  0.09999999999999964 -4.6 0  0.2000000000000002 -4.6 0  0.2999999999999998 -4.6 0  0.4000000000000004 -4.6 0  0.5 -4.6 0  0.5999999999999996 -4.6 0  0.7000000000000002 -4.6 0  0.7999999999999998 -4.6 0  0.9000000000000004 -4.6 0  1 -4.6 0  1.1 -4.6 0  1.2 -4.6 0  1.3 -4.6 0  1.4 -4.6 0  1.5 -4.6 0  1.6 -4.6 0  1.7 -4.6 0  1.8 -4.6 0  1.9 -4.6 0  2 -4.6 0  2.1 -4.6 0  2.2 -4.6 0  2.3 -4.6 0  2.4 -4.6 0  2.5 -4.6 0  2.6 -4.6 0  2.7 -4.6 0  2.8 -4.6 0  2.9 -4.6 0  3 -4.6 0  3.1 -4.6 0  3.199999999999999 -4.6 0  3.300000000000001 -4.6 0  3.4 -4.6 0  3.5 -4.6 0  3.6 -4.6 0  3.699999999999999 -4.6 0  3.800000000000001 -4.6 0  3.9 -4.6 0  4 -4.6 0  4.1 -4.6 0  4.199999999999999 -4.6 0  4.300000000000001 -4.6 0  4.4 -4.6 0  4.5 -4.6 0  4.6 -4.6 0  4.699999999999999 -4.6 0  4.800000000000001 -4.6 0  4.9 -4.6 0  5 -4.6 0  -5 -4.5 0  -4.9 -4.5 0  -4.8 -4.5 0  -4.7 -4.5 0  -4.6 -4.5 0  -4.5 -4.5 0  -4.4 -4.5 0  -4.3 -4.5 0  -4.2 -4.5 0  -4.1 -4.5 0  -4 -4.5 0  -3.9 -4.5 0  -3.8 -4.5 0  -3.7 -4.5 0  -3.6 -4.5 0  -3.5 -4.5 0  -3.4 -4.5 0  -3.3 -4.5 0  -3.2 -4.5 0  -3.1 -4.5 0  -3 -4.5 0  -2.9 -4.5 0  -2.8 -4.5 0  -2.7 -4.5 0  -2.6 -4.5 0  -2.5 -4.5 0  -2.4 -4.5 0  -2.3 -4.5 0  -2.2 -4.5 0  -2.1 -4.5 0  -2 -4.5 0  -1.9 -4.5 0  -1.8 -4.5 0  -1.7 -4.5 0  -1.6 -4.5 0  -1.5 -4.5 0  -1.4 -4.5 0  -1.3 -4.5 0  -1.2 -4.5 0  -1.1 -4.5 0  -1 -4.5 0  -0.9000000000000004 -4.5 0  -0.7999999999999998 -4.5 0  -0.7000000000000002 -4.5 0  -0.5999999999999996 -4.5 0  -0.5 -4.5 0  -0.4000000000000004 -4.5 0  -0.2999999999999998 -4.5 0  -0.2000000000000002 -4.5 0  -0.09999999999999964 -4.5 0  0 -4.5 0  0.09999999999999964 -4.5 0  0.2000000000000002 -4.5 0  0.2999999999999998 -4.5 0  0.4000000000000004 -4.5 0  0.5 -4.5 0  0.5999999999999996 -4.5 0  0.7000000000000002 -4.5 0  0.7999999999999998 -4.5 0  0.9000000000000004 -4.5 0  1 -4.5 0  1.1 -4.5 0  1.2 -4.5 0  1.3 -4.5 0  1.4 -4.5 0  1.5 -4.5 0  1.6 -4.5 0  1.7 -4.5 0  1.8 -4.5 0  1.9 -4.5 0  2 -4.5 0  2.1 -4.5 0  2.2 -4.5 0  2.3 -4.5 0  2.4 -4.5 0  2.5 -4.5 0  2.6 -4.5 0  2.7 -4.5 0  2.8 -4.5 0  2.9 -4.5 0  3 -4.5 0  3.1 -4.5 0  3.199999999999999 -4.5 0  3.300000000000001 -4.5 0  3.4 -4.5 0  3.5 -4.5 0  3.6 -4.5 0  3.699999999999999 -4.5 0  3.800000000000001 -4.5 0  3.9 -4.5 0  4 -4.5 0  4.1 -4.5 0  4.199999999999999 -4.5 0  4.300000000000001 -4.5 0  4.4 -4.5 0  4.5 -4.5 0  4.6 -4.5 0  4.699999999999999 -4.5 0  4.800000000000001 -4.5 0  4.9 -4.5 0  5 -4.5 0  -5 -4.4 0  -4.9 -4.4 0  -4.8 -4.4 0  -4.7 -4.4 0  -4.6 -4.4 0  -4.5 -4.4 0  -4.4 -4.4 0  -4.3 -4.4 0  -4.2 -4.4 0  -4.1 -4.4 0  -4 -4.4 0  -3.9 -4.4 0  -3.8 -4.4 0  -3.7 -4.4 0  -3.6 -4.4 0  -3.5 -4.4 0  -3.4 -4.4 0  -3.3 -4.4 0  -3.2 -4.4 0  -3.1 -4.4 0  -3 -4.4 0  -2.9 -4.4 0  -2.8 -4.4 0  -2.7 -4.4 0  -2.6 -4.4 0  -2.5 -4.4 0  -2.4 -4.4 0  -2.3 -4.4 0  -2.2 -4.4 0  -2.1 -4.4 0  -2 -4.4 0  -1.9 -4.4 0  -1.8 -4.
[...]
<PointData  Scalars="f_27-1"> 
<DataArray  type="Float64"  Name="f_27-1"  format="ascii">9.9989197179959499e-01  9.9968512653048980e-01  1.0003717672336181e+00  9.9987834678847953e-01  9.9983743410551773e-01  1.0001781721739893e+00  9.9991246832305936e-01  1.0000560902164217e+00  9.9994272303802589e-01  1.0000165633510840e+00  1.0000182517941307e+00  9.9995835673181410e-01  1.0000245762205744e+00  1.0000180270515802e+00  9.9992872133816157e-01  1.0001018201964635e+00  9.9997596918730003e-01  9.9986985904502323e-01  1.0001417004814204e+00  9.9994013683910976e-01  9.9993104780160125e-01  1.0000586827768845e+00  9.9991924420032119e-01  9.9991836296656966e-01  1.0001291830119203e+00  9.9991064810760777e-01  9.9997056058361189e-01  1.0000710349855317e+00  9.9997706640170159e-01  9.9998238295682806e-01  1.0000964235290357e+00  9.9986055614049674e-01  9.9991509848330995e-01  1.0000098870286214e+00  9.9995817981757751e-01  1.0000487479753957e+00  1.0001683378154143e+00  9.9999973799329134e-01  1.0000352700902257e+00  1.0000156066479569e+00  9.9982330031994848e-01  9.9986621261854924e-01  9.9993122172461135e-01  9.9985455841246529e-01  9.9998565684918272e-01  1.0000340541478512e+00  9.9996426992386112e-01  1.0000993382355905e+00  1.0000990147057802e+00  9.9998630602913030e-01  1.0000750072294682e+00  1.0000689944459822e+00  9.9998044972447087e-01  1.0000544585375328e+00  1.0000078076735790e+00  9.9996941206382839e-01  1.0000596143405318e+00  9.9999446208073195e-01  9.9994538695741841e-01  1.0000596349888879e+00  1.0000042214315896e+00  9.9994686823136891e-01  1.0000395942175579e+00  1.0000051456083663e+00  9.9997253860204105e-01  1.0000207323568067e+00  9.9999472711885684e-01  9.9998639820926105e-01  1.0000336929882225e+00  9.9996615353808926e-01  9.9999758079044232e-01  1.0000405575518456e+00  9.9996486428189402e-01  9.9998178846047470e-01  1.0000475439253802e+00  9.9997461221487860e-01  9.9996466727558841e-01  1.0000443470596161e+00  9.9997922353587332e-01  9.9997851456233333e-01  1.0000094861475035e+00  1.0000109918527365e+00  9.9998324031129415e-01  1.0000057646780967e+00  1.0000173698392465e+00  1.0000083672115012e+00  1.0000022694786828e+00  9.9999988504250359e-01  1.0000368898579590e+00  9.9996894338689946e-01  9.9999764391387891e-01  1.0000289505654592e+00  9.9997243203625463e-01  9.9998496183504582e-01  1.0000396965139402e+00  9.9997948442228257e-01  9.9997612871918173e-01  1.0000491247542549e+00  9.9997388910607732e-01  9.9997653687587806e-01  1.0000450221545052e+00  9.9968512653048980e-01  1.0004122672667477e+00  9.9991088420667495e-01  9.9978265079582385e-01  1.0002729108506887e+00  9.9992529640452754e-01  9.9996579565678256e-01  1.0000315092052956e+00  9.9996398740168913e-01  1.0000585524592056e+00  9.9994815638192858e-01  1.0000160549624906e+00  1.0000387266571440e+00  9.9993606852848194e-01  1.0000700459592566e+00  9.9998806864531786e-01  9.9990090563641409e-01  1.0001446970989341e+00  9.9997930270179913e-01  9.9991485958234927e-01  1.0001163316716883e+00  9.9998037080323376e-01  9.9998141605002211e-01  1.0001456046237707e+00  9.9994121234629385e-01  9.9995790866271228e-01  1.0001063273428108e+00  9.9995319819369755e-01  9.9996323465221404e-01  1.0000580389291664e+00  9.9992056154869846e-01  1.0000029480552772e+00  1.0001592396902619e+00  1.0000188397629464e+00  1.0000236794812822e+00  1.0000353433352855e+00  9.9985702492678075e-01  9.9990347736430563e-01  1.0000065875930373e+00  9.9992917471662712e-01  1.0000805889639777e+00  1.0001886572973204e+00  1.0000794040306171e+00  1.0001250272215367e+00  1.0001092420423441e+00  9.9995974437446267e-01  1.0000197159876461e+00  9.9998561631448646e-01  9.9986152321568911e-01  9.9996864916807704e-01  9.9998058575526783e-01  9.9989502404612907e-01  9.9998863371302027e-01  9.9998439759910196e-01  9.9994309087422684e-01  1.0000342865562430e+00  9.9998216393138573e-01  9.9994694391068162e-01  1.0000567589903919e+00  9.9999787122987116e-01  9.9994119798967940e-01  1.0000476981235820e+00  1.0000076726200915e+00  9.9995968153711290e-01  1.0000264649172244e+00  1.0000012054442391e+00  9.9998227814964724e-01  1.0000251184730373e+00  9.9997938637573724e-01  9.9999427436157950e-01  1.0000387305611989e+00  9.9996450765317035e-01  9.9999143379040845e-01  1.0000483359116772e+00  9.9997312010280948e-01  9.9997669441516823e-01  1.0000527899266658e+00  9.9998639608349593e-01  9.9997789109171187e-01  1.0000347139006660e+00  1.0000034783909895e+00  9.9998456227676491e-01  1.0000062261644715e+00  1.0000076743196609e+00  9.9998920189376184e-01  9.9998430463225596e-01  9.9999412686009426e-01  1.0000078793855254e+00  9.9997238191880589e-01  9.9999265334846243e-01  1.0000315750651205e+00  9.9997525602451953e-01  9.9999154522694444e-01  1.0000413365209553e+00  9.9997664940028441e-01  9.9997966442283870e-01  1.0000459632783905e+00  9.9997552112884347e-01  9.9997693652543107e-01  1.0000484794555318e+00  9.9997653687587773e-01  1.0003717672336190e+00  9.9991088420667484e-01  9.9974733624157641e-01  1.0002732468265687e+00  9.9991852647814206e-01  9.9989774683394916e-01  1.0000666053917313e+00  9.9999634649869251e-01  9.9999466122804015e-01  1.0000102607834842e+00  9.9994111443635447e-01  1.0000771994623199e+00  9.9992122336837153e-01  1.0000388823611832e+00  1.0000138023623688e+00  9.9991157890478077e-01  1.0001192932715874e+00  9.9995828438044765e-01  9.9990773445768166e-01  1.0000846926437275e+00  9.9999423115055552e-01  9.9990913194802111e-01  1.0000921225342900e+00  9.9989468727286923e-01  9.9995127464201661e-01  1.0000815433253325e+00  9.9996299671014188e-01  9.9993361289282789e-01  1.0000906788160211e+00  9.9994117871078847e-01  1.0000217437470882e+00  1.0000736426251222e+00  9.9992286833255295e-01  9.9989310152465383e-01  1.0000166741839605e+00  9.9991887797663925e-01  1.0000492548949904e+00  1.0001381101898461e+00  1.0000272306217295e+00  1.0000378410255861e+00  1.0000383392868939e+00  9.9983580618027534e-01  9.9986510209852786e-01  9.9990026094082674e-01  9.9983119439686818e-01  9.9995074952732454e-01  1.0000001482389047e+00  9.9993928035363056e-01  1.0000666883696250e+00  1.0000820878771173e+00  9.9997791529113733e-01  1.0000622605413407e+00  1.0000524800993678e+00  9.9998299530122137e-01  1.0000455597508771e+00  1.0000068585090769e+00  9.9996252682929831e-01  1.0000584173461977e+00  9.9999506325152709e-01  9.9994645296072893e-01  1.0000516701097717e+00  1.0000076855069204e+00  9.9995251389768158e-01  1.0000301575948003e+00  1.0000091933214230e+00  9.9997235338239643e-01  1.0000245906659977e+00  9.9998552972037658e-01  9.9999565128776824e-01  1.0000272599345861e+00  9.9997256447343874e-01  9.9999004385525336e-01  1.0000456253259966e+00  9.9996555380381580e-01  9.9997889640903248e-01  1.0000492260339575e+00  9.9997298496005160e-01  9.9997345145874805e-01  1.0000283883831034e+00  9.9999714188330058e-01  9.9996505684052073e-01  1.0000193515786744e+00  9.9999883981169113e-01  9.9999380317034192e-01  9.9999971033477930e-01  1.0000087187457085e+00  1.0000242844931249e+00  9.9998320240334060e-01  1.0000167831702891e+00  1.0000238689946124e+00  9.9998517212004678e-01  9.9998615812313230e-01  1.0000372726924918e+00  9.9997317437675493e-01  9.9997776286599938e-01  1.0000461701092664e+00  9.9997338546210524e-01  9.9997823650490247e-01  1.0000468367658739e+00  9.9997693652542996e-01  9.9997388910607932e-01  9.9987834678847931e-01  9.9978265079582374e-01  1.0002732468265698e+00  9.9993752129252733e-01  9.9989596409803894e-01  1.0001083534536557e+00  1.0000094720695707e+00  9.9997107359281323e-01  1.0000196707399032e+00  9.9996247773935398e-01  1.0000505592746691e+00  9.9998845583026386e-01  9.9997714131711568e-01  1.0000682832523338e+00  9.9992797889936935e-01  1.0000819897814270e+00  9.9998809778963960e-01  9.9992675564004929e-01  1.0000992482530950e+00  1.0000160152193180e+00  9.9992145637694219e-01  1.0000894865530203e+00  9.9996651682720206e-01  9.9998423888870158e-01  1.0001044997067072e+00  9.9996475581407007e-01  9.9994696755105461e-01  1.0000807369913649e+00  9.9996840070896043e-01  9.9998420462719262e-01  1.0000625808068591e+00  9.9993108467430736e-01  9.9999207741228713e-01  1.0001042247336787e+00  1.0000224340310055e+00  1.0000184413155284e+00  1.0000456081068012e+00  9.9987136410448707e-01  9.9990978438734945e-01  9.9996262045575535e-01  9.9990547103424998e-01  1.0000136890993183e+00  1.0001194699578562e+00  1.0000329188041046e+00  1.0000851609515808e+00  1.0000624624542360e+00  9.9994072890910013e-01  9.9998444667567887e-01  9.9996137223331572e-01  9.9985180310121236e-01  9.9994162362054362e-01  9.9995585610488147e-01  9.9989356852779376e-01  9.9997363413168761e-01  9.9997122778073610e-01  9.9994066789660707e-01  1.0000238686798724e+00  9.9998395301339060e-01  9.9994372327273617e-01  1.0000478779997073e+00  9.9999918107544039e-01  9.9995047898912870e-01  1.0000318519833664e+00  1.0000128280764928e+00  9.9996444544379148e-01  1.0000233971969854e+00  9.9999583557501792e-01  9.9998894217066403e-01  1.0000242854374688e+00  9.9997663802363035e-01  9.9999597468159218e-01  1.0000358897391191e+00  9.9997241822687188e-01  9.9998108663173646e-01  1.0000541010063546e+00  9.9997127314161571e-01  9.9998143911636217e-01  1.0000406459800162e+00  9.9999798164422016e-01  9.9997445865428847e-01  1.0000293939568123e+00  1.0000089933290941e+00  9.9998264439897622e-01  1.0000109869506062e+00  9.9999747599614652e-01  1.0000056958347212e+00  9.9997523303545244e-01  9.9999663875510658e-01  1.0000117723498123e+00  9.9996975194451032e-01  9.9999153980818900e-01  1.0000282610476732e+00  9.9997981067425590e-01  9.9998245866657276e-01  1.0000456755096097e+00  9.9997681312404241e-01  9.9997791884407106e-01  1.0000472668178146e+00  9.9997823650490281e-01  9.9997552112884436e-01  1.0000491247542567e+00  9.9983743410551684e-01  1.0002729108506889e+00  9.9991852647814139e-01  9.9989596409803871e-01  1.0000971009909725e+00  9.9998637295449033e-01  9.9993438584231120e-01  1.0000461916916938e+00  9.9994572487457367e-01  1.0000677524588002e+00  9.9997700066320405e-01  9.9996300456732412e-01  1.0000342766242409e+00  9.9996705397827135e-01  1.0000005634854756e+00  1.0000093802270493e+00  9.9994187599887308e-01  1.0000422409108090e+00  1.0000207733553605e+00  9.9988665974915225e-01  1.0000709106112182e+00  9.9996973591225846e-01  9.9997224390930195e-01  1.0000442806430614e+00  9.9996166153543464e-01  9.9994082533782480e-01  1.0000886696432505e+00  9.9997274062307295e-01  9.9998979306971714e-01  1.0000392441050121e+00  9.9997058818029172e-01  9.9998205289483788e-01  1.0000716218894925e+00  9.9992524270257332e-01  9.9993805540008973e-01  9.9996501180801289e-01  9.9992120044998223e-01  9.9997447462440903e-01  1.0000660419653300e+00  9.9995642305260446e-01  9.9998471174282932e-01  9.9995973375027558e-01  9.9983123293390119e-01  9.9984873923631368e-01  9.9990344085647376e-01  9.9988359589609921e-01  1.0000269202510921e+00  1.0001114604970194e+00  1.0001079243749300e+00  1.0002373100846140e+00  1.0002701607049760e+00  1.0001999282936584e+00  1.0002497120293892e+00  1.0002267011409705e+00  1.0001437152658428e+00  1.0001698699652526e+00  1.0001067596858746e+00  1.0000425202040120e+00  1.0000982193826005e+00  1.0000373292510845e+00  9.9997653944834386e-01  1.0000503247393666e+00  1.0000191996284409e+00  9.9996546614534210e-01  1.0000252677415984e+00  1.0000050112714516e+00  9.9998293634859248e-01  1.0000196616279216e+00  9.9998683571017655e-01  9.9999223438105000e-01  1.0000315944631524e+00  9.9997290729863619e-01  9.9998695459884812e-01  1.0000439460241253e+00  9.9997277209086766e-01  9.9997616123356714e-01  1.0000411802867795e+00  9.9998657135375602e-01  9.9996640821126670e-01  1.0000290339424944e+00  9.9999521789591661e-01  9.9997573070470980e-01  1.0000064582476011e+00  1.0000047028591481e+00  9.9999490879478292e-01  9.9999429351494051e-01  1.0000098159545980e+00  1.0000169651052138e+00  9.9999458712593081e-01  9.9999758050933563e-01  1.0000411868616912e+00  9.9997723626177237e-01  9.9999177987051402e-01  1.0000383330380680e+00  9.9997663990452934e-01  9.9997867197355406e-01  1.0000425766798720e+00  9.9997791884407028e-01  9.9997338546210579e-01  1.0000459632783907e+00  9.9997612871918107e-01  1.0001781721739891e+00  9.9992529640452754e-01  9.9989774683394828e-01  1.0001083534536561e+00  9.9998637295449044e-01  9.9994659294461585e-01  1.0000768181304822e+00  9.9994439892033149e-01  1.0000554305040694e+00  1.0000160056301939e+00  9.9991426337029032e-01  1.0000830640571805e+00  9.9997710065481205e-01  9.9999908289828809e-01  1.0000175330892076e+00  1.0000056781061575e+00  1.0000037452521360e+00  1.0000509209814124e+00  9.9992830595069970e-01  1.0000590092034622e+00  1.0000232353261875e+00  9.9997207581834135e-01  1.0000344285385974e+00  9.9998638500287940e-01  9.9997058233538427e-01  1.0000706096886813e+00  9.9997224626625247e-01  9.9996786912468061e-01  1.0000247590233826e+00  9.9997463695540201e-01  9.9999463456127224e-01  1.0000318506916790e+00  9.9994796244456496e-01  9.9994880874366887e-01  1.0000111622174670e+00  9.9993254530306253e-01  9.9995673012103159e-01  9.9994286641668184e-01  9.9987692823730101e-01  9.9991611277867876e-01  1.0000502228183743e+00  1.0001205719592301e+00  1.0003831228896958e+00  1.0006325278698951e+00  1.0008175486350495e+00  1.0010576359104972e+00  1.0012523854364288e+00  1.0013254359501553e+00  1.0014855473922777e+00  1.0015369688534315e+00  1.0014854839806651e+00  1.0015024927727330e+00  1.0014272962022275e+00  1.0012500833599725e+00  1.0011432962758391e+00  1.0009618224245085e+00  1.0007465819231329e+00  1.0006370475334176e+00  1.0004493829057932e+00  1.0002858041893208e+00  1.0002500283526019e+00  1.0001528620639137e+00  1.0000451219425512e+00  1.0000767152815726e+00  1.0000345286602483e+00  9.9999254047363373e-01  1.0000227468821270e+00  9.9999975411060749e-01  9.9998986967478332e-01  1.0000251259730433e+00  9.9998239564921299e-01  9.9998595035528837e-01  1.0000415016925372e+00  9.9997339872171820e-01  9.9998384581580935e-01  1.0000384841991061e+00  9.9999290111161532e-01  9.9996777143840732e-01  1.0000413754142914e+00  9.9999881875750685e-01  9.9997987895215457e-01  1.0000206812410799e+00  1.0000080323302261e+00  9.9999555532350937e-01  9.9999421581535464e-01  1.0000117023455646e+00  9.9999721834415989e-01  9.9998713375744586e-01  9.9998865404438719e-01  1.0000169212716639e+00  9.9997556931385190e-01  9.9998028546685103e-01  1.0000359367547591e+00  9.9997329772046217e-01  9.9998218731635469e-01  1.0000419799260116e+00  9.9997867197355428e-01  9.9997681312404274e-01  1.0000461701092669e+00  9.9997966442283825e-01  9.9997948442228402e-01  9.9991246832305802e-01  9.9996579565678190e-01  1.0000666053917304e+00  1.0000094720695702e+00  9.9993438584231065e-01  1.0000768181304822e+00  9.9991462351839611e-01  1.0000339497099442e+00  1.0000274665019295e+00  9.9989802493334479e-01  1.0000727733283776e+00  1.0000322391237779e+00  9.9991084637468419e-01  1.0000457022183262e+00  9.9999304008864220e-01  9.9996106965462517e-01  1.0000350981368669e+00  9.9994114634940690e-01  1.0000153862720724e+00  1.0000092812095538e+00  9.9997260720661707e-01  9.9998073554992062e-01  1.0000167933273045e+00  9.9997484507513690e-01  1.0000526551641382e+00  9.9998059051660537e-01  9.9999255892428718e-01  1.0000343535640894e+00  1.0000068956286474e+00  9.9999549949081656e-01  9.9999955601407309e-01  9.9991800701276279e-01  9.9992951114836148e-01  9.9993240607868739e-01  9.9990241086029286e-01  9.9992506114901747e-01  1.0000350318095110e+00  1.0001420819493512e+00  1.0004571171002759e+00  1.0008356698789875e+00  1.0012908453430145e+00  1.0018632970714056e+00  1.0025233447482609e+00  1.0031516157093057e+00  1.0039129389961587e+00  1.0046433672604218e+00  1.0053056360673061e+00  1.0059423733960942e+00  1.0064254979145837e+00  1.0066817466516502e+00  1.0068349572712869e+00  1.0067390282708684e+00  1.0064009217528875e+00  1.0059724372562306e+00  1.0053719468679680e+00  1.0046354277329621e+00  1.0039305942720715e+00  1.0031706786378674e+00  1.0024404772396984e+00  1.0018682864769248e+00  1.0013255839871000e+00  1.0008662321578501e+00  1.0006093164178509e+00  1.0003736283858455e+00  1.0001851331061873e+00  1.0001345436459408e+00  1.0000638297585229e+00  1.0000156718450424e+00  1.0000315928720021e+00  9.9999776378727867e-01  9.9998663834233281e-01  1.0000338935742263e+00  9.9998098572757854e-01  9.9998138700893091e-01  1.0000362254891508e+00  9.9998827979795879e-01  9.9996968134427211e-01  1.0000335083011620e+00  9.9999650216333036e-01  9.9996865114747002e-01  1.0000188099530340e+00  1.0000012046805322e+00  9.9998204541176972e-01  9.9999775209413821e-01  1.0000075591637567e+00  9.9999710208792614e-01  9.9999330894879479e-01  1.0000021602655871e+00  1.0000230240951271e+00  9.9998586605032602e-01  1.0000015891920673e+00  1.0000310709572833e+00  9.9998988732395588e-01  9.9998336264648346e-01  1.0000440114379991e+00  9.9998218731635491e-01  9.9997663990452901e-01  1.0000456755096099e+00  9.9997776286599849e-01  9.9997664940028508e-01  1.0000396965139402e+00  1.0000560902164211e+00  1.0000315092052952e+00  9.9999634649869185e-01  9.9997107359281312e-01  1.0000461916916943e+00  9.9994439892033182e-01  1.0000339497099449e+00  1.0000574913662654e+00  9.9989050569258264e-01  1.0000795892585470e+00  1.0000560257765168e+00  9.9989165922073497e-01  1.0000268322334673e+00  1.0000776545414212e+00  9.9989346805875423e-01  1.0000885558473787e+00  9.9996859750925238e-01  1.0000102221650327e+00  1.0000359033861632e+00  9.9999594008535531e-01  9.9998172131798524e-01  1.0000352181848384e+00  1.0000057454681526e+00  1.0000060192084321e+00  9.9998353574045096e-01  9.9998414868990104e-01  9.9999761896012984e-01  9.9997749594731444e-01  9.9995450002157560e-01  9.9993812482678779e-01  9.9989952246732750e-01  9.9992914000955879e-01  9.9994899495449374e-01  9.9999796163387178e-01  1.0001867233410950e+00  1.0004923088223561e+00  1.0010164265978774e+00  1.0017904322233810e+00  1.0028371300754955e+00  1.0041022954695631e+00  1.0056971630852150e+00  1.0074541641765780e+00  1.0093910415962588e+00  1.0113932022339143e+00  1.0133750184160217e+00  1.0151536823347391e+00  1.0167700465089919e+00  1.0180429842575198e+00  1.0189654733878590e+00  1.0195381832584833e+00  1.0197101945004279e+00  1.0194446052916410e+00  1.0188523321621368e+00  1.0178570147839539e+00  1.0164881609966678e+00  1.0148926681693711e+00  1.0130556538988786e+00  1.0110702516752972e+00  1.0091136961260876e+00  1.0072042006692776e+00  1.0054351415534182e+00  1.0039866061780032e+00  1.0027563754947686e+00  1.0017880050519574e+00  1.0011470358263064e+00  1.0006813442692175e+00  1.0003547457109732e+00  1.0002130600727350e+00  1.0000960970183972e+00  1.0000280576415861e+00  1.0000433955692611e+00  9.9999782887746780e-01  9.9998390041304464e-01  1.0000308840001704e+00  9.9999547045088899e-01  9.9997036872094880e-01  1.0000360199235034e+00  9.9999764380275746e-01  9.9997651959159739e-01  1.0000209494909342e+00  1.0000125354957330e+00  9.9998134762838642e-01  1.0000101138932902e+00  1.0000134978382391e+00  9.9999411732189614e-01  9.9999934765839638e-01  9.9999923336237173e-01  1.0000132821863117e+00  9.9997950111345801e-01  9.9999378842064479e-01  1.0000184664775291e+00  9.9997673567663892e-01  9.9998497681438347e-01  1.0000253820045750e+00  9.9998336264648402e-01  9.9997329772046217e-01  1.0000383330380682e+00  9.9998245866657220e-01  9.9997317437675548e-01  1.0000413365209553e+00  9.9998496183504537e-01  9.9994272303802578e-01  9.9996398740168846e-01  9.9999466122803948e-01  1.0000196707399034e+00  9.9994572487457301e-01  1.0000554305040694e+00  1.0000274665019289e+00  9.9989050569258298e-01  1.0000540950387216e+00  1.0000691340485617e+00  9.9985646339059797e-01  1.0000334802489901e+00  1.0000985255000296e+00  9.9987730120827500e-01  1.0000414844458192e+00  1.0000317108814332e+00  9.9993611898937840e-01  1.0000451441244860e+00  9.9999374790792817e-01  9.9994119416378102e-01  1.0000511765269928e+00  9.9999304983927