<?xml version="1.0"?>
<VTKFile type="UnstructuredGrid"  version="0.1"  >
<UnstructuredGrid>
<Piece  NumberOfPoints="10201" NumberOfCells="20000">
<Points>
<DataArray  type="Float64"  NumberOfComponents="3"  format="ascii">-5 -5 0  -4.9 -5 0  -4.8 -5 0  -4.7 -5 0  -4.6 -5 0  -4.5 -5 0  -4.4 -5 0  -4.3 -5 0  -4.2 -5 0  -4.1 -5 0  -4 -5 0  -3.9 -5 0  -3.8 -5 0  -3.7 -5 0  -3.6 -5 0  -3.5 -5 0  -3.4 -5 0  -3.3 -5 0  -3.2 -5 0  -3.1 -5 0  -3 -5 0  -2.9 -5 0  -2.8 -5 0  -2.7 -5 0  -2.6 -5 0  -2.5 -5 0  -2.4 -5 0  -2.3 -5 0  -2.2 -5 0  -2.1 -5 0  -2 -5 0  -1.9 -5 0  -1.8 -5 0  -1.7 -5 0  -1.6 -5 0  -1.5 -5 0  -1.4 -5 0  -1.3 -5 0  -1.2 -5 0  -1.1 -5 0  -1 -5 0  -0.9000000000000004 -5 0  -0.7999999999999998 -5 0  -0.7000000000000002 -5 0  -0.5999999999999996 -5 0  -0.5 -5 0  -0.4000000000000004 -5 0  -0.2999999999999998 -5 0  -0.2000000000000002 -5 0  -0.09999999999999964 -5 0  0 -5 0  0.09999999999999964 -5 0  0.2000000000000002 -5 0  0.2999999999999998 -5 0  0.4000000000000004 -5 0  0.5 -5 0  0.5999999999999996 -5 0  0.7000000000000002 -5 0  0.7999999999999998 -5 0  0.9000000000000004 -5 0  1 -5 0  1.1 -5 0  1.2 -5 0  1.3 -5 0  1.4 -5 0  1.5 -5 0  1.6 -5 0  1.7 -5 0  1.8 -5 0  1.9 -5 0  2 -5 0  2.1 -5 0  2.2 -5 0  2.3 -5 0  2.4 -5 0  2.5 -5 0  2.6 -5 0  2.7 -5 0  2.8 -5 0  2.9 -5 0  3 -5 0  3.1 -5 0  3.199999999999999 -5 0  3.300000000000001 -5 0  3.4 -5 0  3.5 -5 0  3.6 -5 0  3.699999999999999 -5 0  3.800000000000001 -5 0  3.9 -5 0  4 -5 0  4.1 -5 0  4.199999999999999 -5 0  4.300000000000001 -5 0  4.4 -5 0  4.5 -5 0  4.6 -5 0  4.699999999999999 -5 0  4.800000000000001 -5 0  4.9 -5 0  5 -5 0  -5 -4.9 0  -4.9 -4.9 0  -4.8 -4.9 0  -4.7 -4.9 0  -4.6 -4.9 0  -4.5 -4.9 0  -4.4 -4.9 0  -4.3 -4.9 0  -4.2 -4.9 0  -4.1 -4.9 0  -4 -4.9 0  -3.9 -4.9 0  -3.8 -4.9 0  -3.7 -4.9 0  -3.6 -4.9 0  -3.5 -4.9 0  -3.4 -4.9 0  -3.3 -4.9 0  -3.2 -4.9 0  -3.1 -4.9 0  -3 -4.9 0  -2.9 -4.9 0  -2.8 -4.9 0  -2.7 -4.9 0  -2.6 -4.9 0  -2.5 -4.9 0  -2.4 -4.9 0  -2.3 -4.9 0  -2.2 -4.9 0  -2.1 -4.9 0  -2 -4.9 0  -1.9 -4.9 0  -1.8 -4.9 0  -1.7 -4.9 0  -1.6 -4.9 0  -1.5 -4.9 0  -1.4 -4.9 0  -1.3 -4.9 0  -1.2 -4.9 0  -1.1 -4.9 0  -1 -4.9 0  -0.9000000000000004 -4.9 0  -0.7999999999999998 -4.9 0  -0.7000000000000002 -4.9 0  -0.5999999999999996 -4.9 0  -0.5 -4.9 0  -0.4000000000000004 -4.9 0  -0.2999999999999998 -4.9 0  -0.2000000000000002 -4.9 0  -0.09999999999999964 -4.9 0  0 -4.9 0  0.09999999999999964 -4.9 0  0.2000000000000002 -4.9 0  0.2999999999999998 -4.9 0  0.4000000000000004 -4.9 0  0.5 -4.9 0  0.5999999999999996 -4.9 0  0.7000000000000002 -4.9 0  0.7999999999999998 -4.9 0  0.9000000000000004 -4.9 0  1 -4.9 0  1.1 -4.9 0  1.2 -4.9 0  1.3 -4.9 0  1.4 -4.9 0  1.5 -4.9 0  1.6 -4.9 0  1.7 -4.9 0  1.8 -4.9 0  1.9 -4.9 0  2 -4.9 0  2.1 -4.9 0  2.2 -4.9 0  2.3 -4.9 0  2.4 -4.9 0  2.5 -4.9 0  2.6 -4.9 0  2.7 -4.9 0  2.8 -4.9 0  2.9 -4.9 0  3 -4.9 0  3.1 -4.9 0  3.199999999999999 -4.9 0  3.300000000000001 -4.9 0  3.4 -4.9 0  3.5 -4.9 0  3.6 -4.9 0  3.699999999999999 -4.9 0  3.800000000000001 -4.9 0  3.9 -4.9 0  4 -4.9 0  4.1 -4.9 0  4.199999999999999 -4.9 0  4.300000000000001 -4.9 0  4.4 -4.9 0  4.5 -4.9 0  4.6 -4.9 0  4.699999999999999 -4.9 0  4.800000000000001 -4.9 0  4.9 -4.9 0  5 -4.9 0  -5 -4.8 0  -4.9 -4.8 0  -4.8 -4.8 0  -4.7 -4.8 0  -4.6 -4.8 0  -4.5 -4.8 0  -4.4 -4.8 0  -4.3 -4.8 0  -4.2 -4.8 0  -4.1 -4.8 0  -4 -4.8 0  -3.9 -4.8 0  -3.8 -4.8 0  -3.7 -4.8 0  -3.6 -4.8 0  -3.5 -4.8 0  -3.4 -4.8 0  -3.3 -4.8 0  -3.2 -4.8 0  -3.1 -4.8 0  -3 -4.8 0  -2.9 -4.8 0  -2.8 -4.8 0  -2.7 -4.8 0  -2.6 -4.8 0  -2.5 -4.8 0  -2.4 -4.8 0  -2.3 -4.8 0  -2.2 -4.8 0  -2.1 -4.8 0  -2 -4.8 0  -1.9 -4.8 0  -1.8 -4.8 0  -1.7 -4.8 0  -1.6 -4.8 0  -1.5 -4.8 0  -1.4 -4.8 0  -1.3 -4.8 0  -1.2 -4.8 0  -1.1 -4.8 0  -1 -4.8 0  -0.9000000000000004 -4.8 0  -0.7999999999999998 -4.8 0  -0.7000000000000002 -4.8 0  -0.5999999999999996 -4.8 0  -0.5 -4.8 0  -0.4000000000000004 -4.8 0  -0.2999999999999998 -4.8 0  -0.2000000000000002 -4.8 0  -0.09999999999999964 -4.8 0  0 -4.8 0  0.09999999999999964 -4.8 0  0.2000000000000002 -4.8 0  0.2999999999999998 -4.8 0  0.4000000000000004 -4.8 0  0.5 -4.8 0  0.5999999999999996 -4.8 0  0.7000000000000002 -4.8 0  0.7999999999999998 -4.8 0  0.9000000000000004 -4.8 0  1 -4.8 0  1.1 -4.8 0  1.2 -4.8 0  1.3 -4.8 0  1.4 -4.8 0  1.5 -4.8 0  1.6 -4.8 0  1.7 -4.8 0  1.8 -4.8 0  1.9 -4.8 0  2 -4.8 0  2.1 -4.8 0  2.2 -4.8 0  2.3 -4.8 0  2.4 -4.8 0  2.5 -4.8 0  2.6 -4.8 0  2.7 -4.8 0  2.8 -4.8 0  2.9 -4.8 0  3 -4.8 0  3.1 -4.8 0  3.199999999999999 -4.8 0  3.300000000000001 -4.8 0  3.4 -4.8 0  3.5 -4.8 0  3.6 -4.8 0  3.699999999999999 -4.8 0  3.800000000000001 -4.8 0  3.9 -4.8 0  4 -4.8 0  4.1 -4.8 0  4.199999999999999 -4.8 0  4.300000000000001 -4.8 0  4.4 -4.8 0  4.5 -4.8 0  4.6 -4.8 0  4.699999999999999 -4.8 0  4.800000000000001 -4.8 0  4.9 -4.8 0  5 -4.8 0  -5 -4.7 0  -4.9 -4.7 0  -4.8 -4.7 0  -4.7 -4.7 0  -4.6 -4.7 0  -4.5 -4.7 0  -4.4 -4.7 0  -4.3 -4.7 0  -4.2 -4.7 0  -4.1 -4.7 0  -4 -4.7 0  -3.9 -4.7 0  -3.8 -4.7 0  -3.7 -4.7 0  -3.6 -4.7 0  -3.5 -4.7 0  -3.4 -4.7 0  -3.3 -4.7 0  -3.2 -4.7 0  -3.1 -4.7 0  -3 -4.7 0  -2.9 -4.7 0  -2.8 -4.7 0  -2.7 -4.7 0  -2.6 -4.7 0  -2.5 -4.7 0  -2.4 -4.7 0  -2.3 -4.7 0  -2.2 -4.7 0  -2.1 -4.7 0  -2 -4.7 0  -1.9 -4.7 0  -1.8 -4.7 0  -1.7 -4.7 0  -1.6 -4.7 0  -1.5 -4.7 0  -1.4 -4.7 0  -1.3 -4.7 0  -1.2 -4.7 0  -1.1 -4.7 0  -1 -4.7 0  -0.9000000000000004 -4.7 0  -0.7999999999999998 -4.7 0  -0.7000000000000002 -4.7 0  -0.5999999999999996 -4.7 0  -0.5 -4.7 0  -0.4000000000000004 -4.7 0  -0.2999999999999998 -4.7 0  -0.2000000000000002 -4.7 0  -0.09999999999999964 -4.7 0  0 -4.7 0  0.09999999999999964 -4.7 0  0.2000000000000002 -4.7 0  0.2999999999999998 -4.7 0  0.4000000000000004 -4.7 0  0.5 -4.7 0  0.5999999999999996 -4.7 0  0.7000000000000002 -4.7 0  0.7999999999999998 -4.7 0  0.9000000000000004 -4.7 0  1 -4.7 0  1.1 -4.7 0  1.2 -4.7 0  1.3 -4.7 0  1.4 -4.7 0  1.5 -4.7 0  1.6 -4.7 0  1.7 -4.7 0  1.8 -4.7 0  1.9 -4.7 0  2 -4.7 0  2.1 -4.7 0  2.2 -4.7 0  2.3 -4.7 0  2.4 -4.7 0  2.5 -4.7 0  2.6 -4.7 0  2.7 -4.7 0  2.8 -4.7 0  2.9 -4.7 0  3 -4.7 0  3.1 -4.7 0  3.199999999999999 -4.7 0  3.300000000000001 -4.7 0  3.4 -4.7 0  3.5 -4.7 0  3.6 -4.7 0  3.699999999999999 -4.7 0  3.800000000000001 -4.7 0  3.9 -4.7 0  4 -4.7 0  4.1 -4.7 0  4.199999999999999 -4.7 0  4.300000000000001 -4.7 0  4.4 -4.7 0  4.5 -4.7 0  4.6 -4.7 0  4.699999999999999 -4.7 0  4.800000000000001 -4.7 0  4.9 -4.7 0  5 -4.7 0  -5 -4.6 0  -4.9 -4.6 0  -4.8 -4.6 0  -4.7 -4.6 0  -4.6 -4.6 0  -4.5 -4.6 0  -4.4 -4.6 0  -4.3 -4.6 0  -4.2 -4.6 0  -4.1 -4.6 0  -4 -4.6 0  -3.9 -4.6 0  -3.8 -4.6 0  -3.7 -4.6 0  -3.6 -4.6 0  -3.5 -4.6 0  -3.4 -4.6 0  -3.3 -4.6 0  -3.2 -4.6 0  -3.1 -4.6 0  -3 -4.6 0  -2.9 -4.6 0  -2.8 -4.6 0  -2.7 -4.6 0  -2.6 -4.6 0  -2.5 -4.6 0  -2.4 -4.6 0  -2.3 -4.6 0  -2.2 -4.6 0  -2.1 -4.6 0  -2 -4.6 0  -1.9 -4.6 0  -1.8 -4.6 0  -1.7 -4.6 0  -1.6 -4.6 0  -1.5 -4.6 0  -1.4 -4.6 0  -1.3 -4.6 0  -1.2 -4.6 0  -1.1 -4.6 0  -1 -4.6 0  -0.9000000000000004 -4.6 0  -0.7999999999999998 -4.6 0  -0.7000000000000002 -4.6 0  -0.5999999999999996 -4.6 0  -0.5 -4.6 0  -0.4000000000000004 -4.6 0  -0.2999999999999998 -4.6 0  -0.2000000000000002 -4.6 0  -0.09999999999999964 -4.6 0  0 -4.6 0  0.09999999999999964 -4.6 0  0.2000000000000002 -4.6 0  0.2999999999999998 -4.6 0  0.4000000000000004 -4.6 0  0.5 -4.6 0  0.5999999999999996 -4.6 0  0.7000000000000002 -4.6 0  0.7999999999999998 -4.6 0  0.9000000000000004 -4.6 0  1 -4.6 0  1.1 -4.6 0  1.2 -4.6 0  1.3 -4.6 0  1.4 -4.6 0  1.5 -4.6 0  1.6 -4.6 0  1.7 -4.6 0  1.8 -4.6 0  1.9 -4.6 0  2 -4.6 0  2.1 -4.6 0  2.2 -4.6 0  2.3 -4.6 0  2.4 -4.6 0  2.5 -4.6 0  2.6 -4.6 0  2.7 -4.6 0  2.8 -4.6 0  2.9 -4.6 0  3 -4.6 0  3.1 -4.6 0  3.199999999999999 -4.6 0  3.300000000000001 -4.6 0  3.4 -4.6 0  3.5 -4.6 0  3.6 -4.6 0  3.699999999999999 -4.6 0  3.800000000000001 -4.6 0  3.9 -4.6 0  4 -4.6 0  4.1 -4.6 0  4.199999999999999 -4.6 0  4.300000000000001 -4.6 0  4.4 -4.6 0  4.5 -4.6 0  4.6 -4.6 0  4.699999999999999 -4.6 0  4.800000000000001 -4.6 0  4.9 -4.6 0  5 -4.6 0  -5 -4.5 0  -4.9 -4.5 0  -4.8 -4.5 0  -4.7 -4.5 0  -4.6 -4.5 0  -4.5 -4.5 0  -4.4 -4.5 0  -4.3 -4.5 0  -4.2 -4.5 0  -4.1 -4.5 0  -4 -4.5 0  -3.9 -4.5 0  -3.8 -4.5 0  -3.7 -4.5 0  -3.6 -4.5 0  -3.5 -4.5 0  -3.4 -4.5 0  -3.3 -4.5 0  -3.2 -4.5 0  -3.1 -4.5 0  -3 -4.5 0  -2.9 -4.5 0  -2.8 -4.5 0  -2.7 -4.5 0  -2.6 -4.5 0  -2.5 -4.5 0  -2.4 -4.5 0  -2.3 -4.5 0  -2.2 -4.5 0  -2.1 -4.5 0  -2 -4.5 0  -1.9 -4.5 0  -1.8 -4.5 0  -1.7 -4.5 0  -1.6 -4.5 0  -1.5 -4.5 0  -1.4 -4.5 0  -1.3 -4.5 0  -1.2 -4.5 0  -1.1 -4.5 0  -1 -4.5 0  -0.9000000000000004 -4.5 0  -0.7999999999999998 -4.5 0  -0.7000000000000002 -4.5 0  -0.5999999999999996 -4.5 0  -0.5 -4.5 0  -0.4000000000000004 -4.5 0  -0.2999999999999998 -4.5 0  -0.2000000000000002 -4.5 0  -0.09999999999999964 -4.5 0  0 -4.5 0  0.09999999999999964 -4.5 0  0.2000000000000002 -4.5 0  0.2999999999999998 -4.5 0  0.4000000000000004 -4.5 0  0.5 -4.5 0  0.5999999999999996 -4.5 0  0.7000000000000002 -4.5 0  0.7999999999999998 -4.5 0  0.9000000000000004 -4.5 0  1 -4.5 0  1.1 -4.5 0  1.2 -4.5 0  1.3 -4.5 0  1.4 -4.5 0  1.5 -4.5 0  1.6 -4.5 0  1.7 -4.5 0  1.8 -4.5 0  1.9 -4.5 0  2 -4.5 0  2.1 -4.5 0  2.2 -4.5 0  2.3 -4.5 0  2.4 -4.5 0  2.5 -4.5 0  2.6 -4.5 0  2.7 -4.5 0  2.8 -4.5 0  2.9 -4.5 0  3 -4.5 0  3.1 -4.5 0  3.199999999999999 -4.5 0  3.300000000000001 -4.5 0  3.4 -4.5 0  3.5 -4.5 0  3.6 -4.5 0  3.699999999999999 -4.5 0  3.800000000000001 -4.5 0  3.9 -4.5 0  4 -4.5 0  4.1 -4.5 0  4.199999999999999 -4.5 0  4.300000000000001 -4.5 0  4.4 -4.5 0  4.5 -4.5 0  4.6 -4.5 0  4.699999999999999 -4.5 0  4.800000000000001 -4.5 0  4.9 -4.5 0  5 -4.5 0  -5 -4.4 0  -4.9 -4.4 0  -4.8 -4.4 0  -4.7 -4.4 0  -4.6 -4.4 0  -4.5 -4.4 0  -4.4 -4.4 0  -4.3 -4.4 0  -4.2 -4.4 0  -4.1 -4.4 0  -4 -4.4 0  -3.9 -4.4 0  -3.8 -4.4 0  -3.7 -4.4 0  -3.6 -4.4 0  -3.5 -4.4 0  -3.4 -4.4 0  -3.3 -4.4 0  -3.2 -4.4 0  -3.1 -4.4 0  -3 -4.4 0  -2.9 -4.4 0  -2.8 -4.4 0  -2.7 -4.4 0  -2.6 -4.4 0  -2.5 -4.4 0  -2.4 -4.4 0  -2.3 -4.4 0  -2.2 -4.4 0  -2.1 -4.4 0  -2 -4.4 0  -1.9 -4.4 0  -1.8 -4.
[...]
<PointData  Scalars="f_27-1"> 
<DataArray  type="Float64"  Name="f_27-1"  format="ascii">1.0000363606041960e+00  9.9983672096867537e-01  1.0000949065707534e+00  9.9995554984188584e-01  1.0000364410319296e+00  9.9998183885281700e-01  9.9997590505124923e-01  1.0001032150275992e+00  9.9990140548798401e-01  1.0000781512866093e+00  9.9996793981634302e-01  9.9994547570054870e-01  1.0001540032005283e+00  9.9988750513701619e-01  9.9998258490431446e-01  1.0001362631630599e+00  9.9985258258955712e-01  1.0001108139462938e+00  1.0000239845552348e+00  9.9985434560764974e-01  1.0001241448780545e+00  9.9997203044165650e-01  9.9982537077331191e-01  1.0000901737208190e+00  9.9981642097400458e-01  1.0000045570513785e+00  1.0003892502235636e+00  1.0006200086819956e+00  1.0016973871035579e+00  1.0031830129502093e+00  1.0052593283068010e+00  1.0085431220442733e+00  1.0125557595134704e+00  1.0175179470288440e+00  1.0236403511248768e+00  1.0302753228660517e+00  1.0375841781874648e+00  1.0451652333821171e+00  1.0526089739383611e+00  1.0597927328748800e+00  1.0665777890162447e+00  1.0726371159889392e+00  1.0781075392683523e+00  1.0827712354097254e+00  1.0867097202683873e+00  1.0898753023200733e+00  1.0924315327798435e+00  1.0942735112000228e+00  1.0956047028366895e+00  1.0964453912474881e+00  1.0968342482322748e+00  1.0967338668256852e+00  1.0962292555334463e+00  1.0951465647090284e+00  1.0935574458586874e+00  1.0913169536011933e+00  1.0882894485473547e+00  1.0844831032085336e+00  1.0798349143637633e+00  1.0742060495561569e+00  1.0677443478916677e+00  1.0604981601583803e+00  1.0526164796549353e+00  1.0445274042143387e+00  1.0364189922040818e+00  1.0286593436847924e+00  1.0217592552935313e+00  1.0158514455581382e+00  1.0109296006736330e+00  1.0072715541522792e+00  1.0046397505372346e+00  1.0027365866503408e+00  1.0015709374910144e+00  1.0008731254211591e+00  1.0004347409777503e+00  1.0002041369414041e+00  1.0001150593237245e+00  1.0000243271658025e+00  1.0000278566088048e+00  1.0000115446965128e+00  9.9998127936939329e-01  1.0000093796312843e+00  1.0000025922116076e+00  9.9999157632442781e-01  1.0000007000818552e+00  1.0000001753446268e+00  1.0000085391020470e+00  9.9999768505312192e-01  9.9998189271653060e-01  1.0000252317881981e+00  1.0000010469595446e+00  9.9996250513475737e-01  1.0000342172890584e+00  1.0000133264170661e+00  9.9994768188754568e-01  1.0000386100483898e+00  1.0000247205885002e+00  9.9993821804140592e-01  1.0000297675778793e+00  1.0000312166193475e+00  9.9993699274933290e-01  9.9983672096867482e-01  1.0001202339471882e+00  1.0000315335523617e+00  9.9995626831461260e-01  1.0000293273342333e+00  9.9995646547499495e-01  1.0000685838429770e+00  9.9991609514562407e-01  1.0000157891403363e+00  1.0000259167936210e+00  9.9992843719605184e-01  1.0001106205785968e+00  9.9990878445888065e-01  9.9995193390505299e-01  1.0001416929476088e+00  9.9987266931087015e-01  1.0000301415796149e+00  1.0000611941847783e+00  9.9984007545365505e-01  1.0001092500745881e+00  9.9998191360599831e-01  9.9981240996387810e-01  1.0000938898448071e+00  9.9990622778556981e-01  1.0000136931738732e+00  1.0004455719729743e+00  1.0006525634305550e+00  1.0016592361457826e+00  1.0031381759858728e+00  1.0050264189914313e+00  1.0080938337733101e+00  1.0118198055131422e+00  1.0163570551939682e+00  1.0219829204757025e+00  1.0279891276152788e+00  1.0344710664008461e+00  1.0412123974180594e+00  1.0477178474518845e+00  1.0540560457781438e+00  1.0600233856908494e+00  1.0653447643907343e+00  1.0700957024762936e+00  1.0741669753025185e+00  1.0775451803459739e+00  1.0803402482623330e+00  1.0825880662917022e+00  1.0843250604269368e+00  1.0856296081594419e+00  1.0865794608551473e+00  1.0871098137066768e+00  1.0872615761021880e+00  1.0870813615199655e+00  1.0865090913919779e+00  1.0855693409205756e+00  1.0842578918249108e+00  1.0824593641239209e+00  1.0802519079953712e+00  1.0775613550363921e+00  1.0742517984848596e+00  1.0703891980280360e+00  1.0659268842009819e+00  1.0607831188249164e+00  1.0551087941071249e+00  1.0488759992750598e+00  1.0422035506971219e+00  1.0354655298123268e+00  1.0287756060022946e+00  1.0223602380951864e+00  1.0167328057937124e+00  1.0119788260489224e+00  1.0080651049888127e+00  1.0052106756560621e+00  1.0032245213655338e+00  1.0018342653466190e+00  1.0010008501343399e+00  1.0005335877513959e+00  1.0002388906778852e+00  1.0001144892919607e+00  1.0000543054463156e+00  1.0000014904440220e+00  1.0000180894355959e+00  1.0000110090989029e+00  9.9998908984302393e-01  1.0000062564142127e+00  1.0000041918245610e+00  9.9999970688634032e-01  9.9999681150755182e-01  9.9999090302401883e-01  1.0000166566840001e+00  9.9999982537732401e-01  9.9997157064630993e-01  1.0000304766369215e+00  1.0000093887570050e+00  9.9995250919613543e-01  1.0000351574705639e+00  1.0000191440665493e+00  9.9993852365097413e-01  1.0000341090195386e+00  1.0000308459303873e+00  9.9993907378206048e-01  1.0000312166193477e+00  1.0000949065707534e+00  1.0000315335523620e+00  9.9991709500034787e-01  9.9999342416095272e-01  1.0000169708733537e+00  1.0000199193546175e+00  9.9995445517384429e-01  1.0000339892129591e+00  1.0000306033163762e+00  9.9996312149758360e-01  1.0000575225888257e+00  9.9995500641023927e-01  9.9997322972334757e-01  1.0001243271688751e+00  9.9990399488162374e-01  1.0000087301210465e+00  1.0000715277126102e+00  9.9990189248909822e-01  1.0000537542111703e+00  1.0000165551536211e+00  9.9981352942646218e-01  1.0001327215715110e+00  1.0000280133525916e+00  1.0002384288824060e+00  1.0008962878052767e+00  1.0015734282834634e+00  1.0031427088521556e+00  1.0054788211849712e+00  1.0083770823937452e+00  1.0125374783770278e+00  1.0174249376591498e+00  1.0228287372951383e+00  1.0289428152972866e+00  1.0348379327881823e+00  1.0405118242367926e+00  1.0457991645673246e+00  1.0502700119230231e+00  1.0540539349827382e+00  1.0572013271672605e+00  1.0594883867986067e+00  1.0613222866090104e+00  1.0626591741018754e+00  1.0636756163355703e+00  1.0644516279746370e+00  1.0651012950201335e+00  1.0655322811432013e+00  1.0659081800518262e+00  1.0661262962400064e+00  1.0662499786811135e+00  1.0662225124871041e+00  1.0661841782985459e+00  1.0660078603039120e+00  1.0657810608867790e+00  1.0654547947947370e+00  1.0650253082716650e+00  1.0644982880308482e+00  1.0638921676210089e+00  1.0630742391642309e+00  1.0621625865343673e+00  1.0610888718273428e+00  1.0597338990582279e+00  1.0581153967952734e+00  1.0560703510403298e+00  1.0534394296106862e+00  1.0502059540392976e+00  1.0461542072967158e+00  1.0411801324948731e+00  1.0356255403388051e+00  1.0295671952893422e+00  1.0233132719808784e+00  1.0175070058602125e+00  1.0124641100938980e+00  1.0082998378826504e+00  1.0052202793841838e+00  1.0031340118064618e+00  1.0017189179469390e+00  1.0009149873461356e+00  1.0004504276795783e+00  1.0001984380776969e+00  1.0000951127087745e+00  1.0000390892014437e+00  9.9999860107517613e-01  1.0000054688131064e+00  1.0000069103182965e+00  9.9999280493723297e-01  9.9999838111477335e-01  9.9999918006678834e-01  1.0000108047879135e+00  9.9999686464143522e-01  9.9998208673396083e-01  1.0000230367973719e+00  1.0000054431894598e+00  9.9996006580522678e-01  1.0000313615618690e+00  1.0000182633574140e+00  9.9994463082801699e-01  1.0000357790758254e+00  1.0000298811224935e+00  9.9993611089432999e-01  1.0000308459303879e+00  1.0000297675778789e+00  9.9995554984188695e-01  9.9995626831461248e-01  9.9999342416095305e-01  1.0000578563689400e+00  1.0000267589653662e+00  9.9991385095605467e-01  1.0000752397987458e+00  9.9997665561588600e-01  9.9995814198578636e-01  1.0000355685471518e+00  9.9995299391277359e-01  1.0000046183767048e+00  1.0000635875902850e+00  9.9991448051488641e-01  1.0000014628224152e+00  1.0000494448184889e+00  9.9992270952908824e-01  1.0000028242984202e+00  9.9998479123453243e-01  9.9985978038677803e-01  1.0001209789599506e+00  1.0001865941607999e+00  1.0005471160030717e+00  1.0015841989682355e+00  1.0028965489222958e+00  1.0053158484448637e+00  1.0087951096747312e+00  1.0130873945821570e+00  1.0186746004481266e+00  1.0248955373849333e+00  1.0312107439360478e+00  1.0375984968177290e+00  1.0430801276544672e+00  1.0475408143638103e+00  1.0509836953984109e+00  1.0530614187075817e+00  1.0540917871313824e+00  1.0543511349112631e+00  1.0538044709917394e+00  1.0529950281967837e+00  1.0520132706611514e+00  1.0509365634057308e+00  1.0499628094626301e+00  1.0490671241279801e+00  1.0482615314993855e+00  1.0476266299030346e+00  1.0471317201264043e+00  1.0467498432639735e+00  1.0465299651591136e+00  1.0464271085949730e+00  1.0464166913134003e+00  1.0464582520953010e+00  1.0465931557859021e+00  1.0467722700896043e+00  1.0470637541874428e+00  1.0474466540082019e+00  1.0479189255422023e+00  1.0485438940501488e+00  1.0493319301373878e+00  1.0501637323699371e+00  1.0511193749523915e+00  1.0520737873992636e+00  1.0528992410976423e+00  1.0535209507626890e+00  1.0536680956383968e+00  1.0530418621228033e+00  1.0515547624476376e+00  1.0488172663993953e+00  1.0446037998976825e+00  1.0391939249501867e+00  1.0327799329549050e+00  1.0258264951131215e+00  1.0191395780471648e+00  1.0133266861715102e+00  1.0086156840354132e+00  1.0052154807121283e+00  1.0029629352172280e+00  1.0015483587614709e+00  1.0007737215732873e+00  1.0003488019153490e+00  1.0001402061125797e+00  1.0000632955712516e+00  1.0000281900100061e+00  1.0000017488819328e+00  1.0000016371843143e+00  1.0000060698383988e+00  1.0000031703395658e+00  9.9999512811564983e-01  9.9998992344609727e-01  1.0000174780198117e+00  1.0000007333849419e+00  9.9997179057416308e-01  1.0000261530395542e+00  1.0000150801568857e+00  9.9995187517582984e-01  1.0000303092408434e+00  1.0000264222336692e+00  9.9993743923506428e-01  1.0000298811224937e+00  1.0000341090195390e+00  9.9993821804140648e-01  1.0000364410319287e+00  1.0000293273342331e+00  1.0000169708733539e+00  1.0000267589653662e+00  9.9987705439759433e-01  1.0000875751012357e+00  9.9999516975407687e-01  9.9993761939580839e-01  1.0000892273432322e+00  9.9995415115610142e-01  1.0000312893107723e+00  1.0000392999243208e+00  9.9992956798225141e-01  1.0000413649078685e+00  1.0000293534682401e+00  9.9995000717022153e-01  9.9998887445659435e-01  9.9998874170572360e-01  9.9993005759567677e-01  1.0001909462769103e+00  1.0003940068431971e+00  1.0010844112110282e+00  1.0025351971556251e+00  1.0046897997662794e+00  1.0081187469396591e+00  1.0129344680523344e+00  1.0187148547011180e+00  1.0256421900477963e+00  1.0328534774644886e+00  1.0395114070529496e+00  1.0454920544781754e+00  1.0498455430492803e+00  1.0525781472552500e+00  1.0538908636458983e+00  1.0536941144263587e+00  1.0524632253829949e+00  1.0506991249264586e+00  1.0483751182726453e+00  1.0460704651183972e+00  1.0437998755567917e+00  1.0415824222274692e+00  1.0395976366765720e+00  1.0378570417435062e+00  1.0362791889130964e+00  1.0350663513370730e+00  1.0340196479858692e+00  1.0332194270743615e+00  1.0326058677222814e+00  1.0321912124966792e+00  1.0318830751780681e+00  1.0317872816895468e+00  1.0318275890181823e+00  1.0320944710508289e+00  1.0325310589548373e+00  1.0331867824413372e+00  1.0340016970635533e+00  1.0350640800326500e+00  1.0363018565834721e+00  1.0376985601419280e+00  1.0392950899265998e+00  1.0410708267218001e+00  1.0429416261895617e+00  1.0449506920944349e+00  1.0469729805734338e+00  1.0488801875817086e+00  1.0506544801871247e+00  1.0519585990253149e+00  1.0524696013345873e+00  1.0520025685916119e+00  1.0500951174409789e+00  1.0463565955370757e+00  1.0409317080159617e+00  1.0341342700368701e+00  1.0265657670599007e+00  1.0192438630120340e+00  1.0129378029839990e+00  1.0080485803469685e+00  1.0046340463306718e+00  1.0024863927311403e+00  1.0012233207740246e+00  1.0005731305976702e+00  1.0002424371569085e+00  1.0000840267577398e+00  1.0000322437330407e+00  1.0000138781690842e+00  1.0000007750143287e+00  9.9999500599375502e-01  9.9999903070454343e-01  1.0000108046362781e+00  9.9999882198204204e-01  9.9998070587890564e-01  1.0000207011440525e+00  1.0000089552209159e+00  9.9996074783198330e-01  1.0000256980510933e+00  1.0000224263905844e+00  9.9994705940572304e-01  1.0000264222336706e+00  1.0000357790758245e+00  9.9993852365097446e-01  1.0000247205885009e+00  9.9998183885281677e-01  9.9995646547499550e-01  1.0000199193546173e+00  9.9991385095605445e-01  1.0000875751012359e+00  1.0000223368707404e+00  9.9991893974127233e-01  1.0000803331644250e+00  9.9995564541914306e-01  9.9998334042387571e-01  1.0000313508041601e+00  9.9991791690775633e-01  1.0000573758620710e+00  9.9998464783578023e-01  9.9994275161678914e-01  9.9997435910048682e-01  9.9997053264090963e-01  9.9997859699847169e-01  1.0002620747886164e+00  1.0006634824993557e+00  1.0017382856446033e+00  1.0037607123684349e+00  1.0068218079388933e+00  1.0114751926890129e+00  1.0176184754465001e+00  1.0247841959666912e+00  1.0326235373797366e+00  1.0401193988817330e+00  1.0462549569330124e+00  1.0508876213885030e+00  1.0533448087077646e+00  1.0538261759094780e+00  1.0528980500797676e+00  1.0506623716190597e+00  1.0477518622183601e+00  1.0447048481825487e+00  1.0414141362858351e+00  1.0383745576337882e+00  1.0355460963417884e+00  1.0328496747911549e+00  1.0305051130166065e+00  1.0284546373297558e+00  1.0265800510712297e+00  1.0250585071643861e+00  1.0237070508994635e+00  1.0225353219283744e+00  1.0216472733942075e+00  1.0209179212466690e+00  1.0204217987968820e+00  1.0201736969435573e+00  1.0201515833694634e+00  1.0203343475324413e+00  1.0207583383676044e+00  1.0213353977632902e+00  1.0221440642408204e+00  1.0231592978126740e+00  1.0243903803970558e+00  1.0258016373956806e+00  1.0274929626403835e+00  1.0293810783317396e+00  1.0314748018325541e+00  1.0337770040220569e+00  1.0362593720858722e+00  1.0388342749326736e+00  1.0415690640646171e+00  1.0442811384262662e+00  1.0468738112710270e+00  1.0493235331817923e+00  1.0513210089195948e+00  1.0524904207777075e+00  1.0525444856013002e+00  1.0509932380047844e+00  1.0472899247962568e+00  1.0415015165947012e+00  1.0340435912946229e+00  1.0258319498956443e+00  1.0180195046415252e+00  1.0115460653306163e+00  1.0067999102510332e+00  1.0036732174879717e+00  1.0018377372150500e+00  1.0008316260074293e+00  1.0003581119869160e+00  1.0001443951728841e+00  1.0000439906451613e+00  1.0000140411014871e+00  1.0000085506158263e+00  1.0000058262579066e+00  9.9999604347525828e-01  9.9999061153097746e-01  1.0000132069105812e+00  1.0000064639130481e+00  9.9997036134943829e-01  1.0000224706429390e+00  1.0000176557513207e+00  9.9995611085189140e-01  1.0000224263905848e+00  1.0000303092408427e+00  9.9994463082801699e-01  1.0000191440665498e+00  1.0000386100483900e+00  9.9997590505124934e-01  1.0000685838429761e+00  9.9995445517384429e-01  1.0000752397987460e+00  9.9999516975407643e-01  9.9991893974127222e-01  1.0000617945521937e+00  9.9997691783567777e-01  9.9999263214096534e-01  1.0000401452511660e+00  9.9996792519316535e-01  1.0000557572394908e+00  9.9998930229173966e-01  9.9994973584902880e-01  1.0000084723451350e+00  9.9997543164479885e-01  1.0000576772097534e+00  1.0003990359910981e+00  1.0010365458445916e+00  1.0025604409034126e+00  1.0052239493236539e+00  1.0093039035786211e+00  1.0151928072056531e+00  1.0226175938066882e+00  1.0307873443364113e+00  1.0390217909252597e+00  1.0460271654615363e+00  1.0508919499085716e+00  1.0535907016562625e+00  1.0538305336342781e+00  1.0521847290099857e+00  1.0494112038641210e+00  1.0458379595174596e+00  1.0419740226713101e+00  1.0383799990060847e+00  1.0347283612041958e+00  1.0314662638641359e+00  1.0285052811014681e+00  1.0256751647090117e+00  1.0232092416536420e+00  1.0210049860550301e+00  1.0188804502954230e+00  1.0170950688651803e+00  1.0154460399600465e+00  1.0139842748520020e+00  1.0128231840984421e+00  1.0118569574648149e+00  1.0110632034962719e+00  1.0105822274517036e+00  1.0102114303081084e+00  1.0100808052968777e+00  1.0101478398185446e+00  1.0104269641434582e+00  1.0109235311987719e+00  1.0117177165098741e+00  1.0126869820355398e+00  1.0139273628215295e+00  1.0154197157833782e+00  1.0171343264836108e+00  1.0190495212393678e+00  1.0212310406243135e+00  1.0236062496355338e+00  1.0261873570578215e+00  1.0290049004242041e+00  1.0319845163277575e+00  1.0350911351931651e+00  1.0383710688619103e+00  1.0416654827540122e+00  1.0448402831429326e+00  1.0478456005334484e+00  1.0504087284471626e+00  1.0520723493934936e+00  1.0524319852772972e+00  1.0508977065255738e+00  1.0469011674832931e+00  1.0404205015739560e+00  1.0321816818579035e+00  1.0234302997005087e+00  1.0155118233520484e+00  1.0093420308861250e+00  1.0051374586506945e+00  1.0025755796393883e+00  1.0011928419253431e+00  1.0004902217092804e+00  1.0001864777748577e+00  1.0000723456399563e+00  1.0000168008579462e+00  1.0000006699362995e+00  9.9999975962904186e-01  1.0000077538467378e+00  1.0000024473145239e+00  9.9998157024469614e-01  1.0000150671615529e+00  1.0000127941990831e+00  9.9996390430008208e-01  1.0000176557513214e+00  1.0000256980510922e+00  9.9995187517583062e-01  1.0000182633574140e+00  1.0000351574705653e+00  9.9994768188754601e-01  1.0001032150275997e+00  9.9991609514562463e-01  1.0000339892129593e+00  9.9997665561588567e-01  9.9993761939580839e-01  1.0000803331644250e+00  9.9997691783567766e-01  1.0000032963615650e+00  1.0000159022101591e+00  9.9996026328258547e-01  1.0000331181627846e+00  9.9994200376143749e-01  9.9996114782574363e-01  9.9998180441549334e-01  9.9997212902028698e-01  1.0000790608545789e+00  1.0005472493571947e+00  1.0014041812357370e+00  1.0034279435547584e+00  1.0067738383481180e+00  1.0119072364075046e+00  1.0189983231498090e+00  1.0274787976938444e+00  1.0362724819259654e+00  1.0442908277392466e+00  1.0502348516708002e+00  1.0533172750568962e+00  1.0539033561149345e+00  1.0520706621797706e+00  1.0487058191146688e+00  1.0447113203536234e+00  1.0403368384561351e+00  1.0360383025356550e+00  1.0321548056538237e+00  1.0283450303955726e+00  1.0248820651439465e+00  1.0217762136595709e+00  1.0187288740480880e+00  1.0160119622340404e+00  1.0135545577904845e+00  1.0111202707044580e+00  1.0090744733041377e+00  1.0071992434212778e+00  1.0054976683103956e+00  1.0041306945234294e+00  1.0029220249121753e+00  1.0018812993842463e+00  1.0011424376980114e+00  1.0005603723151626e+00  1.0001858806190191e+00  1.0001321175883775e+00  1.0002315083502764e+00  1.0006097723299852e+00  1.0012181841541510e+00  1.0020129789196037e+00  1.0030064089119555e+00  1.0042855488865310e+00  1.0057047713319953e+00  1.0073885769553723e+00  1.0093182423590692e+00  1.0114805830500737e+00  1.0138587097958114e+00  1.0165315562108210e+00  1.0193855511635750e+00  1.0224750649152934e+00  1.0257966006336634e+00  1.0292911777155980e+00  1.0329020266548814e+00  1.0366618791667850e+00  1.0404516259525316e+00  1.0440870778172420e+00  1.0474749215707386e+00  1.0503286670678806e+00  1.0521804289284649e+00  1.0523837085865702e+00  1.0503168718979645e+00  1.0454003463663666e+00  1.0377947728330439e+00  1.0286625757951233e+00  1.0196353110403438e+00  1.0121157946834514e+00  1.0067448565201473e+00  1.0034075559759568e+00  1.0015575536727201e+00  1.0006624121934868e+00  1.0002437227585153e+00  1.0000795610080890e+00  1.0000326131744226e+00  1.0000084574722854e+00  1.0000009402014827e+00  9.9999138299692614e-01  1.0000097374944570e+00  1.0000078730580753e+00  9.9997624872434598e-01  1.0000127941990835e+00  1.0000224706429386e+00  9.9996074783198374e-01  1.0000150801568857e+00  1.0000313615618686e+00  9.9995250919613610e-01  1.0000133264170656e+00  9.9990140548798423e-01  1.0000157891403358e+00  1.0000306033163764e+00  9.9995814198578659e-01  1.0000892273432327e+00  9.9995564541914328e-01  9.9999263214096490e-01  1.0000159022101596e+00  9.9996101631730450e-01  1.0000563362984105e+00  9.9995445550793183e-01  9.9999202611485105e-01  1.0000115536416898e+00  9.9997896026295419e-01  1.0001722764677270e+00  1.0007143107821836e+00  1.0018574215967671e+00  1.0043151292718731e+00  1.0084213294705291e+00  1.0145287270623751e+00  1.0227323350624153e+00  1.0319826265112