<?xml version="1.0"?>
<VTKFile type="UnstructuredGrid"  version="0.1"  >
<UnstructuredGrid>
<Piece  NumberOfPoints="10201" NumberOfCells="20000">
<Points>
<DataArray  type="Float64"  NumberOfComponents="3"  format="ascii">-5 -5 0  -4.9 -5 0  -4.8 -5 0  -4.7 -5 0  -4.6 -5 0  -4.5 -5 0  -4.4 -5 0  -4.3 -5 0  -4.2 -5 0  -4.1 -5 0  -4 -5 0  -3.9 -5 0  -3.8 -5 0  -3.7 -5 0  -3.6 -5 0  -3.5 -5 0  -3.4 -5 0  -3.3 -5 0  -3.2 -5 0  -3.1 -5 0  -3 -5 0  -2.9 -5 0  -2.8 -5 0  -2.7 -5 0  -2.6 -5 0  -2.5 -5 0  -2.4 -5 0  -2.3 -5 0  -2.2 -5 0  -2.1 -5 0  -2 -5 0  -1.9 -5 0  -1.8 -5 0  -1.7 -5 0  -1.6 -5 0  -1.5 -5 0  -1.4 -5 0  -1.3 -5 0  -1.2 -5 0  -1.1 -5 0  -1 -5 0  -0.9000000000000004 -5 0  -0.7999999999999998 -5 0  -0.7000000000000002 -5 0  -0.5999999999999996 -5 0  -0.5 -5 0  -0.4000000000000004 -5 0  -0.2999999999999998 -5 0  -0.2000000000000002 -5 0  -0.09999999999999964 -5 0  0 -5 0  0.09999999999999964 -5 0  0.2000000000000002 -5 0  0.2999999999999998 -5 0  0.4000000000000004 -5 0  0.5 -5 0  0.5999999999999996 -5 0  0.7000000000000002 -5 0  0.7999999999999998 -5 0  0.9000000000000004 -5 0  1 -5 0  1.1 -5 0  1.2 -5 0  1.3 -5 0  1.4 -5 0  1.5 -5 0  1.6 -5 0  1.7 -5 0  1.8 -5 0  1.9 -5 0  2 -5 0  2.1 -5 0  2.2 -5 0  2.3 -5 0  2.4 -5 0  2.5 -5 0  2.6 -5 0  2.7 -5 0  2.8 -5 0  2.9 -5 0  3 -5 0  3.1 -5 0  3.199999999999999 -5 0  3.300000000000001 -5 0  3.4 -5 0  3.5 -5 0  3.6 -5 0  3.699999999999999 -5 0  3.800000000000001 -5 0  3.9 -5 0  4 -5 0  4.1 -5 0  4.199999999999999 -5 0  4.300000000000001 -5 0  4.4 -5 0  4.5 -5 0  4.6 -5 0  4.699999999999999 -5 0  4.800000000000001 -5 0  4.9 -5 0  5 -5 0  -5 -4.9 0  -4.9 -4.9 0  -4.8 -4.9 0  -4.7 -4.9 0  -4.6 -4.9 0  -4.5 -4.9 0  -4.4 -4.9 0  -4.3 -4.9 0  -4.2 -4.9 0  -4.1 -4.9 0  -4 -4.9 0  -3.9 -4.9 0  -3.8 -4.9 0  -3.7 -4.9 0  -3.6 -4.9 0  -3.5 -4.9 0  -3.4 -4.9 0  -3.3 -4.9 0  -3.2 -4.9 0  -3.1 -4.9 0  -3 -4.9 0  -2.9 -4.9 0  -2.8 -4.9 0  -2.7 -4.9 0  -2.6 -4.9 0  -2.5 -4.9 0  -2.4 -4.9 0  -2.3 -4.9 0  -2.2 -4.9 0  -2.1 -4.9 0  -2 -4.9 0  -1.9 -4.9 0  -1.8 -4.9 0  -1.7 -4.9 0  -1.6 -4.9 0  -1.5 -4.9 0  -1.4 -4.9 0  -1.3 -4.9 0  -1.2 -4.9 0  -1.1 -4.9 0  -1 -4.9 0  -0.9000000000000004 -4.9 0  -0.7999999999999998 -4.9 0  -0.7000000000000002 -4.9 0  -0.5999999999999996 -4.9 0  -0.5 -4.9 0  -0.4000000000000004 -4.9 0  -0.2999999999999998 -4.9 0  -0.2000000000000002 -4.9 0  -0.09999999999999964 -4.9 0  0 -4.9 0  0.09999999999999964 -4.9 0  0.2000000000000002 -4.9 0  0.2999999999999998 -4.9 0  0.4000000000000004 -4.9 0  0.5 -4.9 0  0.5999999999999996 -4.9 0  0.7000000000000002 -4.9 0  0.7999999999999998 -4.9 0  0.9000000000000004 -4.9 0  1 -4.9 0  1.1 -4.9 0  1.2 -4.9 0  1.3 -4.9 0  1.4 -4.9 0  1.5 -4.9 0  1.6 -4.9 0  1.7 -4.9 0  1.8 -4.9 0  1.9 -4.9 0  2 -4.9 0  2.1 -4.9 0  2.2 -4.9 0  2.3 -4.9 0  2.4 -4.9 0  2.5 -4.9 0  2.6 -4.9 0  2.7 -4.9 0  2.8 -4.9 0  2.9 -4.9 0  3 -4.9 0  3.1 -4.9 0  3.199999999999999 -4.9 0  3.300000000000001 -4.9 0  3.4 -4.9 0  3.5 -4.9 0  3.6 -4.9 0  3.699999999999999 -4.9 0  3.800000000000001 -4.9 0  3.9 -4.9 0  4 -4.9 0  4.1 -4.9 0  4.199999999999999 -4.9 0  4.300000000000001 -4.9 0  4.4 -4.9 0  4.5 -4.9 0  4.6 -4.9 0  4.699999999999999 -4.9 0  4.800000000000001 -4.9 0  4.9 -4.9 0  5 -4.9 0  -5 -4.8 0  -4.9 -4.8 0  -4.8 -4.8 0  -4.7 -4.8 0  -4.6 -4.8 0  -4.5 -4.8 0  -4.4 -4.8 0  -4.3 -4.8 0  -4.2 -4.8 0  -4.1 -4.8 0  -4 -4.8 0  -3.9 -4.8 0  -3.8 -4.8 0  -3.7 -4.8 0  -3.6 -4.8 0  -3.5 -4.8 0  -3.4 -4.8 0  -3.3 -4.8 0  -3.2 -4.8 0  -3.1 -4.8 0  -3 -4.8 0  -2.9 -4.8 0  -2.8 -4.8 0  -2.7 -4.8 0  -2.6 -4.8 0  -2.5 -4.8 0  -2.4 -4.8 0  -2.3 -4.8 0  -2.2 -4.8 0  -2.1 -4.8 0  -2 -4.8 0  -1.9 -4.8 0  -1.8 -4.8 0  -1.7 -4.8 0  -1.6 -4.8 0  -1.5 -4.8 0  -1.4 -4.8 0  -1.3 -4.8 0  -1.2 -4.8 0  -1.1 -4.8 0  -1 -4.8 0  -0.9000000000000004 -4.8 0  -0.7999999999999998 -4.8 0  -0.7000000000000002 -4.8 0  -0.5999999999999996 -4.8 0  -0.5 -4.8 0  -0.4000000000000004 -4.8 0  -0.2999999999999998 -4.8 0  -0.2000000000000002 -4.8 0  -0.09999999999999964 -4.8 0  0 -4.8 0  0.09999999999999964 -4.8 0  0.2000000000000002 -4.8 0  0.2999999999999998 -4.8 0  0.4000000000000004 -4.8 0  0.5 -4.8 0  0.5999999999999996 -4.8 0  0.7000000000000002 -4.8 0  0.7999999999999998 -4.8 0  0.9000000000000004 -4.8 0  1 -4.8 0  1.1 -4.8 0  1.2 -4.8 0  1.3 -4.8 0  1.4 -4.8 0  1.5 -4.8 0  1.6 -4.8 0  1.7 -4.8 0  1.8 -4.8 0  1.9 -4.8 0  2 -4.8 0  2.1 -4.8 0  2.2 -4.8 0  2.3 -4.8 0  2.4 -4.8 0  2.5 -4.8 0  2.6 -4.8 0  2.7 -4.8 0  2.8 -4.8 0  2.9 -4.8 0  3 -4.8 0  3.1 -4.8 0  3.199999999999999 -4.8 0  3.300000000000001 -4.8 0  3.4 -4.8 0  3.5 -4.8 0  3.6 -4.8 0  3.699999999999999 -4.8 0  3.800000000000001 -4.8 0  3.9 -4.8 0  4 -4.8 0  4.1 -4.8 0  4.199999999999999 -4.8 0  4.300000000000001 -4.8 0  4.4 -4.8 0  4.5 -4.8 0  4.6 -4.8 0  4.699999999999999 -4.8 0  4.800000000000001 -4.8 0  4.9 -4.8 0  5 -4.8 0  -5 -4.7 0  -4.9 -4.7 0  -4.8 -4.7 0  -4.7 -4.7 0  -4.6 -4.7 0  -4.5 -4.7 0  -4.4 -4.7 0  -4.3 -4.7 0  -4.2 -4.7 0  -4.1 -4.7 0  -4 -4.7 0  -3.9 -4.7 0  -3.8 -4.7 0  -3.7 -4.7 0  -3.6 -4.7 0  -3.5 -4.7 0  -3.4 -4.7 0  -3.3 -4.7 0  -3.2 -4.7 0  -3.1 -4.7 0  -3 -4.7 0  -2.9 -4.7 0  -2.8 -4.7 0  -2.7 -4.7 0  -2.6 -4.7 0  -2.5 -4.7 0  -2.4 -4.7 0  -2.3 -4.7 0  -2.2 -4.7 0  -2.1 -4.7 0  -2 -4.7 0  -1.9 -4.7 0  -1.8 -4.7 0  -1.7 -4.7 0  -1.6 -4.7 0  -1.5 -4.7 0  -1.4 -4.7 0  -1.3 -4.7 0  -1.2 -4.7 0  -1.1 -4.7 0  -1 -4.7 0  -0.9000000000000004 -4.7 0  -0.7999999999999998 -4.7 0  -0.7000000000000002 -4.7 0  -0.5999999999999996 -4.7 0  -0.5 -4.7 0  -0.4000000000000004 -4.7 0  -0.2999999999999998 -4.7 0  -0.2000000000000002 -4.7 0  -0.09999999999999964 -4.7 0  0 -4.7 0  0.09999999999999964 -4.7 0  0.2000000000000002 -4.7 0  0.2999999999999998 -4.7 0  0.4000000000000004 -4.7 0  0.5 -4.7 0  0.5999999999999996 -4.7 0  0.7000000000000002 -4.7 0  0.7999999999999998 -4.7 0  0.9000000000000004 -4.7 0  1 -4.7 0  1.1 -4.7 0  1.2 -4.7 0  1.3 -4.7 0  1.4 -4.7 0  1.5 -4.7 0  1.6 -4.7 0  1.7 -4.7 0  1.8 -4.7 0  1.9 -4.7 0  2 -4.7 0  2.1 -4.7 0  2.2 -4.7 0  2.3 -4.7 0  2.4 -4.7 0  2.5 -4.7 0  2.6 -4.7 0  2.7 -4.7 0  2.8 -4.7 0  2.9 -4.7 0  3 -4.7 0  3.1 -4.7 0  3.199999999999999 -4.7 0  3.300000000000001 -4.7 0  3.4 -4.7 0  3.5 -4.7 0  3.6 -4.7 0  3.699999999999999 -4.7 0  3.800000000000001 -4.7 0  3.9 -4.7 0  4 -4.7 0  4.1 -4.7 0  4.199999999999999 -4.7 0  4.300000000000001 -4.7 0  4.4 -4.7 0  4.5 -4.7 0  4.6 -4.7 0  4.699999999999999 -4.7 0  4.800000000000001 -4.7 0  4.9 -4.7 0  5 -4.7 0  -5 -4.6 0  -4.9 -4.6 0  -4.8 -4.6 0  -4.7 -4.6 0  -4.6 -4.6 0  -4.5 -4.6 0  -4.4 -4.6 0  -4.3 -4.6 0  -4.2 -4.6 0  -4.1 -4.6 0  -4 -4.6 0  -3.9 -4.6 0  -3.8 -4.6 0  -3.7 -4.6 0  -3.6 -4.6 0  -3.5 -4.6 0  -3.4 -4.6 0  -3.3 -4.6 0  -3.2 -4.6 0  -3.1 -4.6 0  -3 -4.6 0  -2.9 -4.6 0  -2.8 -4.6 0  -2.7 -4.6 0  -2.6 -4.6 0  -2.5 -4.6 0  -2.4 -4.6 0  -2.3 -4.6 0  -2.2 -4.6 0  -2.1 -4.6 0  -2 -4.6 0  -1.9 -4.6 0  -1.8 -4.6 0  -1.7 -4.6 0  -1.6 -4.6 0  -1.5 -4.6 0  -1.4 -4.6 0  -1.3 -4.6 0  -1.2 -4.6 0  -1.1 -4.6 0  -1 -4.6 0  -0.9000000000000004 -4.6 0  -0.7999999999999998 -4.6 0  -0.7000000000000002 -4.6 0  -0.5999999999999996 -4.6 0  -0.5 -4.6 0  -0.4000000000000004 -4.6 0  -0.2999999999999998 -4.6 0  -0.2000000000000002 -4.6 0  -0.09999999999999964 -4.6 0  0 -4.6 0  0.09999999999999964 -4.6 0  0.2000000000000002 -4.6 0  0.2999999999999998 -4.6 0  0.4000000000000004 -4.6 0  0.5 -4.6 0  0.5999999999999996 -4.6 0  0.7000000000000002 -4.6 0  0.7999999999999998 -4.6 0  0.9000000000000004 -4.6 0  1 -4.6 0  1.1 -4.6 0  1.2 -4.6 0  1.3 -4.6 0  1.4 -4.6 0  1.5 -4.6 0  1.6 -4.6 0  1.7 -4.6 0  1.8 -4.6 0  1.9 -4.6 0  2 -4.6 0  2.1 -4.6 0  2.2 -4.6 0  2.3 -4.6 0  2.4 -4.6 0  2.5 -4.6 0  2.6 -4.6 0  2.7 -4.6 0  2.8 -4.6 0  2.9 -4.6 0  3 -4.6 0  3.1 -4.6 0  3.199999999999999 -4.6 0  3.300000000000001 -4.6 0  3.4 -4.6 0  3.5 -4.6 0  3.6 -4.6 0  3.699999999999999 -4.6 0  3.800000000000001 -4.6 0  3.9 -4.6 0  4 -4.6 0  4.1 -4.6 0  4.199999999999999 -4.6 0  4.300000000000001 -4.6 0  4.4 -4.6 0  4.5 -4.6 0  4.6 -4.6 0  4.699999999999999 -4.6 0  4.800000000000001 -4.6 0  4.9 -4.6 0  5 -4.6 0  -5 -4.5 0  -4.9 -4.5 0  -4.8 -4.5 0  -4.7 -4.5 0  -4.6 -4.5 0  -4.5 -4.5 0  -4.4 -4.5 0  -4.3 -4.5 0  -4.2 -4.5 0  -4.1 -4.5 0  -4 -4.5 0  -3.9 -4.5 0  -3.8 -4.5 0  -3.7 -4.5 0  -3.6 -4.5 0  -3.5 -4.5 0  -3.4 -4.5 0  -3.3 -4.5 0  -3.2 -4.5 0  -3.1 -4.5 0  -3 -4.5 0  -2.9 -4.5 0  -2.8 -4.5 0  -2.7 -4.5 0  -2.6 -4.5 0  -2.5 -4.5 0  -2.4 -4.5 0  -2.3 -4.5 0  -2.2 -4.5 0  -2.1 -4.5 0  -2 -4.5 0  -1.9 -4.5 0  -1.8 -4.5 0  -1.7 -4.5 0  -1.6 -4.5 0  -1.5 -4.5 0  -1.4 -4.5 0  -1.3 -4.5 0  -1.2 -4.5 0  -1.1 -4.5 0  -1 -4.5 0  -0.9000000000000004 -4.5 0  -0.7999999999999998 -4.5 0  -0.7000000000000002 -4.5 0  -0.5999999999999996 -4.5 0  -0.5 -4.5 0  -0.4000000000000004 -4.5 0  -0.2999999999999998 -4.5 0  -0.2000000000000002 -4.5 0  -0.09999999999999964 -4.5 0  0 -4.5 0  0.09999999999999964 -4.5 0  0.2000000000000002 -4.5 0  0.2999999999999998 -4.5 0  0.4000000000000004 -4.5 0  0.5 -4.5 0  0.5999999999999996 -4.5 0  0.7000000000000002 -4.5 0  0.7999999999999998 -4.5 0  0.9000000000000004 -4.5 0  1 -4.5 0  1.1 -4.5 0  1.2 -4.5 0  1.3 -4.5 0  1.4 -4.5 0  1.5 -4.5 0  1.6 -4.5 0  1.7 -4.5 0  1.8 -4.5 0  1.9 -4.5 0  2 -4.5 0  2.1 -4.5 0  2.2 -4.5 0  2.3 -4.5 0  2.4 -4.5 0  2.5 -4.5 0  2.6 -4.5 0  2.7 -4.5 0  2.8 -4.5 0  2.9 -4.5 0  3 -4.5 0  3.1 -4.5 0  3.199999999999999 -4.5 0  3.300000000000001 -4.5 0  3.4 -4.5 0  3.5 -4.5 0  3.6 -4.5 0  3.699999999999999 -4.5 0  3.800000000000001 -4.5 0  3.9 -4.5 0  4 -4.5 0  4.1 -4.5 0  4.199999999999999 -4.5 0  4.300000000000001 -4.5 0  4.4 -4.5 0  4.5 -4.5 0  4.6 -4.5 0  4.699999999999999 -4.5 0  4.800000000000001 -4.5 0  4.9 -4.5 0  5 -4.5 0  -5 -4.4 0  -4.9 -4.4 0  -4.8 -4.4 0  -4.7 -4.4 0  -4.6 -4.4 0  -4.5 -4.4 0  -4.4 -4.4 0  -4.3 -4.4 0  -4.2 -4.4 0  -4.1 -4.4 0  -4 -4.4 0  -3.9 -4.4 0  -3.8 -4.4 0  -3.7 -4.4 0  -3.6 -4.4 0  -3.5 -4.4 0  -3.4 -4.4 0  -3.3 -4.4 0  -3.2 -4.4 0  -3.1 -4.4 0  -3 -4.4 0  -2.9 -4.4 0  -2.8 -4.4 0  -2.7 -4.4 0  -2.6 -4.4 0  -2.5 -4.4 0  -2.4 -4.4 0  -2.3 -4.4 0  -2.2 -4.4 0  -2.1 -4.4 0  -2 -4.4 0  -1.9 -4.4 0  -1.8 -4.
[...]
<PointData  Scalars="f_27-1"> 
<DataArray  type="Float64"  Name="f_27-1"  format="ascii">9.9983918732255561e-01  1.0000480567103500e+00  9.9996773550688522e-01  1.0000184133226886e+00  9.9999069723415812e-01  1.0000403281405996e+00  9.9994434113176600e-01  1.0000460497118737e+00  9.9996972222329927e-01  1.0000172274663552e+00  9.9997027026114493e-01  1.0000279976289850e+00  9.9998288061851492e-01  9.9999818002596474e-01  1.0000135604207065e+00  9.9998492851817633e-01  1.0000110818274210e+00  9.9998762275049091e-01  1.0000096025799776e+00  9.9997431248524338e-01  1.0000284578991498e+00  9.9997537643132639e-01  1.0000163361354450e+00  9.9998471072799244e-01  1.0000144387389649e+00  9.9998455119035734e-01  1.0000239849728296e+00  9.9998610440271019e-01  1.0000065126870663e+00  9.9999438257497419e-01  1.0000061932551738e+00  9.9999566327169254e-01  1.0000087322265232e+00  9.9998988925229526e-01  9.9999910365964095e-01  1.0000031017216002e+00  1.0000000841204344e+00  9.9999645123393266e-01  1.0000011450325939e+00  9.9999816492166971e-01  1.0000044264333687e+00  1.0000028649170205e+00  9.9999449717013278e-01  1.0000001407316645e+00  1.0000048714392329e+00  9.9999862412055340e-01  9.9999827214622106e-01  9.9999955638728000e-01  1.0000000208297199e+00  1.0000032430611201e+00  9.9999781293459855e-01  9.9999665016890682e-01  1.0000037951814020e+00  1.0000018489755600e+00  9.9999543987707051e-01  1.0000006363051088e+00  1.0000025182781120e+00  1.0000000484833163e+00  9.9999707690842465e-01  1.0000005264422689e+00  1.0000030860120537e+00  9.9999861234597942e-01  9.9999667982673213e-01  1.0000033880873826e+00  1.0000019779413187e+00  9.9999460858236577e-01  1.0000024515936887e+00  1.0000020535776779e+00  9.9999845278085620e-01  9.9999687890299349e-01  1.0000056477447188e+00  9.9999671735807971e-01  9.9999982458749992e-01  1.0000003088668428e+00  1.0000022729222999e+00  9.9999631303860981e-01  1.0000020913107031e+00  1.0000006485774995e+00  9.9999787790229611e-01  1.0000020789704116e+00  9.9999815496790390e-01  1.0000021795634100e+00  9.9999724156870040e-01  1.0000034030000278e+00  9.9999585151635551e-01  1.0000051060942543e+00  9.9999465917287211e-01  1.0000043739488633e+00  9.9999747644951709e-01  1.0000010107877162e+00  9.9999948851896259e-01  1.0000010405704458e+00  9.9999981919584247e-01  9.9999869026466015e-01  1.0000035261092666e+00  9.9999323894657688e-01  1.0000039853346687e+00  9.9999576001831036e-01  1.0000063411907945e+00  9.9999217537155893e-01  1.0000413615689279e+00  1.0000480567103496e+00  1.0000498070351813e+00  9.9995747135526458e-01  1.0000116475459884e+00  1.0000281710029983e+00  1.0000082520849105e+00  9.9993397360291780e-01  1.0000906881503673e+00  9.9995112224986804e-01  9.9998710096729904e-01  1.0000133086170502e+00  1.0000237961882679e+00  9.9996398344236481e-01  1.0000267397512070e+00  1.0000197025551238e+00  9.9997422943453029e-01  1.0000269527049290e+00  9.9999604202342096e-01  9.9999462303350350e-01  9.9999169374857411e-01  1.0000317069758347e+00  9.9994751423272632e-01  1.0000102944283407e+00  9.9998407866094652e-01  9.9999091260322182e-01  9.9998457221951031e-01  1.0000275654748827e+00  9.9997467241909943e-01  1.0000304688779313e+00  1.0000288132897326e+00  1.0000137289228974e+00  1.0000054619342940e+00  1.0000040508866357e+00  9.9995521622883454e-01  9.9998145150822226e-01  9.9998837077293812e-01  9.9997565994457749e-01  1.0000026064967555e+00  1.0000190966128624e+00  1.0000038278357901e+00  1.0000222736946998e+00  1.0000129639393585e+00  9.9999195260378926e-01  1.0000129687500228e+00  1.0000067076040622e+00  9.9998480461042627e-01  1.0000025867118145e+00  1.0000014160055535e+00  9.9999299280320664e-01  1.0000049169367835e+00  9.9999444917987701e-01  9.9999429105084858e-01  1.0000123742164562e+00  9.9999434425795142e-01  9.9999092242315013e-01  1.0000110384821330e+00  1.0000002255400171e+00  9.9999191771580465e-01  1.0000040333326139e+00  1.0000016449817546e+00  9.9999957379260163e-01  9.9999849083317993e-01  9.9999712455270706e-01  1.0000071437264553e+00  9.9999797474720886e-01  9.9999265374895008e-01  1.0000071392545917e+00  1.0000042883528741e+00  9.9998737280349292e-01  1.0000071654283391e+00  1.0000046656983750e+00  9.9999216735376362e-01  9.9999947704567738e-01  1.0000088600478410e+00  9.9999280830074710e-01  9.9999877213593058e-01  1.0000063001696768e+00  9.9999606313800604e-01  9.9999938411968226e-01  1.0000014744343075e+00  1.0000017097368572e+00  9.9999516417420975e-01  1.0000058664477636e+00  9.9999446060226449e-01  1.0000049869893628e+00  9.9999571588720637e-01  1.0000025751830137e+00  9.9999825224478356e-01  1.0000022051397193e+00  9.9999588788893357e-01  1.0000053114488352e+00  9.9999672741803181e-01  1.0000008543909620e+00  1.0000013711803735e+00  9.9999846646742840e-01  9.9999767604666046e-01  9.9999838796689711e-01  1.0000030321561177e+00  9.9999132136426561e-01  1.0000173693568584e+00  9.9999217537155860e-01  9.9996773550688545e-01  9.9995747135526469e-01  9.9994358672523476e-01  1.0000943070888240e+00  9.9994137530983440e-01  9.9995661608196673e-01  1.0000695762446570e+00  1.0000143459005750e+00  9.9987093458460474e-01  1.0001281691202013e+00  9.9997105218821003e-01  9.9995720143143196e-01  9.9999954507562683e-01  1.0000252082729602e+00  9.9992405833330911e-01  1.0000002106809511e+00  1.0000175373358744e+00  9.9993999472276651e-01  1.0000212061625755e+00  1.0000058927329465e+00  9.9997324516147756e-01  9.9999746798205424e-01  1.0000888042235938e+00  9.9998118756200682e-01  1.0000532050085944e+00  1.0000353773523583e+00  1.0000038805482447e+00  9.9999435418101157e-01  1.0000307674392472e+00  9.9990964734319943e-01  9.9994686804064381e-01  9.9996583261014171e-01  9.9996381509322485e-01  1.0000230680856572e+00  1.0000806034173066e+00  1.0000250389455820e+00  1.0000550245521747e+00  1.0000471516012093e+00  9.9997577285900685e-01  9.9998124971808189e-01  9.9998293691528262e-01  9.9994767025351028e-01  9.9999467032375022e-01  9.9999938797637711e-01  9.9996494006673298e-01  1.0000114269742066e+00  1.0000182407041627e+00  9.9998636210712233e-01  1.0000117350022171e+00  1.0000043972193666e+00  9.9999170663054815e-01  1.0000213540578462e+00  9.9999290333750657e-01  9.9998400691599554e-01  1.0000236009892902e+00  9.9999936386484678e-01  9.9998017360861102e-01  1.0000145025864406e+00  1.0000032593146297e+00  9.9999199372770942e-01  1.0000019802343310e+00  9.9999807132935725e-01  1.0000064951573964e+00  9.9999909289240863e-01  9.9998804876124070e-01  1.0000112249143109e+00  1.0000082357598670e+00  9.9997688085314518e-01  1.0000130491073367e+00  1.0000096832657486e+00  9.9998396563638647e-01  9.9999890798593771e-01  1.0000190380829044e+00  9.9998355984895348e-01  9.9999896852911507e-01  1.0000116116573663e+00  9.9999395119365508e-01  9.9999534352717279e-01  1.0000062461972969e+00  1.0000013122104030e+00  9.9999133942421758e-01  1.0000094394148649e+00  9.9999294817876827e-01  1.0000058516762866e+00  9.9999383066696956e-01  1.0000060849271932e+00  9.9999534527570333e-01  1.0000055509206180e+00  9.9999317199389193e-01  1.0000080580076258e+00  9.9999520896605376e-01  9.9999966928226514e-01  1.0000037568776936e+00  9.9999595386104490e-01  1.0000015633698460e+00  9.9999633073293959e-01  1.0000082798500338e+00  9.9998734975544634e-01  1.0000182677598053e+00  9.9999132136426561e-01  1.0000063411907940e+00  1.0000184133226884e+00  1.0000116475459879e+00  1.0000943070888237e+00  9.9997206112539738e-01  9.9990936234823302e-01  1.0001569894608264e+00  9.9996118665919675e-01  9.9989907973959380e-01  1.0001137307324117e+00  1.0000420943463415e+00  9.9984608512257545e-01  1.0001007358028950e+00  1.0000227341070684e+00  9.9995679332883181e-01  1.0000305675525736e+00  1.0000785450470273e+00  9.9996583085907909e-01  1.0000341558715153e+00  1.0000662702393817e+00  9.9994439993099782e-01  1.0000402393509837e+00  1.0000512393118692e+00  9.9995197814573722e-01  9.9994100606534642e-01  1.0000255362505457e+00  9.9989984939073917e-01  9.9998372317383943e-01  1.0000009070145663e+00  9.9995304269766139e-01  1.0000002998125685e+00  1.0001191867489416e+00  1.0000335488134111e+00  1.0000694822308567e+00  1.0000397453411056e+00  9.9992319655677320e-01  9.9992720822780001e-01  9.9996664443190031e-01  9.9990108326133931e-01  9.9997862933164205e-01  1.0000378766289952e+00  1.0000067929896552e+00  1.0000562156926052e+00  1.0000556737993447e+00  9.9998552794533246e-01  1.0000350023522462e+00  1.0000302452359775e+00  9.9996349225779391e-01  1.0000028999232395e+00  1.0000065587089404e+00  9.9997591074258141e-01  1.0000146959057452e+00  9.9998905777409719e-01  9.9997628375328362e-01  1.0000311377017239e+00  9.9999519997350050e-01  9.9996862613641102e-01  1.0000264521046260e+00  1.0000050938289677e+00  9.9997922127931727e-01  1.0000089791284967e+00  1.0000019774786673e+00  1.0000007555297932e+00  1.0000000291538724e+00  9.9998845325711305e-01  1.0000121728988980e+00  1.0000103895631545e+00  9.9996956731257902e-01  1.0000178144525151e+00  1.0000150535140717e+00  9.9997370726336265e-01  1.0000012486512055e+00  1.0000278924507167e+00  9.9997450240347086e-01  9.9999728507943986e-01  1.0000215771624184e+00  9.9998725135746902e-01  9.9999330943519771e-01  1.0000116336753317e+00  1.0000008469286643e+00  9.9998669025610465e-01  1.0000141885439535e+00  9.9999232486312906e-01  1.0000046364368191e+00  9.9999383104833739e-01  1.0000073891541750e+00  9.9999411225803836e-01  1.0000041193314790e+00  9.9999397360120901e-01  1.0000067868128302e+00  9.9999470695397974e-01  9.9999974534844893e-01  1.0000041707454221e+00  9.9999762063297537e-01  9.9999984287668919e-01  1.0000005267340839e+00  1.0000034246703777e+00  9.9998689757761072e-01  1.0000107794989286e+00  9.9998734975544656e-01  1.0000030321561177e+00  9.9999576001831103e-01  9.9999069723415801e-01  1.0000281710029986e+00  9.9994137530983418e-01  9.9990936234823291e-01  1.0001516498130212e+00  9.9997049412643391e-01  9.9982976743536600e-01  1.0001874178851469e+00  9.9997463302339495e-01  9.9985987172414181e-01  1.0000810075390147e+00  1.0001046011842589e+00  9.9985378548196002e-01  1.0000642417871339e+00  1.0000332400205547e+00  9.9992280671190192e-01  9.9998710955316694e-01  1.0000429399000050e+00  9.9992501811191592e-01  9.9999777685442803e-01  1.0000708254333790e+00  9.9990073595577256e-01  1.0000048258017371e+00  1.0000779309579939e+00  1.0000056773002954e+00  1.0000086838552540e+00  1.0001068360015262e+00  9.9994912414849124e-01  1.0000293387846668e+00  1.0000464762773633e+00  9.9992146543176907e-01  9.9989223072159750e-01  9.9997290518492510e-01  9.9989517603110645e-01  1.0000285282516819e+00  1.0001192190306973e+00  1.0000561125282761e+00  1.0000882243206857e+00  1.0001088437772825e+00  9.9997038416102790e-01  9.9997775706429670e-01  9.9997154882716055e-01  9.9990049290152816e-01  9.9997745976064845e-01  9.9999982728847547e-01  9.9993330909993483e-01  1.0000105068889460e+00  1.0000330287263806e+00  9.9997773875524931e-01  1.0000235919628313e+00  1.0000084679285308e+00  9.9998307905464368e-01  1.0000393281437725e+00  9.9999632006399219e-01  9.9996451312771117e-01  1.0000402905608892e+00  1.0000046498319222e+00  9.9996637883807282e-01  1.0000195292619367e+00  1.0000074419013258e+00  9.9998876223580047e-01  1.0000039884408267e+00  9.9999294324695076e-01  1.0000084183505509e+00  1.0000110576750219e+00  9.9996777621264532e-01  1.0000198456583669e+00  1.0000185142206544e+00  9.9996616794780890e-01  1.0000027460664149e+00  1.0000371222177142e+00  9.9996381561583936e-01  9.9999745512977756e-01  1.0000306731023645e+00  9.9998158371589596e-01  9.9998764593454248e-01  1.0000224003282507e+00  9.9999568893505786e-01  9.9998349951569232e-01  1.0000181725750372e+00  9.9999310959682142e-01  9.9999988368057746e-01  9.9999641010193518e-01  1.0000082884274437e+00  9.9999223670481896e-01  1.0000049443339791e+00  9.9999482697826136e-01  1.0000086889048820e+00  9.9999249903943666e-01  1.0000040188745114e+00  1.0000012292318632e+00  1.0000000436661660e+00  9.9999673614909479e-01  1.0000024926571269e+00  1.0000030535004094e+00  9.9998629601918376e-01  1.0000161180436720e+00  9.9998689757761083e-01  1.0000082798500334e+00  9.9999838796689711e-01  1.0000039853346694e+00  1.0000403281405987e+00  1.0000082520849103e+00  9.9995661608196662e-01  1.0001569894608267e+00  9.9997049412643346e-01  9.9982369803718052e-01  1.0002115401629266e+00  1.0000008337208470e+00  9.9980291606566374e-01  1.0001689344327731e+00  1.0000488983247886e+00  9.9985129881495460e-01  1.0000122033374219e+00  1.0001112116554274e+00  9.9987331225147291e-01  1.0000424591040573e+00  1.0000697553776356e+00  9.9995395937952647e-01  1.0000132350357989e+00  1.0000769073161655e+00  9.9991950440101252e-01  9.9998630699487978e-01  1.0001042816294801e+00  9.9990637184528142e-01  9.9994573010332199e-01  1.0000037257353711e+00  9.9991322072333955e-01  9.9993910840586153e-01  1.0000666792055537e+00  9.9990902478197197e-01  1.0000157650043893e+00  1.0001276125841119e+00  1.0000741059536973e+00  1.0000799210908025e+00  1.0001045215040103e+00  9.9988899481583138e-01  9.9990023709107867e-01  9.9992964823063379e-01  9.9984932423609441e-01  9.9993737895186252e-01  1.0000472706291297e+00  1.0000007819844783e+00  1.0000886707931216e+00  1.0000967064922046e+00  9.9999321398856111e-01  1.0000528267797868e+00  1.0000549781001802e+00  9.9995326231273340e-01  1.0000045403499132e+00  1.0000060478228356e+00  9.9996299302224545e-01  1.0000202220277281e+00  9.9998789108203934e-01  9.9995695338278379e-01  1.0000434823235005e+00  9.9999847127876962e-01  9.9995392948936335e-01  1.0000314849773229e+00  1.0000103498183666e+00  9.9997347489594202e-01  1.0000104873114961e+00  1.0000011751965054e+00  9.9999822024091323e-01  1.0000123823053184e+00  9.9997129936661255e-01  1.0000184195158204e+00  1.0000191637144762e+00  9.9996343801155885e-01  1.0000031783640706e+00  1.0000438115140124e+00  9.9995547910307825e-01  9.9999687463083842e-01  1.0000405916249206e+00  9.9997433627912091e-01  9.9998320859316880e-01  1.0000329532148815e+00  9.9999192800414094e-01  9.9997687704152050e-01  1.0000269968243327e+00  9.9999166658422867e-01  9.9999551783001916e-01  9.9999982567152379e-01  1.0000108598697424e+00  9.9998771027157607e-01  1.0000071723609811e+00  9.9999529812572374e-01  1.0000072535376814e+00  9.9999073726022758e-01  1.0000047126417546e+00  9.9999897528938797e-01  9.9999967814378954e-01  9.9999651366114517e-01  1.0000036114337878e+00  1.0000041361099412e+00  9.9998727463416015e-01  1.0000175407763578e+00  9.9998629601918410e-01  1.0000034246703779e+00  9.9999633073294014e-01  9.9999767604666123e-01  9.9999323894657799e-01  9.9994434113176589e-01  9.9993397360291780e-01  1.0000695762446563e+00  9.9996118665919664e-01  9.9982976743536578e-01  1.0002115401629270e+00  1.0000112313614111e+00  9.9977318926329595e-01  1.0001808662851439e+00  1.0000584498697254e+00  9.9976788334797362e-01  1.0000869098216878e+00  1.0000915621078450e+00  9.9990467486707690e-01  9.9998623985157098e-01  1.0001096636130751e+00  9.9989336423636599e-01  9.9999620124192690e-01  1.0000524498151242e+00  9.9991288740304318e-01  9.9999010468317573e-01  1.0000918348391474e+00  9.9992021404696674e-01  9.9994756011557173e-01  1.0001203264852154e+00  9.9997427640268455e-01  1.0000359044284028e+00  1.0000997814034205e+00  9.9997791877866815e-01  9.9998573891752318e-01  1.0001137204730182e+00  9.9990492442857171e-01  9.9991125400412029e-01  9.9994491487415660e-01  9.9987439254665023e-01  9.9997672962427875e-01  1.0001536109624365e+00  1.0000614721031595e+00  1.0001341592898185e+00  1.0001549260583253e+00  9.9999632809016048e-01  9.9997901033068692e-01  9.9997371539493951e-01  9.9985941592549299e-01  9.9995017965528721e-01  9.9998540647857792e-01  9.9990247906974516e-01  9.9999509705903478e-01  1.0000299367873233e+00  9.9996617925668707e-01  1.0000242178802292e+00  1.0000098070888186e+00  9.9996872494663991e-01  1.0000488007697541e+00  9.9999908219786782e-01  9.9995160180130982e-01  1.0000437876826092e+00  1.0000114899519521e+00  9.9995862749847575e-01  1.0000205207343333e+00  1.0000096523918773e+00  9.9998401223893352e-01  1.0000144330378915e+00  9.9998058202109785e-01  1.0000114569123082e+00  1.0000186333013419e+00  9.9996566717141999e-01  1.0000023980080335e+00  1.0000464143266512e+00  9.9995130370802376e-01  9.9999600993407811e-01  1.0000484372720062e+00  9.9996844304712029e-01  9.9997819214247263e-01  1.0000447143939475e+00  9.9998616702879128e-01  9.9997143076805384e-01  1.0000345973210987e+00  9.9999260513546639e-01  9.9998568686054334e-01  1.0000082049866315e+00  1.0000095862687837e+00  9.9998400753716676e-01  1.0000077104697365e+00  9.9999911460937729e-01  1.0000025349660357e+00  9.9999317167923008e-01  1.0000064127920256e+00  9.9999835420806871e-01  1.0000022348884425e+00  9.9999600598205729e-01  1.0000060613499338e+00  1.0000015019308004e+00  9.9998858738903462e-01  1.0000156515713554e+00  9.9998727463416059e-01  1.0000030535004092e+00  1.0000005267340841e+00  1.0000015633698460e+00  9.9999846646742807e-01  1.0000035261092661e+00  1.0000460497118724e+00  1.0000906881503673e+00  1.0000143459005748e+00  9.9989907973959391e-01  1.0001874178851460e+00  1.0000008337208475e+00  9.9977318926329595e-01  1.0001718933054788e+00  1.0000920760927734e+00  9.9975600547076615e-01  1.0001207612790033e+00  1.0001355022717897e+00  9.9982036924247830e-01  1.0000095482143658e+00  1.0000637490349213e+00  9.9992597604058053e-01  9.9994905745989504e-01  1.0000931579189216e+00  9.9991030023889815e-01  9.9999540170446921e-01  1.0000773066683983e+00  9.9990669009234345e-01  9.9995308299501873e-01  1.0001043268367926e+00  9.9995227319590496e-01  9.9992635695946641e-01  1.0000588009131579e+00  9.9990566751302423e-01  9.9997588041234942e-01  1.0000748356493838e+00  9.9995266739214506e-01  9.9995983825726487e-01  1.0001419399998870e+00  1.0000302124912319e+00  1.0000987396329268e+00  1.0001129152546551e+00  9.9991969437316663e-01  9.9986774392646793e-01  9.9992667091694631e-01  9.9979397180098717e-01  9.9990072577115674e-01  1.0000130598416157e+00  9.9997887225237936e-01  1.0000689172423753e+00  1.0001024527922333e+00  9.9997164672996763e-01  1.0000334477789676e+00  1.0000339228184729e+00  9.9992079464042027e-01  9.9996953150241785e-01  9.9997865888547177e-01  9.9992431883618937e-01  1.0000011443085592e+00  9.9997093406644211e-01  9.9993219377226272e-01  1.0000334684472367e+00  9.9999849810483998e-01  9.9994136768342401e-01  1.0000270334500145e+00  1.0000138455262677e+00  9.9996617818884770e-01  1.0000182392496495e+00  9.9999207207760599e-01  1.0000001889573098e+00  1.0000166366914260e+00  9.9997421864652059e-01  9.9999819892173714e-01  1.0000458458903159e+00  9.9995164930295288e-01  9.9999537190546939e-01  1.0000522275243204e+00  9.9996527905204124e-01  9.9997384785009602e-01  1.0000548211060121e+00  9.9998104137429367e-01  9.9996584891448870e-01  1.0000433439429945e+00  9.9999255616977800e-01  9.9997641341733856e-01  1.0000168418281843e+00  1.0000107073830165e+00  9.9997699333011469e-01  1.0000126767326525e+00  1.0000013511225403e+00  9.9999847891477567e-01  9.9999419893273456e-01  1.0000090584672272e+00  9.9999372661476882e-01  1.0000036590415444e+00  9.9999338989841946e-01  1.0000056666487456e+00  9.9999945468468443e-01  9.9998924526277155e-01  1.0000162588805752e+00  9.9998858738903396e-01  1.0000041361099408e+00  1.0000024926571267e+00  9.9999984287668908e-01  9.9999595386104512e-01  1.0000013711803739e+00  9.9999869026466082e-01  9.9996972222329905e-01  9.9995112224986826e-01  9.9987093458460485e-01  1.0001137307324115e+00  9.9997463302339518e-01  9.9980291606566407e-01  1.0001808662851437e+00  1.0000920760927736e+00  9.9978441946057273e-01  1.0001047098452498e+00  1.0001551279620908e+00  9.9978090186660307e-01  1.0000052428928701e+00  1.0001315876709511e+00  9.9990886292610193e-01  1.0000028118198285e+00  1.0000777920453539e+00  9.9997481448094105e-01  9.9997445100867677e-01  1.0001050761315460e+00  9.9993370971639972e-01  9.9999320417926