<?xml version="1.0"?>
<VTKFile type="UnstructuredGrid"  version="0.1"  >
<UnstructuredGrid>
<Piece  NumberOfPoints="10201" NumberOfCells="20000">
<Points>
<DataArray  type="Float64"  NumberOfComponents="3"  format="ascii">-5 -5 0  -4.9 -5 0  -4.8 -5 0  -4.7 -5 0  -4.6 -5 0  -4.5 -5 0  -4.4 -5 0  -4.3 -5 0  -4.2 -5 0  -4.1 -5 0  -4 -5 0  -3.9 -5 0  -3.8 -5 0  -3.7 -5 0  -3.6 -5 0  -3.5 -5 0  -3.4 -5 0  -3.3 -5 0  -3.2 -5 0  -3.1 -5 0  -3 -5 0  -2.9 -5 0  -2.8 -5 0  -2.7 -5 0  -2.6 -5 0  -2.5 -5 0  -2.4 -5 0  -2.3 -5 0  -2.2 -5 0  -2.1 -5 0  -2 -5 0  -1.9 -5 0  -1.8 -5 0  -1.7 -5 0  -1.6 -5 0  -1.5 -5 0  -1.4 -5 0  -1.3 -5 0  -1.2 -5 0  -1.1 -5 0  -1 -5 0  -0.9000000000000004 -5 0  -0.7999999999999998 -5 0  -0.7000000000000002 -5 0  -0.5999999999999996 -5 0  -0.5 -5 0  -0.4000000000000004 -5 0  -0.2999999999999998 -5 0  -0.2000000000000002 -5 0  -0.09999999999999964 -5 0  0 -5 0  0.09999999999999964 -5 0  0.2000000000000002 -5 0  0.2999999999999998 -5 0  0.4000000000000004 -5 0  0.5 -5 0  0.5999999999999996 -5 0  0.7000000000000002 -5 0  0.7999999999999998 -5 0  0.9000000000000004 -5 0  1 -5 0  1.1 -5 0  1.2 -5 0  1.3 -5 0  1.4 -5 0  1.5 -5 0  1.6 -5 0  1.7 -5 0  1.8 -5 0  1.9 -5 0  2 -5 0  2.1 -5 0  2.2 -5 0  2.3 -5 0  2.4 -5 0  2.5 -5 0  2.6 -5 0  2.7 -5 0  2.8 -5 0  2.9 -5 0  3 -5 0  3.1 -5 0  3.199999999999999 -5 0  3.300000000000001 -5 0  3.4 -5 0  3.5 -5 0  3.6 -5 0  3.699999999999999 -5 0  3.800000000000001 -5 0  3.9 -5 0  4 -5 0  4.1 -5 0  4.199999999999999 -5 0  4.300000000000001 -5 0  4.4 -5 0  4.5 -5 0  4.6 -5 0  4.699999999999999 -5 0  4.800000000000001 -5 0  4.9 -5 0  5 -5 0  -5 -4.9 0  -4.9 -4.9 0  -4.8 -4.9 0  -4.7 -4.9 0  -4.6 -4.9 0  -4.5 -4.9 0  -4.4 -4.9 0  -4.3 -4.9 0  -4.2 -4.9 0  -4.1 -4.9 0  -4 -4.9 0  -3.9 -4.9 0  -3.8 -4.9 0  -3.7 -4.9 0  -3.6 -4.9 0  -3.5 -4.9 0  -3.4 -4.9 0  -3.3 -4.9 0  -3.2 -4.9 0  -3.1 -4.9 0  -3 -4.9 0  -2.9 -4.9 0  -2.8 -4.9 0  -2.7 -4.9 0  -2.6 -4.9 0  -2.5 -4.9 0  -2.4 -4.9 0  -2.3 -4.9 0  -2.2 -4.9 0  -2.1 -4.9 0  -2 -4.9 0  -1.9 -4.9 0  -1.8 -4.9 0  -1.7 -4.9 0  -1.6 -4.9 0  -1.5 -4.9 0  -1.4 -4.9 0  -1.3 -4.9 0  -1.2 -4.9 0  -1.1 -4.9 0  -1 -4.9 0  -0.9000000000000004 -4.9 0  -0.7999999999999998 -4.9 0  -0.7000000000000002 -4.9 0  -0.5999999999999996 -4.9 0  -0.5 -4.9 0  -0.4000000000000004 -4.9 0  -0.2999999999999998 -4.9 0  -0.2000000000000002 -4.9 0  -0.09999999999999964 -4.9 0  0 -4.9 0  0.09999999999999964 -4.9 0  0.2000000000000002 -4.9 0  0.2999999999999998 -4.9 0  0.4000000000000004 -4.9 0  0.5 -4.9 0  0.5999999999999996 -4.9 0  0.7000000000000002 -4.9 0  0.7999999999999998 -4.9 0  0.9000000000000004 -4.9 0  1 -4.9 0  1.1 -4.9 0  1.2 -4.9 0  1.3 -4.9 0  1.4 -4.9 0  1.5 -4.9 0  1.6 -4.9 0  1.7 -4.9 0  1.8 -4.9 0  1.9 -4.9 0  2 -4.9 0  2.1 -4.9 0  2.2 -4.9 0  2.3 -4.9 0  2.4 -4.9 0  2.5 -4.9 0  2.6 -4.9 0  2.7 -4.9 0  2.8 -4.9 0  2.9 -4.9 0  3 -4.9 0  3.1 -4.9 0  3.199999999999999 -4.9 0  3.300000000000001 -4.9 0  3.4 -4.9 0  3.5 -4.9 0  3.6 -4.9 0  3.699999999999999 -4.9 0  3.800000000000001 -4.9 0  3.9 -4.9 0  4 -4.9 0  4.1 -4.9 0  4.199999999999999 -4.9 0  4.300000000000001 -4.9 0  4.4 -4.9 0  4.5 -4.9 0  4.6 -4.9 0  4.699999999999999 -4.9 0  4.800000000000001 -4.9 0  4.9 -4.9 0  5 -4.9 0  -5 -4.8 0  -4.9 -4.8 0  -4.8 -4.8 0  -4.7 -4.8 0  -4.6 -4.8 0  -4.5 -4.8 0  -4.4 -4.8 0  -4.3 -4.8 0  -4.2 -4.8 0  -4.1 -4.8 0  -4 -4.8 0  -3.9 -4.8 0  -3.8 -4.8 0  -3.7 -4.8 0  -3.6 -4.8 0  -3.5 -4.8 0  -3.4 -4.8 0  -3.3 -4.8 0  -3.2 -4.8 0  -3.1 -4.8 0  -3 -4.8 0  -2.9 -4.8 0  -2.8 -4.8 0  -2.7 -4.8 0  -2.6 -4.8 0  -2.5 -4.8 0  -2.4 -4.8 0  -2.3 -4.8 0  -2.2 -4.8 0  -2.1 -4.8 0  -2 -4.8 0  -1.9 -4.8 0  -1.8 -4.8 0  -1.7 -4.8 0  -1.6 -4.8 0  -1.5 -4.8 0  -1.4 -4.8 0  -1.3 -4.8 0  -1.2 -4.8 0  -1.1 -4.8 0  -1 -4.8 0  -0.9000000000000004 -4.8 0  -0.7999999999999998 -4.8 0  -0.7000000000000002 -4.8 0  -0.5999999999999996 -4.8 0  -0.5 -4.8 0  -0.4000000000000004 -4.8 0  -0.2999999999999998 -4.8 0  -0.2000000000000002 -4.8 0  -0.09999999999999964 -4.8 0  0 -4.8 0  0.09999999999999964 -4.8 0  0.2000000000000002 -4.8 0  0.2999999999999998 -4.8 0  0.4000000000000004 -4.8 0  0.5 -4.8 0  0.5999999999999996 -4.8 0  0.7000000000000002 -4.8 0  0.7999999999999998 -4.8 0  0.9000000000000004 -4.8 0  1 -4.8 0  1.1 -4.8 0  1.2 -4.8 0  1.3 -4.8 0  1.4 -4.8 0  1.5 -4.8 0  1.6 -4.8 0  1.7 -4.8 0  1.8 -4.8 0  1.9 -4.8 0  2 -4.8 0  2.1 -4.8 0  2.2 -4.8 0  2.3 -4.8 0  2.4 -4.8 0  2.5 -4.8 0  2.6 -4.8 0  2.7 -4.8 0  2.8 -4.8 0  2.9 -4.8 0  3 -4.8 0  3.1 -4.8 0  3.199999999999999 -4.8 0  3.300000000000001 -4.8 0  3.4 -4.8 0  3.5 -4.8 0  3.6 -4.8 0  3.699999999999999 -4.8 0  3.800000000000001 -4.8 0  3.9 -4.8 0  4 -4.8 0  4.1 -4.8 0  4.199999999999999 -4.8 0  4.300000000000001 -4.8 0  4.4 -4.8 0  4.5 -4.8 0  4.6 -4.8 0  4.699999999999999 -4.8 0  4.800000000000001 -4.8 0  4.9 -4.8 0  5 -4.8 0  -5 -4.7 0  -4.9 -4.7 0  -4.8 -4.7 0  -4.7 -4.7 0  -4.6 -4.7 0  -4.5 -4.7 0  -4.4 -4.7 0  -4.3 -4.7 0  -4.2 -4.7 0  -4.1 -4.7 0  -4 -4.7 0  -3.9 -4.7 0  -3.8 -4.7 0  -3.7 -4.7 0  -3.6 -4.7 0  -3.5 -4.7 0  -3.4 -4.7 0  -3.3 -4.7 0  -3.2 -4.7 0  -3.1 -4.7 0  -3 -4.7 0  -2.9 -4.7 0  -2.8 -4.7 0  -2.7 -4.7 0  -2.6 -4.7 0  -2.5 -4.7 0  -2.4 -4.7 0  -2.3 -4.7 0  -2.2 -4.7 0  -2.1 -4.7 0  -2 -4.7 0  -1.9 -4.7 0  -1.8 -4.7 0  -1.7 -4.7 0  -1.6 -4.7 0  -1.5 -4.7 0  -1.4 -4.7 0  -1.3 -4.7 0  -1.2 -4.7 0  -1.1 -4.7 0  -1 -4.7 0  -0.9000000000000004 -4.7 0  -0.7999999999999998 -4.7 0  -0.7000000000000002 -4.7 0  -0.5999999999999996 -4.7 0  -0.5 -4.7 0  -0.4000000000000004 -4.7 0  -0.2999999999999998 -4.7 0  -0.2000000000000002 -4.7 0  -0.09999999999999964 -4.7 0  0 -4.7 0  0.09999999999999964 -4.7 0  0.2000000000000002 -4.7 0  0.2999999999999998 -4.7 0  0.4000000000000004 -4.7 0  0.5 -4.7 0  0.5999999999999996 -4.7 0  0.7000000000000002 -4.7 0  0.7999999999999998 -4.7 0  0.9000000000000004 -4.7 0  1 -4.7 0  1.1 -4.7 0  1.2 -4.7 0  1.3 -4.7 0  1.4 -4.7 0  1.5 -4.7 0  1.6 -4.7 0  1.7 -4.7 0  1.8 -4.7 0  1.9 -4.7 0  2 -4.7 0  2.1 -4.7 0  2.2 -4.7 0  2.3 -4.7 0  2.4 -4.7 0  2.5 -4.7 0  2.6 -4.7 0  2.7 -4.7 0  2.8 -4.7 0  2.9 -4.7 0  3 -4.7 0  3.1 -4.7 0  3.199999999999999 -4.7 0  3.300000000000001 -4.7 0  3.4 -4.7 0  3.5 -4.7 0  3.6 -4.7 0  3.699999999999999 -4.7 0  3.800000000000001 -4.7 0  3.9 -4.7 0  4 -4.7 0  4.1 -4.7 0  4.199999999999999 -4.7 0  4.300000000000001 -4.7 0  4.4 -4.7 0  4.5 -4.7 0  4.6 -4.7 0  4.699999999999999 -4.7 0  4.800000000000001 -4.7 0  4.9 -4.7 0  5 -4.7 0  -5 -4.6 0  -4.9 -4.6 0  -4.8 -4.6 0  -4.7 -4.6 0  -4.6 -4.6 0  -4.5 -4.6 0  -4.4 -4.6 0  -4.3 -4.6 0  -4.2 -4.6 0  -4.1 -4.6 0  -4 -4.6 0  -3.9 -4.6 0  -3.8 -4.6 0  -3.7 -4.6 0  -3.6 -4.6 0  -3.5 -4.6 0  -3.4 -4.6 0  -3.3 -4.6 0  -3.2 -4.6 0  -3.1 -4.6 0  -3 -4.6 0  -2.9 -4.6 0  -2.8 -4.6 0  -2.7 -4.6 0  -2.6 -4.6 0  -2.5 -4.6 0  -2.4 -4.6 0  -2.3 -4.6 0  -2.2 -4.6 0  -2.1 -4.6 0  -2 -4.6 0  -1.9 -4.6 0  -1.8 -4.6 0  -1.7 -4.6 0  -1.6 -4.6 0  -1.5 -4.6 0  -1.4 -4.6 0  -1.3 -4.6 0  -1.2 -4.6 0  -1.1 -4.6 0  -1 -4.6 0  -0.9000000000000004 -4.6 0  -0.7999999999999998 -4.6 0  -0.7000000000000002 -4.6 0  -0.5999999999999996 -4.6 0  -0.5 -4.6 0  -0.4000000000000004 -4.6 0  -0.2999999999999998 -4.6 0  -0.2000000000000002 -4.6 0  -0.09999999999999964 -4.6 0  0 -4.6 0  0.09999999999999964 -4.6 0  0.2000000000000002 -4.6 0  0.2999999999999998 -4.6 0  0.4000000000000004 -4.6 0  0.5 -4.6 0  0.5999999999999996 -4.6 0  0.7000000000000002 -4.6 0  0.7999999999999998 -4.6 0  0.9000000000000004 -4.6 0  1 -4.6 0  1.1 -4.6 0  1.2 -4.6 0  1.3 -4.6 0  1.4 -4.6 0  1.5 -4.6 0  1.6 -4.6 0  1.7 -4.6 0  1.8 -4.6 0  1.9 -4.6 0  2 -4.6 0  2.1 -4.6 0  2.2 -4.6 0  2.3 -4.6 0  2.4 -4.6 0  2.5 -4.6 0  2.6 -4.6 0  2.7 -4.6 0  2.8 -4.6 0  2.9 -4.6 0  3 -4.6 0  3.1 -4.6 0  3.199999999999999 -4.6 0  3.300000000000001 -4.6 0  3.4 -4.6 0  3.5 -4.6 0  3.6 -4.6 0  3.699999999999999 -4.6 0  3.800000000000001 -4.6 0  3.9 -4.6 0  4 -4.6 0  4.1 -4.6 0  4.199999999999999 -4.6 0  4.300000000000001 -4.6 0  4.4 -4.6 0  4.5 -4.6 0  4.6 -4.6 0  4.699999999999999 -4.6 0  4.800000000000001 -4.6 0  4.9 -4.6 0  5 -4.6 0  -5 -4.5 0  -4.9 -4.5 0  -4.8 -4.5 0  -4.7 -4.5 0  -4.6 -4.5 0  -4.5 -4.5 0  -4.4 -4.5 0  -4.3 -4.5 0  -4.2 -4.5 0  -4.1 -4.5 0  -4 -4.5 0  -3.9 -4.5 0  -3.8 -4.5 0  -3.7 -4.5 0  -3.6 -4.5 0  -3.5 -4.5 0  -3.4 -4.5 0  -3.3 -4.5 0  -3.2 -4.5 0  -3.1 -4.5 0  -3 -4.5 0  -2.9 -4.5 0  -2.8 -4.5 0  -2.7 -4.5 0  -2.6 -4.5 0  -2.5 -4.5 0  -2.4 -4.5 0  -2.3 -4.5 0  -2.2 -4.5 0  -2.1 -4.5 0  -2 -4.5 0  -1.9 -4.5 0  -1.8 -4.5 0  -1.7 -4.5 0  -1.6 -4.5 0  -1.5 -4.5 0  -1.4 -4.5 0  -1.3 -4.5 0  -1.2 -4.5 0  -1.1 -4.5 0  -1 -4.5 0  -0.9000000000000004 -4.5 0  -0.7999999999999998 -4.5 0  -0.7000000000000002 -4.5 0  -0.5999999999999996 -4.5 0  -0.5 -4.5 0  -0.4000000000000004 -4.5 0  -0.2999999999999998 -4.5 0  -0.2000000000000002 -4.5 0  -0.09999999999999964 -4.5 0  0 -4.5 0  0.09999999999999964 -4.5 0  0.2000000000000002 -4.5 0  0.2999999999999998 -4.5 0  0.4000000000000004 -4.5 0  0.5 -4.5 0  0.5999999999999996 -4.5 0  0.7000000000000002 -4.5 0  0.7999999999999998 -4.5 0  0.9000000000000004 -4.5 0  1 -4.5 0  1.1 -4.5 0  1.2 -4.5 0  1.3 -4.5 0  1.4 -4.5 0  1.5 -4.5 0  1.6 -4.5 0  1.7 -4.5 0  1.8 -4.5 0  1.9 -4.5 0  2 -4.5 0  2.1 -4.5 0  2.2 -4.5 0  2.3 -4.5 0  2.4 -4.5 0  2.5 -4.5 0  2.6 -4.5 0  2.7 -4.5 0  2.8 -4.5 0  2.9 -4.5 0  3 -4.5 0  3.1 -4.5 0  3.199999999999999 -4.5 0  3.300000000000001 -4.5 0  3.4 -4.5 0  3.5 -4.5 0  3.6 -4.5 0  3.699999999999999 -4.5 0  3.800000000000001 -4.5 0  3.9 -4.5 0  4 -4.5 0  4.1 -4.5 0  4.199999999999999 -4.5 0  4.300000000000001 -4.5 0  4.4 -4.5 0  4.5 -4.5 0  4.6 -4.5 0  4.699999999999999 -4.5 0  4.800000000000001 -4.5 0  4.9 -4.5 0  5 -4.5 0  -5 -4.4 0  -4.9 -4.4 0  -4.8 -4.4 0  -4.7 -4.4 0  -4.6 -4.4 0  -4.5 -4.4 0  -4.4 -4.4 0  -4.3 -4.4 0  -4.2 -4.4 0  -4.1 -4.4 0  -4 -4.4 0  -3.9 -4.4 0  -3.8 -4.4 0  -3.7 -4.4 0  -3.6 -4.4 0  -3.5 -4.4 0  -3.4 -4.4 0  -3.3 -4.4 0  -3.2 -4.4 0  -3.1 -4.4 0  -3 -4.4 0  -2.9 -4.4 0  -2.8 -4.4 0  -2.7 -4.4 0  -2.6 -4.4 0  -2.5 -4.4 0  -2.4 -4.4 0  -2.3 -4.4 0  -2.2 -4.4 0  -2.1 -4.4 0  -2 -4.4 0  -1.9 -4.4 0  -1.8 -4.
[...]
<PointData  Scalars="f_27-1"> 
<DataArray  type="Float64"  Name="f_27-1"  format="ascii">1.0003003093790834e+00  9.9996929907981280e-01  9.9996982829643621e-01  1.0000179777028195e+00  9.9995060520785739e-01  1.0000270711075125e+00  1.0000027753916940e+00  9.9999394327187230e-01  1.0000209537458100e+00  9.9998908416058896e-01  9.9999766680147106e-01  1.0000060334922674e+00  9.9997953533933470e-01  1.0000269195272049e+00  9.9998097354771398e-01  9.9999244385146235e-01  9.9999109432610889e-01  9.9994440391196748e-01  9.9996183871368338e-01  9.9993645081814497e-01  9.9999962385542984e-01  1.0002464993021953e+00  1.0007600058759145e+00  1.0018550536812096e+00  1.0037426152635798e+00  1.0068019178259493e+00  1.0112551297744434e+00  1.0174142914711675e+00  1.0250710838082135e+00  1.0343055531722538e+00  1.0443848220341831e+00  1.0550157148222699e+00  1.0653398673825019e+00  1.0749603735305504e+00  1.0832710805359915e+00  1.0901692292932834e+00  1.0954125650178617e+00  1.0991721558326131e+00  1.1015376466812739e+00  1.1027458178714686e+00  1.1030525788698189e+00  1.1026578107995511e+00  1.1018335587765897e+00  1.1006889424344168e+00  1.0994792422933575e+00  1.0982117387772208e+00  1.0971056383837383e+00  1.0961159900288275e+00  1.0954001883713336e+00  1.0948912340745209e+00  1.0947094862996958e+00  1.0947591259126817e+00  1.0951287710014608e+00  1.0957161870051635e+00  1.0965556604373445e+00  1.0975578992711930e+00  1.0986948506666605e+00  1.0998480245541977e+00  1.1009573149288439e+00  1.1018654580039076e+00  1.1024296308548074e+00  1.1024539198489669e+00  1.1017185022816882e+00  1.0999499080785444e+00  1.0968763424047394e+00  1.0922079838776493e+00  1.0857431136257409e+00  1.0774344109378007e+00  1.0674855936252741e+00  1.0563980123269168e+00  1.0449315791424145e+00  1.0339654239852096e+00  1.0242852234315358e+00  1.0163821037163439e+00  1.0104144150558603e+00  1.0062433444481951e+00  1.0035234141303611e+00  1.0018653227217578e+00  1.0009317923132379e+00  1.0004362365372532e+00  1.0001843272563833e+00  1.0000774098590079e+00  1.0000283260873013e+00  1.0000071096691654e+00  1.0000050449180391e+00  1.0000019186943720e+00  9.9999883990567029e-01  1.0000026535466378e+00  9.9999848745096642e-01  9.9999901485187725e-01  1.0000016797915197e+00  9.9999914500077491e-01  9.9999990440922637e-01  9.9999926424172392e-01  1.0000005737324700e+00  9.9999941051332608e-01  9.9999976676192637e-01  1.0000006798774401e+00  1.0000000911980174e+00  9.9999539201798215e-01  1.0000190180196815e+00  9.9996929907981291e-01  9.9995897524925503e-01  9.9997170564304061e-01  1.0000349104014528e+00  9.9994185048530893e-01  1.0000301402182525e+00  1.0000087704521761e+00  9.9999406711149608e-01  1.0000142547404782e+00  1.0000141438506727e+00  9.9997386644801078e-01  1.0000224860164213e+00  9.9999137127196369e-01  1.0000090486638840e+00  9.9999525890966834e-01  9.9997795465296779e-01  9.9999493231755787e-01  9.9995311708175860e-01  9.9998237764083819e-01  1.0000424583478646e+00  1.0002104190800813e+00  1.0007022027271053e+00  1.0015534646777335e+00  1.0031030450643355e+00  1.0055890574264554e+00  1.0092256732910851e+00  1.0141712020050622e+00  1.0205905401315511e+00  1.0280670278436741e+00  1.0367120226877635e+00  1.0457684061396577e+00  1.0550212365004843e+00  1.0638990078978283e+00  1.0720810615733065e+00  1.0791582755513773e+00  1.0851654801234689e+00  1.0897873156489974e+00  1.0932442844745487e+00  1.0955688502760295e+00  1.0968749888959002e+00  1.0974312325244560e+00  1.0973696377490727e+00  1.0968783007538656e+00  1.0961061757954143e+00  1.0952405335998974e+00  1.0942680978765515e+00  1.0934365276904796e+00  1.0926579147763418e+00  1.0920933647569175e+00  1.0917062040558849e+00  1.0915816201792479e+00  1.0916391451335097e+00  1.0919828045128370e+00  1.0924877742788037e+00  1.0932101598725501e+00  1.0940643554726850e+00  1.0950040592642500e+00  1.0959308187338135e+00  1.0967933309024391e+00  1.0973945645717091e+00  1.0976111409992149e+00  1.0972537950674348e+00  1.0960976088433794e+00  1.0939419531520942e+00  1.0906219174301448e+00  1.0859895705939770e+00  1.0800332578709109e+00  1.0728394625088922e+00  1.0645811405695287e+00  1.0555586890789788e+00  1.0461506663796292e+00  1.0368115114860053e+00  1.0280338000036411e+00  1.0202603299064388e+00  1.0138448348958082e+00  1.0089285910163748e+00  1.0054082504345945e+00  1.0030756537718217e+00  1.0016584507196382e+00  1.0008288905019136e+00  1.0003799170790300e+00  1.0001795543259182e+00  1.0000672779602680e+00  1.0000191305226505e+00  1.0000180152034139e+00  1.0000003289944346e+00  9.9999731511889611e-01  1.0000076079676472e+00  9.9999563811890346e-01  9.9999739165695967e-01  1.0000069525961113e+00  9.9999475073279454e-01  9.9999958579506543e-01  1.0000038203338075e+00  9.9999650690732644e-01  9.9999919014487504e-01  1.0000018526681380e+00  1.0000010669795414e+00  9.9999514984112592e-01  1.0000069126089968e+00  9.9999539201798227e-01  9.9996982829643710e-01  9.9997170564304050e-01  1.0000777948267059e+00  9.9996552421346097e-01  9.9994691171521910e-01  1.0000886214536746e+00  9.9993181130399000e-01  1.0000158188876966e+00  1.0000374345672103e+00  9.9993179559178968e-01  1.0000317350658330e+00  1.0000032627494955e+00  9.9995229069023339e-01  1.0000297559103295e+00  9.9993155918472498e-01  1.0000046336007977e+00  9.9995507043219967e-01  9.9997762254572409e-01  1.0001808702512971e+00  1.0004430324627105e+00  1.0012514503713339e+00  1.0025872189131009e+00  1.0047525888931952e+00  1.0081913601409551e+00  1.0127336043170434e+00  1.0185360413539892e+00  1.0253599942219389e+00  1.0325680667502066e+00  1.0397970080911454e+00  1.0465993315232638e+00  1.0522056922084397e+00  1.0570216395743186e+00  1.0605315825717769e+00  1.0632015678669089e+00  1.0652064214713011e+00  1.0667271897107238e+00  1.0678718730522365e+00  1.0690094864697057e+00  1.0698575751392334e+00  1.0707224646231450e+00  1.0715170276017332e+00  1.0721307357718581e+00  1.0727069603301609e+00  1.0731505002679436e+00  1.0734733408926787e+00  1.0737183227009017e+00  1.0739454141303968e+00  1.0740416246354219e+00  1.0742299226414331e+00  1.0743315847995991e+00  1.0744724580253826e+00  1.0745921435684902e+00  1.0747342767388357e+00  1.0747942331707507e+00  1.0748714159033570e+00  1.0747919386359279e+00  1.0746053497196206e+00  1.0742491311859723e+00  1.0736527746737110e+00  1.0727742912508893e+00  1.0716728244606912e+00  1.0702794908894615e+00  1.0686833691909334e+00  1.0669762438396406e+00  1.0652169856885074e+00  1.0634924417760430e+00  1.0618506556107448e+00  1.0601558609616655e+00  1.0582205052843840e+00  1.0557181866088770e+00  1.0522464300375565e+00  1.0475048486992666e+00  1.0414069629918894e+00  1.0342484633788676e+00  1.0266648922250770e+00  1.0193879082769615e+00  1.0131281661090090e+00  1.0083017001604615e+00  1.0048687936332270e+00  1.0026452692820473e+00  1.0013702706553591e+00  1.0006450230392585e+00  1.0002657223524132e+00  1.0001304768488279e+00  1.0000415493449348e+00  1.0000031136862626e+00  1.0000185796402297e+00  9.9999757046277071e-01  9.9999103898511721e-01  1.0000144909766704e+00  9.9999211093028240e-01  9.9999525577660253e-01  1.0000116160761010e+00  9.9999163039563621e-01  9.9999819588771544e-01  1.0000068069307932e+00  9.9999809020775632e-01  9.9999487233434092e-01  1.0000057793871000e+00  9.9999514984112525e-01  1.0000000911980167e+00  1.0000179777028184e+00  1.0000349104014528e+00  9.9996552421346052e-01  9.9991470136018934e-01  1.0000797685941543e+00  9.9999314556157093e-01  9.9993518647675572e-01  1.0001328088126795e+00  9.9990222852320054e-01  1.0000510069113144e+00  1.0000401852533543e+00  9.9993041446702180e-01  1.0000514199344277e+00  9.9996701740185467e-01  9.9997993658521345e-01  1.0000115588880614e+00  9.9999831966129538e-01  1.0003539129366699e+00  1.0007940571504690e+00  1.0019316929940716e+00  1.0039093348213950e+00  1.0068840402789943e+00  1.0114317135925313e+00  1.0171703329017996e+00  1.0238791317502201e+00  1.0312780173378113e+00  1.0381006093574683e+00  1.0440605189795424e+00  1.0485108974246631e+00  1.0510350822208461e+00  1.0520802505228484e+00  1.0519416734545768e+00  1.0507800568603496e+00  1.0496620283816980e+00  1.0483529349268570e+00  1.0474268021176214e+00  1.0470131428929088e+00  1.0469786407495099e+00  1.0473172715730972e+00  1.0480984354044536e+00  1.0488746849457975e+00  1.0498342345259228e+00  1.0508159444614591e+00  1.0516347061967442e+00  1.0524551204763601e+00  1.0531165984949453e+00  1.0536325717452182e+00  1.0540364330229501e+00  1.0543465549630469e+00  1.0544532917833849e+00  1.0545715435634453e+00  1.0545217927550332e+00  1.0544176610267360e+00  1.0542159911123399e+00  1.0539351947565130e+00  1.0535082149098440e+00  1.0530669494496072e+00  1.0524545905207048e+00  1.0517797801183097e+00  1.0510861401560108e+00  1.0503567275725343e+00  1.0496333385886905e+00  1.0490521043120369e+00  1.0485837662762802e+00  1.0483154745095404e+00  1.0483180914441648e+00  1.0485441069183681e+00  1.0489930772331166e+00  1.0496033619967899e+00  1.0501487175273831e+00  1.0503468337712876e+00  1.0497711435335590e+00  1.0479254789872847e+00  1.0444011230647685e+00  1.0390179831995008e+00  1.0321534524837555e+00  1.0246641004576911e+00  1.0174468373961048e+00  1.0113609596227735e+00  1.0068723744157768e+00  1.0038136092111263e+00  1.0019369205108819e+00  1.0009530129650515e+00  1.0004128482348411e+00  1.0001469451770764e+00  1.0000811746929872e+00  1.0000197988190389e+00  9.9999076563526978e-01  1.0000215277087492e+00  9.9999249433687409e-01  9.9999014102652373e-01  1.0000180109477192e+00  9.9999030179777371e-01  9.9999376464076772e-01  1.0000139566883219e+00  9.9999287952486937e-01  9.9999304502240827e-01  1.0000092707330379e+00  9.9999487233434081e-01  1.0000010669795409e+00  1.0000006798774395e+00  9.9995060520785783e-01  9.9994185048530893e-01  9.9994691171521988e-01  1.0000797685941547e+00  1.0000094147231480e+00  9.9992781139150444e-01  1.0000883193288983e+00  9.9996367040461709e-01  9.9995185290638489e-01  1.0000842594633450e+00  9.9987654413364635e-01  1.0000408522255848e+00  9.9996319214693707e-01  9.9994152283364235e-01  9.9999733967840476e-01  1.0000580231049523e+00  1.0004793606350477e+00  1.0012026917278603e+00  1.0026930531348550e+00  1.0054069181896124e+00  1.0093210032994266e+00  1.0150237286342703e+00  1.0219804030124857e+00  1.0295795374009986e+00  1.0373604279128843e+00  1.0438490881450428e+00  1.0485535729773590e+00  1.0513231914804966e+00  1.0516389726770476e+00  1.0505636409455403e+00  1.0482873691631607e+00  1.0452704298944888e+00  1.0422014559264834e+00  1.0392382116440824e+00  1.0362863416317658e+00  1.0340385748516006e+00  1.0318315475500377e+00  1.0300731120147795e+00  1.0286753027429925e+00  1.0274730601014428e+00  1.0265619953805853e+00  1.0260185063509459e+00  1.0255202014010727e+00  1.0252902955467409e+00  1.0251987315212505e+00  1.0250854153914122e+00  1.0251435813690510e+00  1.0251621681254326e+00  1.0251946998038401e+00  1.0252240411318656e+00  1.0252575577667316e+00  1.0251524442209574e+00  1.0251055366531545e+00  1.0249284833813899e+00  1.0247583177006638e+00  1.0245848865201395e+00  1.0244327890730240e+00  1.0243026518003802e+00  1.0243924094816359e+00  1.0245866720636061e+00  1.0250235785109092e+00  1.0258120409408915e+00  1.0269499044371635e+00  1.0284639855526292e+00  1.0304633470634079e+00  1.0328301729754976e+00  1.0355559133482357e+00  1.0385696094204748e+00  1.0416737983476614e+00  1.0447086288676408e+00  1.0474800388021390e+00  1.0496986649189599e+00  1.0510388487596491e+00  1.0510219982678770e+00  1.0491790641633041e+00  1.0451765444946419e+00  1.0389244124631682e+00  1.0310918911180134e+00  1.0229016558767077e+00  1.0153932339459446e+00  1.0094383813328665e+00  1.0053649770591149e+00  1.0027693051524393e+00  1.0012929076626966e+00  1.0006000706365639e+00  1.0002345259990792e+00  1.0000627794925618e+00  1.0000520865540596e+00  1.0000017170495026e+00  9.9998772583299678e-01  1.0000224063541820e+00  9.9999044327154851e-01  9.9998901118701811e-01  1.0000193856169530e+00  9.9999050750465412e-01  9.9999038556590836e-01  1.0000161939792040e+00  9.9999304502240882e-01  9.9999809020775610e-01  1.0000018526681373e+00  9.9999976676192615e-01  1.0000270711075121e+00  1.0000301402182521e+00  1.0000886214536744e+00  9.9999314556157037e-01  9.9992781139150466e-01  1.0000911310110872e+00  9.9997319558286846e-01  9.9999675288115708e-01  1.0000409059245610e+00  9.9998197596049099e-01  9.9999788622378860e-01  1.0000264909208754e+00  9.9993839442101617e-01  1.0000444893975295e+00  1.0001623577369863e+00  1.0006984851124465e+00  1.0016512310469887e+00  1.0036421818932482e+00  1.0070500575059571e+00  1.0119977316689717e+00  1.0187322199220412e+00  1.0267189116855959e+00  1.0348109572247293e+00  1.0424098399671335e+00  1.0479060973941223e+00  1.0509091129682895e+00  1.0516307892159940e+00  1.0499698389083105e+00  1.0469876591398233e+00  1.0433435315195099e+00  1.0390401766204740e+00  1.0350885945613617e+00  1.0312087976342845e+00  1.0275483089425534e+00  1.0243678457407233e+00  1.0214667204567889e+00  1.0187228977138894e+00  1.0166444643172268e+00  1.0146138730758363e+00  1.0130846809800340e+00  1.0118827173156681e+00  1.0108569622276724e+00  1.0100984370195134e+00  1.0096116417806835e+00  1.0091626022803986e+00  1.0089463426747938e+00  1.0088282770445158e+00  1.0086981849984407e+00  1.0087248792942765e+00  1.0087016570088216e+00  1.0087174646648160e+00  1.0087628019867998e+00  1.0088876140067307e+00  1.0089922275352132e+00  1.0092808967817499e+00  1.0095721348412134e+00  1.0100261506216726e+00  1.0106456303101343e+00  1.0114245126881056e+00  1.0123401443399500e+00  1.0135790276197716e+00  1.0149945268258538e+00  1.0166363733285018e+00  1.0185740943292967e+00  1.0207351126234683e+00  1.0231183788962026e+00  1.0257898198318807e+00  1.0286562512583115e+00  1.0317394348437885e+00  1.0350366916727216e+00  1.0384392176673569e+00  1.0418389735642242e+00  1.0450256228597701e+00  1.0477084994537444e+00  1.0494898289294110e+00  1.0496802025382637e+00  1.0476832163760312e+00  1.0431681176062826e+00  1.0361534049817009e+00  1.0276832298660210e+00  1.0193370487097719e+00  1.0121939035963010e+00  1.0069530648177725e+00  1.0036754186701033e+00  1.0017464269742973e+00  1.0007333394177660e+00  1.0003304387046823e+00  1.0001065455420897e+00  1.0000174675818196e+00  1.0000350248267509e+00  9.9999386025956161e-01  9.9998606683465074e-01  1.0000236987504032e+00  9.9998955908497400e-01  9.9998825212872822e-01  1.0000209933056601e+00  9.9999038556590780e-01  9.9999287952486893e-01  1.0000068069307928e+00  9.9999919014487471e-01  9.9999941051332564e-01  1.0000027753916947e+00  1.0000087704521765e+00  9.9993181130399034e-01  9.9993518647675594e-01  1.0000883193288990e+00  9.9997319558286857e-01  9.9997616713065363e-01  1.0000316677461034e+00  9.9993549071141741e-01  1.0000281797972139e+00  9.9990621537410174e-01  9.9999059796885137e-01  9.9998613126357871e-01  1.0002410972006590e+00  1.0008468766626111e+00  1.0020806062644481e+00  1.0045507161514424e+00  1.0087256346886295e+00  1.0145757096356376e+00  1.0223279162404100e+00  1.0310006411126769e+00  1.0392951134801005e+00  1.0461868517603665e+00  1.0503867599798458e+00  1.0515529761284375e+00  1.0505038491125240e+00  1.0473378434312730e+00  1.0432983919139680e+00  1.0389859469047447e+00  1.0344701296820842e+00  1.0303204509204460e+00  1.0265621498514150e+00  1.0227583324421694e+00  1.0195592431927507e+00  1.0163350692251369e+00  1.0133423726399429e+00  1.0106614565387855e+00  1.0081229695672365e+00  1.0056655818448841e+00  1.0036284629034073e+00  1.0014874522383836e+00  9.9971638440278665e-01  9.9812740547732226e-01  9.9667036702750744e-01  9.9545728373179654e-01  9.9443747519487702e-01  9.9351657922914494e-01  9.9283064072380545e-01  9.9230440239778361e-01  9.9187452829597567e-01  9.9172124607746159e-01  9.9164850761343748e-01  9.9176483971017271e-01  9.9202229832980893e-01  9.9246791070667695e-01  9.9303052728040353e-01  9.9389593904594009e-01  9.9488242914115044e-01  9.9613639335554005e-01  9.9768758205408226e-01  9.9951203744542383e-01  1.0015488493594420e+00  1.0039805925415051e+00  1.0066577007167954e+00  1.0096117198108454e+00  1.0128685253862484e+00  1.0163501282617697e+00  1.0200170947024150e+00  1.0238877137419786e+00  1.0278399913703800e+00  1.0318424940198703e+00  1.0358372439063548e+00  1.0397333784160900e+00  1.0434337757262322e+00  1.0466688075651041e+00  1.0491713034537120e+00  1.0505351636033526e+00  1.0499084562353875e+00  1.0466697644025573e+00  1.0406776322848994e+00  1.0323431528495028e+00  1.0232047995374436e+00  1.0150521501196643e+00  1.0087485486646310e+00  1.0045595699979006e+00  1.0022216167662967e+00  1.0009494743845566e+00  1.0003525525015649e+00  1.0001591095821993e+00  1.0000359842845616e+00  9.9999460196223766e-01  1.0000296348734321e+00  9.9998898401815439e-01  9.9998651922249360e-01  1.0000240518210890e+00  9.9998825212872888e-01  9.9999050750465379e-01  1.0000139566883219e+00  9.9999819588771577e-01  9.9999650690732644e-01  1.0000005737324702e+00  9.9999394327187219e-01  9.9999406711149574e-01  1.0000158188876969e+00  1.0001328088126791e+00  9.9996367040461676e-01  9.9999675288115708e-01  1.0000316677461032e+00  9.9997564634163427e-01  1.0000341914683162e+00  9.9995345743013009e-01  9.9998261015683931e-01  1.0001222000471617e+00  1.0002419517096302e+00  1.0011290744408656e+00  1.0025083532650141e+00  1.0055218666945200e+00  1.0103591416754882e+00  1.0170892082210075e+00  1.0256429153686013e+00  1.0348523892260004e+00  1.0429040096626923e+00  1.0488894705533911e+00  1.0515201490660944e+00  1.0510438275049985e+00  1.0484009267806984e+00  1.0441774567111322e+00  1.0393305615758155e+00  1.0346393943744738e+00  1.0298475833221670e+00  1.0255241919786733e+00  1.0214517570295045e+00  1.0174136693626232e+00  1.0137000313253739e+00  1.0101896782990460e+00  1.0066569919495783e+00  1.0036735142094289e+00  1.0006251083673299e+00  9.9791552329421596e-01  9.9547177697857814e-01  9.9325626461049121e-01  9.9126978627442108e-01  9.8973081631843607e-01  9.8819191716486809e-01  9.8706591782538833e-01  9.8608255435389502e-01  9.8529346232872339e-01  9.8474989005010050e-01  9.8436987618746419e-01  9.8412190528152588e-01  9.8406135456321275e-01  9.8411736091515722e-01  9.8423160801313814e-01  9.8457025312347579e-01  9.8495861956090358e-01  9.8556087176351004e-01  9.8629627546914267e-01  9.8721574636109044e-01  9.8824543587176394e-01  9.8956650176323602e-01  9.9097972382716804e-01  9.9258113109591561e-01  9.9441924951728689e-01  9.9646422862369599e-01  9.9865405817627251e-01  1.0011317503597221e+00  1.0038098413294907e+00  1.0067243332992990e+00  1.0099255790783905e+00  1.0133859549227298e+00  1.0171080603876657e+00  1.0211232408718904e+00  1.0253698994787075e+00  1.0298132166357352e+00  1.0343141577890931e+00  1.0387675051384666e+00  1.0430236220610678e+00  1.0466283934015796e+00  1.0492030210590251e+00  1.0501979427965800e+00  1.0485696435398328e+00  1.0437651107874442e+00  1.0361187349297181e+00  1.0267522391218356e+00  1.0176381900893436e+00  1.0104536656940826e+00  1.0055094153862227e+00  1.0025931791332157e+00  1.0011544901568272e+00  1.0004351012380546e+00  1.0001345837412436e+00  1.0000765169940207e+00  1.0000016654422950e+00  9.9998833623265704e-01  1.0000275306083735e+00  9.9998651922249393e-01  9.9998955908497389e-01  1.0000193856169532e+00  9.9999376464076806e-01  9.9999163039563665e-01  1.0000038203338086e+00  9.9999926424172525e-01  1.0000209537458102e+00  1.0000142547404780e+00  1.0000374345672107e+00  9.9990222852320088e-01  9.9995185290638466e-01  1.0000409059245605e+00  9.9993549071141707e-01  1.0000341914683157e+00  9.9989180510384090e-01  9.9998809991160365e-01  1.0000707797149115e+00  1.0002798201853138e+00  1.0011726506709706e+00  1.0029476637504762e+00  1.0061957871237766e+00  1.0118047355491278e+00  1.0191910731445457e+00  1.0284880281000521e+00  1.0379412780619302e+00  1.0456077904254759e+00  1.0504420871450968e+00  1.0516746412247