<?xml version="1.0"?>
<VTKFile type="UnstructuredGrid"  version="0.1"  >
<UnstructuredGrid>
<Piece  NumberOfPoints="10201" NumberOfCells="20000">
<Points>
<DataArray  type="Float64"  NumberOfComponents="3"  format="ascii">-5 -5 0  -4.9 -5 0  -4.8 -5 0  -4.7 -5 0  -4.6 -5 0  -4.5 -5 0  -4.4 -5 0  -4.3 -5 0  -4.2 -5 0  -4.1 -5 0  -4 -5 0  -3.9 -5 0  -3.8 -5 0  -3.7 -5 0  -3.6 -5 0  -3.5 -5 0  -3.4 -5 0  -3.3 -5 0  -3.2 -5 0  -3.1 -5 0  -3 -5 0  -2.9 -5 0  -2.8 -5 0  -2.7 -5 0  -2.6 -5 0  -2.5 -5 0  -2.4 -5 0  -2.3 -5 0  -2.2 -5 0  -2.1 -5 0  -2 -5 0  -1.9 -5 0  -1.8 -5 0  -1.7 -5 0  -1.6 -5 0  -1.5 -5 0  -1.4 -5 0  -1.3 -5 0  -1.2 -5 0  -1.1 -5 0  -1 -5 0  -0.9000000000000004 -5 0  -0.7999999999999998 -5 0  -0.7000000000000002 -5 0  -0.5999999999999996 -5 0  -0.5 -5 0  -0.4000000000000004 -5 0  -0.2999999999999998 -5 0  -0.2000000000000002 -5 0  -0.09999999999999964 -5 0  0 -5 0  0.09999999999999964 -5 0  0.2000000000000002 -5 0  0.2999999999999998 -5 0  0.4000000000000004 -5 0  0.5 -5 0  0.5999999999999996 -5 0  0.7000000000000002 -5 0  0.7999999999999998 -5 0  0.9000000000000004 -5 0  1 -5 0  1.1 -5 0  1.2 -5 0  1.3 -5 0  1.4 -5 0  1.5 -5 0  1.6 -5 0  1.7 -5 0  1.8 -5 0  1.9 -5 0  2 -5 0  2.1 -5 0  2.2 -5 0  2.3 -5 0  2.4 -5 0  2.5 -5 0  2.6 -5 0  2.7 -5 0  2.8 -5 0  2.9 -5 0  3 -5 0  3.1 -5 0  3.199999999999999 -5 0  3.300000000000001 -5 0  3.4 -5 0  3.5 -5 0  3.6 -5 0  3.699999999999999 -5 0  3.800000000000001 -5 0  3.9 -5 0  4 -5 0  4.1 -5 0  4.199999999999999 -5 0  4.300000000000001 -5 0  4.4 -5 0  4.5 -5 0  4.6 -5 0  4.699999999999999 -5 0  4.800000000000001 -5 0  4.9 -5 0  5 -5 0  -5 -4.9 0  -4.9 -4.9 0  -4.8 -4.9 0  -4.7 -4.9 0  -4.6 -4.9 0  -4.5 -4.9 0  -4.4 -4.9 0  -4.3 -4.9 0  -4.2 -4.9 0  -4.1 -4.9 0  -4 -4.9 0  -3.9 -4.9 0  -3.8 -4.9 0  -3.7 -4.9 0  -3.6 -4.9 0  -3.5 -4.9 0  -3.4 -4.9 0  -3.3 -4.9 0  -3.2 -4.9 0  -3.1 -4.9 0  -3 -4.9 0  -2.9 -4.9 0  -2.8 -4.9 0  -2.7 -4.9 0  -2.6 -4.9 0  -2.5 -4.9 0  -2.4 -4.9 0  -2.3 -4.9 0  -2.2 -4.9 0  -2.1 -4.9 0  -2 -4.9 0  -1.9 -4.9 0  -1.8 -4.9 0  -1.7 -4.9 0  -1.6 -4.9 0  -1.5 -4.9 0  -1.4 -4.9 0  -1.3 -4.9 0  -1.2 -4.9 0  -1.1 -4.9 0  -1 -4.9 0  -0.9000000000000004 -4.9 0  -0.7999999999999998 -4.9 0  -0.7000000000000002 -4.9 0  -0.5999999999999996 -4.9 0  -0.5 -4.9 0  -0.4000000000000004 -4.9 0  -0.2999999999999998 -4.9 0  -0.2000000000000002 -4.9 0  -0.09999999999999964 -4.9 0  0 -4.9 0  0.09999999999999964 -4.9 0  0.2000000000000002 -4.9 0  0.2999999999999998 -4.9 0  0.4000000000000004 -4.9 0  0.5 -4.9 0  0.5999999999999996 -4.9 0  0.7000000000000002 -4.9 0  0.7999999999999998 -4.9 0  0.9000000000000004 -4.9 0  1 -4.9 0  1.1 -4.9 0  1.2 -4.9 0  1.3 -4.9 0  1.4 -4.9 0  1.5 -4.9 0  1.6 -4.9 0  1.7 -4.9 0  1.8 -4.9 0  1.9 -4.9 0  2 -4.9 0  2.1 -4.9 0  2.2 -4.9 0  2.3 -4.9 0  2.4 -4.9 0  2.5 -4.9 0  2.6 -4.9 0  2.7 -4.9 0  2.8 -4.9 0  2.9 -4.9 0  3 -4.9 0  3.1 -4.9 0  3.199999999999999 -4.9 0  3.300000000000001 -4.9 0  3.4 -4.9 0  3.5 -4.9 0  3.6 -4.9 0  3.699999999999999 -4.9 0  3.800000000000001 -4.9 0  3.9 -4.9 0  4 -4.9 0  4.1 -4.9 0  4.199999999999999 -4.9 0  4.300000000000001 -4.9 0  4.4 -4.9 0  4.5 -4.9 0  4.6 -4.9 0  4.699999999999999 -4.9 0  4.800000000000001 -4.9 0  4.9 -4.9 0  5 -4.9 0  -5 -4.8 0  -4.9 -4.8 0  -4.8 -4.8 0  -4.7 -4.8 0  -4.6 -4.8 0  -4.5 -4.8 0  -4.4 -4.8 0  -4.3 -4.8 0  -4.2 -4.8 0  -4.1 -4.8 0  -4 -4.8 0  -3.9 -4.8 0  -3.8 -4.8 0  -3.7 -4.8 0  -3.6 -4.8 0  -3.5 -4.8 0  -3.4 -4.8 0  -3.3 -4.8 0  -3.2 -4.8 0  -3.1 -4.8 0  -3 -4.8 0  -2.9 -4.8 0  -2.8 -4.8 0  -2.7 -4.8 0  -2.6 -4.8 0  -2.5 -4.8 0  -2.4 -4.8 0  -2.3 -4.8 0  -2.2 -4.8 0  -2.1 -4.8 0  -2 -4.8 0  -1.9 -4.8 0  -1.8 -4.8 0  -1.7 -4.8 0  -1.6 -4.8 0  -1.5 -4.8 0  -1.4 -4.8 0  -1.3 -4.8 0  -1.2 -4.8 0  -1.1 -4.8 0  -1 -4.8 0  -0.9000000000000004 -4.8 0  -0.7999999999999998 -4.8 0  -0.7000000000000002 -4.8 0  -0.5999999999999996 -4.8 0  -0.5 -4.8 0  -0.4000000000000004 -4.8 0  -0.2999999999999998 -4.8 0  -0.2000000000000002 -4.8 0  -0.09999999999999964 -4.8 0  0 -4.8 0  0.09999999999999964 -4.8 0  0.2000000000000002 -4.8 0  0.2999999999999998 -4.8 0  0.4000000000000004 -4.8 0  0.5 -4.8 0  0.5999999999999996 -4.8 0  0.7000000000000002 -4.8 0  0.7999999999999998 -4.8 0  0.9000000000000004 -4.8 0  1 -4.8 0  1.1 -4.8 0  1.2 -4.8 0  1.3 -4.8 0  1.4 -4.8 0  1.5 -4.8 0  1.6 -4.8 0  1.7 -4.8 0  1.8 -4.8 0  1.9 -4.8 0  2 -4.8 0  2.1 -4.8 0  2.2 -4.8 0  2.3 -4.8 0  2.4 -4.8 0  2.5 -4.8 0  2.6 -4.8 0  2.7 -4.8 0  2.8 -4.8 0  2.9 -4.8 0  3 -4.8 0  3.1 -4.8 0  3.199999999999999 -4.8 0  3.300000000000001 -4.8 0  3.4 -4.8 0  3.5 -4.8 0  3.6 -4.8 0  3.699999999999999 -4.8 0  3.800000000000001 -4.8 0  3.9 -4.8 0  4 -4.8 0  4.1 -4.8 0  4.199999999999999 -4.8 0  4.300000000000001 -4.8 0  4.4 -4.8 0  4.5 -4.8 0  4.6 -4.8 0  4.699999999999999 -4.8 0  4.800000000000001 -4.8 0  4.9 -4.8 0  5 -4.8 0  -5 -4.7 0  -4.9 -4.7 0  -4.8 -4.7 0  -4.7 -4.7 0  -4.6 -4.7 0  -4.5 -4.7 0  -4.4 -4.7 0  -4.3 -4.7 0  -4.2 -4.7 0  -4.1 -4.7 0  -4 -4.7 0  -3.9 -4.7 0  -3.8 -4.7 0  -3.7 -4.7 0  -3.6 -4.7 0  -3.5 -4.7 0  -3.4 -4.7 0  -3.3 -4.7 0  -3.2 -4.7 0  -3.1 -4.7 0  -3 -4.7 0  -2.9 -4.7 0  -2.8 -4.7 0  -2.7 -4.7 0  -2.6 -4.7 0  -2.5 -4.7 0  -2.4 -4.7 0  -2.3 -4.7 0  -2.2 -4.7 0  -2.1 -4.7 0  -2 -4.7 0  -1.9 -4.7 0  -1.8 -4.7 0  -1.7 -4.7 0  -1.6 -4.7 0  -1.5 -4.7 0  -1.4 -4.7 0  -1.3 -4.7 0  -1.2 -4.7 0  -1.1 -4.7 0  -1 -4.7 0  -0.9000000000000004 -4.7 0  -0.7999999999999998 -4.7 0  -0.7000000000000002 -4.7 0  -0.5999999999999996 -4.7 0  -0.5 -4.7 0  -0.4000000000000004 -4.7 0  -0.2999999999999998 -4.7 0  -0.2000000000000002 -4.7 0  -0.09999999999999964 -4.7 0  0 -4.7 0  0.09999999999999964 -4.7 0  0.2000000000000002 -4.7 0  0.2999999999999998 -4.7 0  0.4000000000000004 -4.7 0  0.5 -4.7 0  0.5999999999999996 -4.7 0  0.7000000000000002 -4.7 0  0.7999999999999998 -4.7 0  0.9000000000000004 -4.7 0  1 -4.7 0  1.1 -4.7 0  1.2 -4.7 0  1.3 -4.7 0  1.4 -4.7 0  1.5 -4.7 0  1.6 -4.7 0  1.7 -4.7 0  1.8 -4.7 0  1.9 -4.7 0  2 -4.7 0  2.1 -4.7 0  2.2 -4.7 0  2.3 -4.7 0  2.4 -4.7 0  2.5 -4.7 0  2.6 -4.7 0  2.7 -4.7 0  2.8 -4.7 0  2.9 -4.7 0  3 -4.7 0  3.1 -4.7 0  3.199999999999999 -4.7 0  3.300000000000001 -4.7 0  3.4 -4.7 0  3.5 -4.7 0  3.6 -4.7 0  3.699999999999999 -4.7 0  3.800000000000001 -4.7 0  3.9 -4.7 0  4 -4.7 0  4.1 -4.7 0  4.199999999999999 -4.7 0  4.300000000000001 -4.7 0  4.4 -4.7 0  4.5 -4.7 0  4.6 -4.7 0  4.699999999999999 -4.7 0  4.800000000000001 -4.7 0  4.9 -4.7 0  5 -4.7 0  -5 -4.6 0  -4.9 -4.6 0  -4.8 -4.6 0  -4.7 -4.6 0  -4.6 -4.6 0  -4.5 -4.6 0  -4.4 -4.6 0  -4.3 -4.6 0  -4.2 -4.6 0  -4.1 -4.6 0  -4 -4.6 0  -3.9 -4.6 0  -3.8 -4.6 0  -3.7 -4.6 0  -3.6 -4.6 0  -3.5 -4.6 0  -3.4 -4.6 0  -3.3 -4.6 0  -3.2 -4.6 0  -3.1 -4.6 0  -3 -4.6 0  -2.9 -4.6 0  -2.8 -4.6 0  -2.7 -4.6 0  -2.6 -4.6 0  -2.5 -4.6 0  -2.4 -4.6 0  -2.3 -4.6 0  -2.2 -4.6 0  -2.1 -4.6 0  -2 -4.6 0  -1.9 -4.6 0  -1.8 -4.6 0  -1.7 -4.6 0  -1.6 -4.6 0  -1.5 -4.6 0  -1.4 -4.6 0  -1.3 -4.6 0  -1.2 -4.6 0  -1.1 -4.6 0  -1 -4.6 0  -0.9000000000000004 -4.6 0  -0.7999999999999998 -4.6 0  -0.7000000000000002 -4.6 0  -0.5999999999999996 -4.6 0  -0.5 -4.6 0  -0.4000000000000004 -4.6 0  -0.2999999999999998 -4.6 0  -0.2000000000000002 -4.6 0  -0.09999999999999964 -4.6 0  0 -4.6 0  0.09999999999999964 -4.6 0  0.2000000000000002 -4.6 0  0.2999999999999998 -4.6 0  0.4000000000000004 -4.6 0  0.5 -4.6 0  0.5999999999999996 -4.6 0  0.7000000000000002 -4.6 0  0.7999999999999998 -4.6 0  0.9000000000000004 -4.6 0  1 -4.6 0  1.1 -4.6 0  1.2 -4.6 0  1.3 -4.6 0  1.4 -4.6 0  1.5 -4.6 0  1.6 -4.6 0  1.7 -4.6 0  1.8 -4.6 0  1.9 -4.6 0  2 -4.6 0  2.1 -4.6 0  2.2 -4.6 0  2.3 -4.6 0  2.4 -4.6 0  2.5 -4.6 0  2.6 -4.6 0  2.7 -4.6 0  2.8 -4.6 0  2.9 -4.6 0  3 -4.6 0  3.1 -4.6 0  3.199999999999999 -4.6 0  3.300000000000001 -4.6 0  3.4 -4.6 0  3.5 -4.6 0  3.6 -4.6 0  3.699999999999999 -4.6 0  3.800000000000001 -4.6 0  3.9 -4.6 0  4 -4.6 0  4.1 -4.6 0  4.199999999999999 -4.6 0  4.300000000000001 -4.6 0  4.4 -4.6 0  4.5 -4.6 0  4.6 -4.6 0  4.699999999999999 -4.6 0  4.800000000000001 -4.6 0  4.9 -4.6 0  5 -4.6 0  -5 -4.5 0  -4.9 -4.5 0  -4.8 -4.5 0  -4.7 -4.5 0  -4.6 -4.5 0  -4.5 -4.5 0  -4.4 -4.5 0  -4.3 -4.5 0  -4.2 -4.5 0  -4.1 -4.5 0  -4 -4.5 0  -3.9 -4.5 0  -3.8 -4.5 0  -3.7 -4.5 0  -3.6 -4.5 0  -3.5 -4.5 0  -3.4 -4.5 0  -3.3 -4.5 0  -3.2 -4.5 0  -3.1 -4.5 0  -3 -4.5 0  -2.9 -4.5 0  -2.8 -4.5 0  -2.7 -4.5 0  -2.6 -4.5 0  -2.5 -4.5 0  -2.4 -4.5 0  -2.3 -4.5 0  -2.2 -4.5 0  -2.1 -4.5 0  -2 -4.5 0  -1.9 -4.5 0  -1.8 -4.5 0  -1.7 -4.5 0  -1.6 -4.5 0  -1.5 -4.5 0  -1.4 -4.5 0  -1.3 -4.5 0  -1.2 -4.5 0  -1.1 -4.5 0  -1 -4.5 0  -0.9000000000000004 -4.5 0  -0.7999999999999998 -4.5 0  -0.7000000000000002 -4.5 0  -0.5999999999999996 -4.5 0  -0.5 -4.5 0  -0.4000000000000004 -4.5 0  -0.2999999999999998 -4.5 0  -0.2000000000000002 -4.5 0  -0.09999999999999964 -4.5 0  0 -4.5 0  0.09999999999999964 -4.5 0  0.2000000000000002 -4.5 0  0.2999999999999998 -4.5 0  0.4000000000000004 -4.5 0  0.5 -4.5 0  0.5999999999999996 -4.5 0  0.7000000000000002 -4.5 0  0.7999999999999998 -4.5 0  0.9000000000000004 -4.5 0  1 -4.5 0  1.1 -4.5 0  1.2 -4.5 0  1.3 -4.5 0  1.4 -4.5 0  1.5 -4.5 0  1.6 -4.5 0  1.7 -4.5 0  1.8 -4.5 0  1.9 -4.5 0  2 -4.5 0  2.1 -4.5 0  2.2 -4.5 0  2.3 -4.5 0  2.4 -4.5 0  2.5 -4.5 0  2.6 -4.5 0  2.7 -4.5 0  2.8 -4.5 0  2.9 -4.5 0  3 -4.5 0  3.1 -4.5 0  3.199999999999999 -4.5 0  3.300000000000001 -4.5 0  3.4 -4.5 0  3.5 -4.5 0  3.6 -4.5 0  3.699999999999999 -4.5 0  3.800000000000001 -4.5 0  3.9 -4.5 0  4 -4.5 0  4.1 -4.5 0  4.199999999999999 -4.5 0  4.300000000000001 -4.5 0  4.4 -4.5 0  4.5 -4.5 0  4.6 -4.5 0  4.699999999999999 -4.5 0  4.800000000000001 -4.5 0  4.9 -4.5 0  5 -4.5 0  -5 -4.4 0  -4.9 -4.4 0  -4.8 -4.4 0  -4.7 -4.4 0  -4.6 -4.4 0  -4.5 -4.4 0  -4.4 -4.4 0  -4.3 -4.4 0  -4.2 -4.4 0  -4.1 -4.4 0  -4 -4.4 0  -3.9 -4.4 0  -3.8 -4.4 0  -3.7 -4.4 0  -3.6 -4.4 0  -3.5 -4.4 0  -3.4 -4.4 0  -3.3 -4.4 0  -3.2 -4.4 0  -3.1 -4.4 0  -3 -4.4 0  -2.9 -4.4 0  -2.8 -4.4 0  -2.7 -4.4 0  -2.6 -4.4 0  -2.5 -4.4 0  -2.4 -4.4 0  -2.3 -4.4 0  -2.2 -4.4 0  -2.1 -4.4 0  -2 -4.4 0  -1.9 -4.4 0  -1.8 -4.
[...]
<PointData  Scalars="f_27-1"> 
<DataArray  type="Float64"  Name="f_27-1"  format="ascii">9.9986138128812230e-01  9.9998669712812394e-01  9.9999350099635587e-01  1.0000226378547981e+00  9.9999103074743390e-01  1.0000340906078005e+00  9.9997095259976765e-01  1.0000194104033642e+00  9.9999107427088352e-01  9.9998823324089781e-01  1.0000156607237234e+00  9.9998451475830397e-01  1.0000147013813077e+00  9.9998221126062514e-01  1.0000020226020243e+00  1.0000060650718601e+00  1.0000007099174102e+00  1.0000022179691306e+00  1.0000060633200447e+00  9.9999800545016448e-01  9.9999474400454347e-01  1.0000089078514522e+00  9.9993990276406775e-01  9.9999313719583827e-01  9.9989380209435641e-01  9.9994712110923067e-01  9.9990949333885770e-01  1.0000528143599967e+00  1.0002663930103033e+00  1.0008260676295018e+00  1.0016701027346802e+00  1.0030992411977477e+00  1.0051002202461203e+00  1.0078598075410095e+00  1.0113894367676257e+00  1.0156736524816314e+00  1.0206521625987661e+00  1.0261521871175641e+00  1.0320529646156742e+00  1.0380602049421719e+00  1.0440837808913008e+00  1.0498096106305113e+00  1.0552050796055064e+00  1.0600410368402926e+00  1.0643460090727808e+00  1.0679571306827347e+00  1.0709780528908273e+00  1.0732863254198566e+00  1.0749916569938622e+00  1.0760254472702619e+00  1.0764497181564887e+00  1.0762150442343583e+00  1.0753702929838065e+00  1.0738396387195239e+00  1.0716496305666923e+00  1.0687496354540156e+00  1.0651361555029255e+00  1.0608164340454644e+00  1.0558257701795390e+00  1.0502268457391823e+00  1.0441756307191541e+00  1.0378508538142368e+00  1.0314779011111139e+00  1.0253335496888702e+00  1.0196636892523223e+00  1.0146777873654647e+00  1.0105129714907726e+00  1.0072047349137685e+00  1.0047194911549875e+00  1.0029490828617440e+00  1.0017519342359287e+00  1.0009894281612952e+00  1.0005317180487041e+00  1.0002648701612546e+00  1.0001278492719297e+00  1.0000579960732312e+00  1.0000213391551656e+00  1.0000092466017128e+00  1.0000054414019306e+00  9.9999816425237675e-01  1.0000013289782934e+00  1.0000020383720116e+00  9.9999706885657091e-01  1.0000003887108659e+00  1.0000003501893000e+00  9.9999901613566877e-01  9.9999861875080220e-01  1.0000028313838196e+00  1.0000005824350795e+00  9.9999967791177691e-01  1.0000002980550107e+00  1.0000011410591658e+00  9.9999725539799045e-01  1.0000024112451691e+00  9.9999899559766203e-01  1.0000000927162902e+00  9.9999841807294088e-01  1.0000006750637076e+00  9.9999913979812527e-01  1.0000017667197312e+00  9.9999101778837896e-01  9.9998669712812416e-01  9.9999456582589341e-01  1.0000093535255237e+00  1.0000072952756744e+00  1.0000005519379151e+00  1.0000233115904140e+00  9.9998999880555850e-01  9.9999316820118567e-01  1.0000248016678623e+00  9.9995536651470451e-01  1.0000345223100526e+00  9.9999529811310706e-01  9.9998333350642721e-01  1.0000106269659845e+00  9.9999612622296363e-01  1.0000036129027010e+00  1.0000122001792298e+00  9.9998758700069423e-01  1.0000141053190501e+00  1.0000011078739282e+00  9.9998201978972567e-01  1.0000112734643098e+00  9.9992084244823409e-01  9.9999798470406009e-01  9.9992770034030753e-01  1.0000107203188700e+00  1.0001027379318954e+00  1.0003939584736676e+00  1.0008657719175835e+00  1.0017921994381132e+00  1.0030453851243046e+00  1.0049851212092586e+00  1.0075185391541308e+00  1.0107471128440930e+00  1.0146895881847242e+00  1.0192014149880144e+00  1.0241905465360539e+00  1.0295175408107831e+00  1.0350079946090507e+00  1.0404395664991983e+00  1.0457829511198145e+00  1.0507358218737486e+00  1.0553475311710951e+00  1.0594392410434432e+00  1.0630328215662670e+00  1.0660301884742236e+00  1.0685355526483242e+00  1.0704195440019149e+00  1.0718120450254729e+00  1.0726366218003771e+00  1.0729366940652370e+00  1.0726938089174467e+00  1.0719439097559704e+00  1.0706062366523792e+00  1.0687456009102831e+00  1.0663065960816409e+00  1.0632906073503166e+00  1.0597231208396829e+00  1.0556075006422234e+00  1.0509710062714426e+00  1.0459370319165218e+00  1.0405586660456416e+00  1.0349725516671395e+00  1.0293797866682155e+00  1.0239371802022204e+00  1.0188394218884473e+00  1.0142867453198394e+00  1.0103891310768678e+00  1.0072287487354479e+00  1.0048077775862674e+00  1.0030343389095957e+00  1.0018294338273974e+00  1.0010468273081794e+00  1.0005589249356228e+00  1.0002898652881176e+00  1.0001419454323233e+00  1.0000554793250909e+00  1.0000299528515060e+00  1.0000133677122081e+00  9.9999577128803030e-01  1.0000069215876228e+00  1.0000023225981747e+00  9.9999146832117958e-01  1.0000059351400978e+00  1.0000006191788435e+00  9.9999365685531050e-01  1.0000030313326500e+00  1.0000042381199539e+00  9.9999636867433761e-01  9.9999981747779898e-01  1.0000058924441053e+00  9.9999453645122116e-01  9.9999999932884287e-01  1.0000033438839153e+00  9.9999835438038920e-01  9.9999826079088583e-01  1.0000027461420471e+00  9.9999708188224046e-01  1.0000019288952078e+00  9.9999667837894846e-01  1.0000017667197314e+00  9.9999350099635564e-01  1.0000093535255239e+00  9.9996658231930469e-01  9.9999750224610007e-01  1.0000151441158625e+00  1.0000149783336916e+00  9.9994941419311356e-01  1.0000727632678470e+00  9.9992445004596053e-01  1.0000328642694933e+00  1.0000324733651516e+00  9.9992108038721517e-01  1.0000614305414419e+00  9.9997529466656321e-01  9.9999506817068851e-01  1.0000158819735292e+00  9.9996924342752247e-01  1.0000166478370693e+00  1.0000031729313501e+00  9.9995382601477090e-01  1.0000040622737008e+00  9.9992823489738059e-01  9.9995888762970342e-01  1.0000447348553119e+00  1.0000535006510956e+00  1.0004954780050486e+00  1.0009798967396841e+00  1.0020518546425228e+00  1.0036454449319161e+00  1.0059271133833863e+00  1.0089706789337922e+00  1.0129358810368114e+00  1.0174218976328733e+00  1.0226207798187892e+00  1.0280269701780644e+00  1.0334503420090351e+00  1.0387509994014128e+00  1.0435995268628055e+00  1.0478965355057781e+00  1.0516079506610014e+00  1.0546696864858689e+00  1.0570747702833188e+00  1.0590520193597228e+00  1.0604629053747572e+00  1.0615724491639473e+00  1.0623541000521601e+00  1.0629182305720826e+00  1.0632320436161788e+00  1.0634668037910200e+00  1.0634764863524546e+00  1.0634357900174298e+00  1.0632742888794111e+00  1.0630042188123952e+00  1.0626312911823219e+00  1.0621928918574801e+00  1.0615685855534926e+00  1.0608279115110058e+00  1.0598713596746931e+00  1.0586162008643913e+00  1.0570439547897037e+00  1.0550007533079089e+00  1.0523504582518510e+00  1.0490815161614846e+00  1.0450752892261352e+00  1.0403201674755269e+00  1.0349929065596892e+00  1.0292666969092785e+00  1.0234620537050954e+00  1.0179698107733364e+00  1.0130646126023590e+00  1.0090145994034847e+00  1.0058931045586770e+00  1.0036221336254034e+00  1.0021128596233415e+00  1.0011681573543068e+00  1.0005858299577286e+00  1.0002926893458941e+00  1.0001384929311121e+00  1.0000412106215133e+00  1.0000274412113663e+00  1.0000150363676281e+00  9.9998708008208126e-01  1.0000095468033454e+00  1.0000065501031530e+00  9.9998474857862663e-01  1.0000071979814877e+00  1.0000065086965491e+00  9.9999019387767252e-01  1.0000006598797633e+00  1.0000111907451772e+00  9.9999010464929594e-01  9.9999984912004070e-01  1.0000067303728233e+00  9.9999709168232676e-01  9.9999511073829972e-01  1.0000067720056214e+00  9.9999445945059917e-01  1.0000007899315155e+00  9.9999947458954852e-01  1.0000019288952080e+00  9.9999913979812560e-01  1.0000226378547981e+00  1.0000072952756744e+00  9.9999750224609985e-01  1.0000645846842575e+00  1.0000151779510047e+00  9.9995062074720531e-01  1.0000849504087732e+00  9.9993580285613826e-01  1.0000083614215147e+00  1.0000611316425592e+00  9.9989480630413996e-01  1.0000703813210117e+00  1.0000084650533716e+00  9.9994462492181202e-01  1.0000611552038947e+00  9.9995785823015670e-01  1.0000303867816824e+00  1.0000129692294815e+00  9.9993201096161999e-01  1.0000197553355819e+00  9.9993950187335345e-01  9.9998841823075513e-01  1.0001306388903168e+00  1.0003136284064769e+00  1.0009739752749791e+00  1.0020695745903117e+00  1.0037088866998223e+00  1.0064675309038744e+00  1.0099016265401368e+00  1.0144954484037514e+00  1.0198903512606663e+00  1.0257262579893842e+00  1.0317521637870140e+00  1.0375823211477460e+00  1.0426210066261878e+00  1.0469709612186520e+00  1.0502247121235451e+00  1.0524030985917687e+00  1.0537644047238885e+00  1.0542840443150827e+00  1.0542396685058830e+00  1.0538581696297384e+00  1.0532322560253438e+00  1.0524536317432569e+00  1.0517799518698299e+00  1.0510459974625430e+00  1.0504555430578959e+00  1.0499741350619443e+00  1.0496225617564323e+00  1.0493637466682757e+00  1.0493088717284200e+00  1.0492693978364263e+00  1.0494024441682057e+00  1.0496429235046321e+00  1.0499466120151633e+00  1.0503470388748775e+00  1.0508656074743197e+00  1.0513754563694759e+00  1.0519699421093152e+00  1.0525042605516406e+00  1.0528704280439452e+00  1.0530457669659858e+00  1.0528011844147647e+00  1.0518868543636437e+00  1.0502031458308720e+00  1.0474878119958211e+00  1.0436047120993508e+00  1.0386474364741314e+00  1.0327741981268455e+00  1.0264409326252857e+00  1.0201884831824948e+00  1.0144926615372731e+00  1.0097867450261797e+00  1.0062128015010763e+00  1.0036666481738288e+00  1.0020502711902943e+00  1.0010797844965349e+00  1.0005009671287342e+00  1.0002420874186020e+00  1.0001099021657800e+00  1.0000185973435083e+00  1.0000228943246590e+00  1.0000143730990958e+00  9.9997995701956321e-01  1.0000079701934181e+00  1.0000124083871040e+00  9.9998099311770861e-01  1.0000037645622464e+00  1.0000168344699412e+00  9.9998402283265475e-01  1.0000012607297752e+00  1.0000111107007437e+00  9.9999293997367256e-01  9.9999420755197210e-01  1.0000104864055914e+00  9.9999468114426238e-01  9.9999917346806222e-01  1.0000034120824319e+00  1.0000007899315162e+00  9.9999708188224057e-01  1.0000006750637074e+00  9.9999103074743501e-01  1.0000005519379154e+00  1.0000151441158620e+00  1.0000151779510054e+00  9.9989024524844450e-01  1.0001058747750742e+00  9.9992032253614627e-01  9.9999322923042311e-01  1.0000659922071877e+00  9.9989180398843669e-01  1.0000673101778776e+00  1.0000188705505515e+00  9.9991543230535074e-01  1.0000666448213027e+00  9.9997840948340966e-01  9.9998610282744094e-01  1.0000284675871947e+00  9.9988985132479846e-01  1.0000252307163999e+00  9.9995100016842298e-01  1.0000015871083698e+00  1.0002938372116685e+00  1.0006701271611194e+00  1.0017676991514712e+00  1.0034867397666016e+00  1.0061151146483758e+00  1.0100498607208042e+00  1.0151030565855590e+00  1.0210848248441711e+00  1.0279788086456481e+00  1.0346170875271454e+00  1.0410385849119155e+00  1.0464517561408007e+00  1.0505107507307623e+00  1.0532333916081982e+00  1.0546374849097178e+00  1.0547214233756939e+00  1.0541159969916083e+00  1.0528426501636703e+00  1.0511702956746025e+00  1.0494666357172633e+00  1.0476429833434544e+00  1.0459206917931485e+00  1.0443771515468194e+00  1.0430159952320590e+00  1.0417930399436124e+00  1.0409297883729329e+00  1.0401640906893010e+00  1.0396738643133190e+00  1.0393784072809662e+00  1.0392779603404156e+00  1.0393554888918162e+00  1.0397324803315742e+00  1.0402014184267145e+00  1.0409430171633702e+00  1.0418993210032506e+00  1.0430032626354682e+00  1.0443100931112594e+00  1.0457792964518664e+00  1.0472917425659347e+00  1.0489442375518556e+00  1.0505649668997286e+00  1.0520055099077628e+00  1.0532703194810529e+00  1.0540970251536410e+00  1.0541992290706128e+00  1.0533950126410041e+00  1.0513192199102532e+00  1.0477558164411298e+00  1.0426710800294170e+00  1.0362369553868931e+00  1.0290448844135496e+00  1.0218333823807006e+00  1.0152735109331630e+00  1.0099740973586533e+00  1.0060700112132777e+00  1.0033983708468464e+00  1.0018020772774685e+00  1.0008929143640375e+00  1.0003736110131285e+00  1.0001764909474147e+00  1.0000767112661737e+00  9.9999814387054609e-01  1.0000165964031837e+00  1.0000182394019914e+00  9.9997643002630787e-01  1.0000035457667420e+00  1.0000235995379712e+00  9.9997492815215117e-01  1.0000027865726344e+00  1.0000169699160575e+00  9.9998696051965108e-01  9.9999422421343165e-01  1.0000161821776143e+00  9.9999124740923162e-01  9.9999762311565954e-01  1.0000043906284297e+00  9.9999917346806177e-01  9.9999445945059906e-01  1.0000027461420467e+00  9.9999841807294110e-01  1.0000340906077996e+00  1.0000233115904131e+00  1.0000149783336914e+00  9.9995062074720575e-01  1.0001058747750731e+00  9.9997954971086600e-01  9.9996621650753914e-01  1.0000938219435020e+00  9.9989982798726063e-01  1.0000630693132493e+00  1.0000253708279605e+00  9.9990583837386959e-01  1.0000829772806670e+00  9.9999077830499628e-01  9.9996578847300333e-01  1.0000391162686564e+00  9.9991013465240652e-01  1.0000231014285896e+00  1.0000046014144748e+00  1.0000548686183437e+00  1.0005530066472073e+00  1.0012357485394727e+00  1.0028171204206444e+00  1.0054051297985924e+00  1.0091134241557249e+00  1.0145086120778322e+00  1.0210067034594987e+00  1.0283161490675830e+00  1.0358984545552652e+00  1.0427198580784194e+00  1.0482496486159720e+00  1.0523072940587410e+00  1.0542113373121458e+00  1.0546754334566815e+00  1.0537063472531878e+00  1.0517148417338726e+00  1.0492500663188440e+00  1.0465302755624792e+00  1.0436109095080335e+00  1.0409304625889702e+00  1.0383520086395184e+00  1.0359658097400839e+00  1.0339640725676871e+00  1.0321408343038585e+00  1.0305967195078494e+00  1.0293447686098860e+00  1.0283193516407223e+00  1.0274564923310334e+00  1.0269497273970405e+00  1.0265658076163588e+00  1.0264907638252012e+00  1.0266534304029629e+00  1.0270164342218198e+00  1.0275926018004360e+00  1.0284855432535873e+00  1.0294794812103500e+00  1.0307629500393338e+00  1.0322545511800851e+00  1.0339208978677230e+00  1.0358395009540815e+00  1.0379539937957454e+00  1.0401456606494162e+00  1.0425642548856844e+00  1.0450335847496879e+00  1.0474091698290320e+00  1.0496845992617723e+00  1.0515937426735391e+00  1.0528435456685568e+00  1.0531143321068910e+00  1.0519371262826469e+00  1.0489636234088482e+00  1.0440240908910230e+00  1.0372700785677560e+00  1.0294923250216825e+00  1.0216423418206666e+00  1.0146141040825374e+00  1.0091373983129392e+00  1.0052774167927914e+00  1.0027721444615858e+00  1.0013831899210563e+00  1.0006405627796948e+00  1.0002327537363327e+00  1.0001094307092380e+00  1.0000522073132161e+00  9.9998139478404646e-01  1.0000070732065565e+00  1.0000268838449995e+00  9.9996982396125089e-01  1.0000028553320703e+00  1.0000252011058102e+00  9.9998093244036423e-01  9.9999376847597587e-01  1.0000233399808083e+00  9.9998569343820909e-01  9.9999554732097373e-01  1.0000092521855963e+00  9.9999762311565976e-01  9.9999468114426204e-01  1.0000067720056214e+00  9.9999826079088594e-01  1.0000000927162906e+00  9.9997095259976732e-01  9.9998999880555839e-01  9.9994941419311401e-01  1.0000849504087732e+00  9.9992032253614627e-01  9.9996621650754025e-01  1.0000403700761156e+00  9.9992828767233499e-01  1.0000294437133268e+00  1.0000188186287635e+00  9.9991418500684537e-01  1.0000789354350696e+00  9.9998836293030480e-01  9.9993345757398444e-01  1.0000447506439374e+00  9.9991099111432835e-01  1.0000023030979674e+00  1.0000246256910452e+00  1.0001432615445349e+00  1.0008474564837309e+00  1.0019335738781940e+00  1.0040845223425381e+00  1.0076679178162904e+00  1.0126427099701183e+00  1.0194014499471180e+00  1.0272411711963760e+00  1.0352492642921707e+00  1.0429362742968462e+00  1.0488811158104452e+00  1.0528619462709436e+00  1.0546888295945804e+00  1.0543887666091747e+00  1.0525464711095829e+00  1.0499039222365145e+00  1.0464703727055402e+00  1.0431243904572745e+00  1.0397493980692769e+00  1.0365086412075892e+00  1.0336188477316024e+00  1.0310246177115012e+00  1.0286326289445766e+00  1.0266202953915480e+00  1.0247992412121101e+00  1.0231382927202999e+00  1.0218220800561537e+00  1.0206170966233485e+00  1.0196703237161096e+00  1.0189714335239803e+00  1.0185121047477141e+00  1.0182070467890902e+00  1.0182299995962940e+00  1.0183357905022090e+00  1.0187376809928861e+00  1.0193678656332870e+00  1.0201820395355756e+00  1.0212247597380320e+00  1.0225697618144338e+00  1.0240525980212341e+00  1.0258320177710705e+00  1.0278087019305369e+00  1.0299350653824093e+00  1.0323309567316714e+00  1.0348974440098093e+00  1.0375215354718110e+00  1.0403441648874281e+00  1.0432204707428392e+00  1.0460346202879214e+00  1.0487299626129758e+00  1.0510831252246418e+00  1.0528104069656363e+00  1.0535065962201098e+00  1.0525798121437921e+00  1.0496011795009965e+00  1.0442805181157842e+00  1.0368419038752918e+00  1.0283439245474091e+00  1.0199891592292198e+00  1.0128299417907765e+00  1.0075695386382726e+00  1.0040935557314765e+00  1.0019864665589013e+00  1.0009206760149054e+00  1.0004003372998067e+00  1.0001118813810428e+00  1.0000552730249033e+00  1.0000444175973606e+00  9.9996900119118082e-01  1.0000058237862186e+00  1.0000285347812528e+00  9.9997632881440945e-01  9.9999097192648267e-01  1.0000304908168358e+00  9.9998047480065289e-01  9.9999318019665717e-01  1.0000167528419666e+00  9.9999554732097340e-01  9.9999124740923195e-01  1.0000104864055910e+00  9.9999511073829961e-01  9.9999835438038875e-01  9.9999899559766092e-01  1.0000194104033631e+00  9.9999316820118467e-01  1.0000727632678466e+00  9.9993580285613781e-01  9.9999322923042255e-01  1.0000938219435018e+00  9.9992828767233488e-01  1.0000762744264191e+00  9.9998953283795000e-01  9.9995582380779757e-01  1.0000825869348893e+00  9.9997265550513448e-01  9.9994611285427915e-01  1.0000547883683031e+00  9.9992627395521294e-01  9.9999608633558490e-01  1.0000833645305438e+00  1.0003032980017583e+00  1.0012262352364680e+00  1.0027538140120575e+00  1.0055704270769104e+00  1.0102218413595443e+00  1.0164927291250623e+00  1.0244636306252952e+00  1.0332257281766852e+00  1.0414352860183482e+00  1.0483790030698594e+00  1.0528912194042370e+00  1.0546648999589587e+00  1.0542825347564690e+00  1.0518309306212907e+00  1.0483984992955728e+00  1.0444846999837187e+00  1.0403857012487228e+00  1.0364111359306620e+00  1.0328187718024759e+00  1.0292774758440564e+00  1.0262502481491678e+00  1.0233945488937244e+00  1.0207465961321009e+00  1.0183477346863443e+00  1.0161523524256593e+00  1.0141056605068812e+00  1.0123848734106842e+00  1.0108572411576324e+00  1.0095161685776102e+00  1.0085048876900495e+00  1.0076218594872783e+00  1.0069858917176384e+00  1.0065685310114658e+00  1.0063969867251434e+00  1.0064295735556483e+00  1.0068176462400591e+00  1.0073209632579148e+00  1.0081551902088028e+00  1.0092258998858632e+00  1.0105176354752334e+00  1.0120430716946034e+00  1.0138633322615693e+00  1.0158425283962083e+00  1.0181697804973506e+00  1.0207094962436027e+00  1.0234303312892763e+00  1.0264538804091756e+00  1.0296956915960951e+00  1.0330442694597477e+00  1.0365661269773307e+00  1.0401594870811073e+00  1.0437040115324767e+00  1.0470786008531663e+00  1.0500236603468325e+00  1.0522759260765082e+00  1.0533007439588404e+00  1.0523874657311656e+00  1.0490310608070994e+00  1.0429434242013147e+00  1.0345981833049949e+00  1.0254504863881884e+00  1.0169600562235279e+00  1.0101794138570228e+00  1.0055826186868639e+00  1.0027949242286369e+00  1.0012269491041677e+00  1.0005226874497519e+00  1.0002246360181568e+00  1.0000260474915132e+00  1.0000243446958272e+00  1.0000354191674474e+00  9.9997225325093086e-01  9.9999233515776298e-01  1.0000362082049152e+00  9.9997808180718517e-01  9.9999089385295548e-01  1.0000239566260469e+00  9.9999318019665717e-01  9.9998569343820942e-01  1.0000161821776141e+00  9.9999420755197210e-01  9.9999709168232631e-01  1.0000033438839140e+00  1.0000024112451684e+00  9.9999107427088318e-01  1.0000248016678623e+00  9.9992445004596009e-01  1.0000083614215154e+00  1.0000659922071875e+00  9.9989982798726129e-01  1.0000294437133268e+00  9.9998953283795067e-01  9.9991661033948109e-01  1.0001053377627924e+00  9.9992193918817474e-01  9.9995579234495535e-01  1.0000682959877314e+00  9.9988666516992375e-01  9.9999367391034966e-01  1.0001245940558521e+00  1.0004561657355346e+00  1.0016005910090469e+00  1.0035795757959283e+00  1.0071365753892407e+00  1.0128453079318747e+00  1.0203420905115