<?xml version="1.0"?>
<VTKFile type="UnstructuredGrid"  version="0.1"  >
<UnstructuredGrid>
<Piece  NumberOfPoints="10201" NumberOfCells="20000">
<Points>
<DataArray  type="Float64"  NumberOfComponents="3"  format="ascii">-5 -5 0  -4.9 -5 0  -4.8 -5 0  -4.7 -5 0  -4.6 -5 0  -4.5 -5 0  -4.4 -5 0  -4.3 -5 0  -4.2 -5 0  -4.1 -5 0  -4 -5 0  -3.9 -5 0  -3.8 -5 0  -3.7 -5 0  -3.6 -5 0  -3.5 -5 0  -3.4 -5 0  -3.3 -5 0  -3.2 -5 0  -3.1 -5 0  -3 -5 0  -2.9 -5 0  -2.8 -5 0  -2.7 -5 0  -2.6 -5 0  -2.5 -5 0  -2.4 -5 0  -2.3 -5 0  -2.2 -5 0  -2.1 -5 0  -2 -5 0  -1.9 -5 0  -1.8 -5 0  -1.7 -5 0  -1.6 -5 0  -1.5 -5 0  -1.4 -5 0  -1.3 -5 0  -1.2 -5 0  -1.1 -5 0  -1 -5 0  -0.9000000000000004 -5 0  -0.7999999999999998 -5 0  -0.7000000000000002 -5 0  -0.5999999999999996 -5 0  -0.5 -5 0  -0.4000000000000004 -5 0  -0.2999999999999998 -5 0  -0.2000000000000002 -5 0  -0.09999999999999964 -5 0  0 -5 0  0.09999999999999964 -5 0  0.2000000000000002 -5 0  0.2999999999999998 -5 0  0.4000000000000004 -5 0  0.5 -5 0  0.5999999999999996 -5 0  0.7000000000000002 -5 0  0.7999999999999998 -5 0  0.9000000000000004 -5 0  1 -5 0  1.1 -5 0  1.2 -5 0  1.3 -5 0  1.4 -5 0  1.5 -5 0  1.6 -5 0  1.7 -5 0  1.8 -5 0  1.9 -5 0  2 -5 0  2.1 -5 0  2.2 -5 0  2.3 -5 0  2.4 -5 0  2.5 -5 0  2.6 -5 0  2.7 -5 0  2.8 -5 0  2.9 -5 0  3 -5 0  3.1 -5 0  3.199999999999999 -5 0  3.300000000000001 -5 0  3.4 -5 0  3.5 -5 0  3.6 -5 0  3.699999999999999 -5 0  3.800000000000001 -5 0  3.9 -5 0  4 -5 0  4.1 -5 0  4.199999999999999 -5 0  4.300000000000001 -5 0  4.4 -5 0  4.5 -5 0  4.6 -5 0  4.699999999999999 -5 0  4.800000000000001 -5 0  4.9 -5 0  5 -5 0  -5 -4.9 0  -4.9 -4.9 0  -4.8 -4.9 0  -4.7 -4.9 0  -4.6 -4.9 0  -4.5 -4.9 0  -4.4 -4.9 0  -4.3 -4.9 0  -4.2 -4.9 0  -4.1 -4.9 0  -4 -4.9 0  -3.9 -4.9 0  -3.8 -4.9 0  -3.7 -4.9 0  -3.6 -4.9 0  -3.5 -4.9 0  -3.4 -4.9 0  -3.3 -4.9 0  -3.2 -4.9 0  -3.1 -4.9 0  -3 -4.9 0  -2.9 -4.9 0  -2.8 -4.9 0  -2.7 -4.9 0  -2.6 -4.9 0  -2.5 -4.9 0  -2.4 -4.9 0  -2.3 -4.9 0  -2.2 -4.9 0  -2.1 -4.9 0  -2 -4.9 0  -1.9 -4.9 0  -1.8 -4.9 0  -1.7 -4.9 0  -1.6 -4.9 0  -1.5 -4.9 0  -1.4 -4.9 0  -1.3 -4.9 0  -1.2 -4.9 0  -1.1 -4.9 0  -1 -4.9 0  -0.9000000000000004 -4.9 0  -0.7999999999999998 -4.9 0  -0.7000000000000002 -4.9 0  -0.5999999999999996 -4.9 0  -0.5 -4.9 0  -0.4000000000000004 -4.9 0  -0.2999999999999998 -4.9 0  -0.2000000000000002 -4.9 0  -0.09999999999999964 -4.9 0  0 -4.9 0  0.09999999999999964 -4.9 0  0.2000000000000002 -4.9 0  0.2999999999999998 -4.9 0  0.4000000000000004 -4.9 0  0.5 -4.9 0  0.5999999999999996 -4.9 0  0.7000000000000002 -4.9 0  0.7999999999999998 -4.9 0  0.9000000000000004 -4.9 0  1 -4.9 0  1.1 -4.9 0  1.2 -4.9 0  1.3 -4.9 0  1.4 -4.9 0  1.5 -4.9 0  1.6 -4.9 0  1.7 -4.9 0  1.8 -4.9 0  1.9 -4.9 0  2 -4.9 0  2.1 -4.9 0  2.2 -4.9 0  2.3 -4.9 0  2.4 -4.9 0  2.5 -4.9 0  2.6 -4.9 0  2.7 -4.9 0  2.8 -4.9 0  2.9 -4.9 0  3 -4.9 0  3.1 -4.9 0  3.199999999999999 -4.9 0  3.300000000000001 -4.9 0  3.4 -4.9 0  3.5 -4.9 0  3.6 -4.9 0  3.699999999999999 -4.9 0  3.800000000000001 -4.9 0  3.9 -4.9 0  4 -4.9 0  4.1 -4.9 0  4.199999999999999 -4.9 0  4.300000000000001 -4.9 0  4.4 -4.9 0  4.5 -4.9 0  4.6 -4.9 0  4.699999999999999 -4.9 0  4.800000000000001 -4.9 0  4.9 -4.9 0  5 -4.9 0  -5 -4.8 0  -4.9 -4.8 0  -4.8 -4.8 0  -4.7 -4.8 0  -4.6 -4.8 0  -4.5 -4.8 0  -4.4 -4.8 0  -4.3 -4.8 0  -4.2 -4.8 0  -4.1 -4.8 0  -4 -4.8 0  -3.9 -4.8 0  -3.8 -4.8 0  -3.7 -4.8 0  -3.6 -4.8 0  -3.5 -4.8 0  -3.4 -4.8 0  -3.3 -4.8 0  -3.2 -4.8 0  -3.1 -4.8 0  -3 -4.8 0  -2.9 -4.8 0  -2.8 -4.8 0  -2.7 -4.8 0  -2.6 -4.8 0  -2.5 -4.8 0  -2.4 -4.8 0  -2.3 -4.8 0  -2.2 -4.8 0  -2.1 -4.8 0  -2 -4.8 0  -1.9 -4.8 0  -1.8 -4.8 0  -1.7 -4.8 0  -1.6 -4.8 0  -1.5 -4.8 0  -1.4 -4.8 0  -1.3 -4.8 0  -1.2 -4.8 0  -1.1 -4.8 0  -1 -4.8 0  -0.9000000000000004 -4.8 0  -0.7999999999999998 -4.8 0  -0.7000000000000002 -4.8 0  -0.5999999999999996 -4.8 0  -0.5 -4.8 0  -0.4000000000000004 -4.8 0  -0.2999999999999998 -4.8 0  -0.2000000000000002 -4.8 0  -0.09999999999999964 -4.8 0  0 -4.8 0  0.09999999999999964 -4.8 0  0.2000000000000002 -4.8 0  0.2999999999999998 -4.8 0  0.4000000000000004 -4.8 0  0.5 -4.8 0  0.5999999999999996 -4.8 0  0.7000000000000002 -4.8 0  0.7999999999999998 -4.8 0  0.9000000000000004 -4.8 0  1 -4.8 0  1.1 -4.8 0  1.2 -4.8 0  1.3 -4.8 0  1.4 -4.8 0  1.5 -4.8 0  1.6 -4.8 0  1.7 -4.8 0  1.8 -4.8 0  1.9 -4.8 0  2 -4.8 0  2.1 -4.8 0  2.2 -4.8 0  2.3 -4.8 0  2.4 -4.8 0  2.5 -4.8 0  2.6 -4.8 0  2.7 -4.8 0  2.8 -4.8 0  2.9 -4.8 0  3 -4.8 0  3.1 -4.8 0  3.199999999999999 -4.8 0  3.300000000000001 -4.8 0  3.4 -4.8 0  3.5 -4.8 0  3.6 -4.8 0  3.699999999999999 -4.8 0  3.800000000000001 -4.8 0  3.9 -4.8 0  4 -4.8 0  4.1 -4.8 0  4.199999999999999 -4.8 0  4.300000000000001 -4.8 0  4.4 -4.8 0  4.5 -4.8 0  4.6 -4.8 0  4.699999999999999 -4.8 0  4.800000000000001 -4.8 0  4.9 -4.8 0  5 -4.8 0  -5 -4.7 0  -4.9 -4.7 0  -4.8 -4.7 0  -4.7 -4.7 0  -4.6 -4.7 0  -4.5 -4.7 0  -4.4 -4.7 0  -4.3 -4.7 0  -4.2 -4.7 0  -4.1 -4.7 0  -4 -4.7 0  -3.9 -4.7 0  -3.8 -4.7 0  -3.7 -4.7 0  -3.6 -4.7 0  -3.5 -4.7 0  -3.4 -4.7 0  -3.3 -4.7 0  -3.2 -4.7 0  -3.1 -4.7 0  -3 -4.7 0  -2.9 -4.7 0  -2.8 -4.7 0  -2.7 -4.7 0  -2.6 -4.7 0  -2.5 -4.7 0  -2.4 -4.7 0  -2.3 -4.7 0  -2.2 -4.7 0  -2.1 -4.7 0  -2 -4.7 0  -1.9 -4.7 0  -1.8 -4.7 0  -1.7 -4.7 0  -1.6 -4.7 0  -1.5 -4.7 0  -1.4 -4.7 0  -1.3 -4.7 0  -1.2 -4.7 0  -1.1 -4.7 0  -1 -4.7 0  -0.9000000000000004 -4.7 0  -0.7999999999999998 -4.7 0  -0.7000000000000002 -4.7 0  -0.5999999999999996 -4.7 0  -0.5 -4.7 0  -0.4000000000000004 -4.7 0  -0.2999999999999998 -4.7 0  -0.2000000000000002 -4.7 0  -0.09999999999999964 -4.7 0  0 -4.7 0  0.09999999999999964 -4.7 0  0.2000000000000002 -4.7 0  0.2999999999999998 -4.7 0  0.4000000000000004 -4.7 0  0.5 -4.7 0  0.5999999999999996 -4.7 0  0.7000000000000002 -4.7 0  0.7999999999999998 -4.7 0  0.9000000000000004 -4.7 0  1 -4.7 0  1.1 -4.7 0  1.2 -4.7 0  1.3 -4.7 0  1.4 -4.7 0  1.5 -4.7 0  1.6 -4.7 0  1.7 -4.7 0  1.8 -4.7 0  1.9 -4.7 0  2 -4.7 0  2.1 -4.7 0  2.2 -4.7 0  2.3 -4.7 0  2.4 -4.7 0  2.5 -4.7 0  2.6 -4.7 0  2.7 -4.7 0  2.8 -4.7 0  2.9 -4.7 0  3 -4.7 0  3.1 -4.7 0  3.199999999999999 -4.7 0  3.300000000000001 -4.7 0  3.4 -4.7 0  3.5 -4.7 0  3.6 -4.7 0  3.699999999999999 -4.7 0  3.800000000000001 -4.7 0  3.9 -4.7 0  4 -4.7 0  4.1 -4.7 0  4.199999999999999 -4.7 0  4.300000000000001 -4.7 0  4.4 -4.7 0  4.5 -4.7 0  4.6 -4.7 0  4.699999999999999 -4.7 0  4.800000000000001 -4.7 0  4.9 -4.7 0  5 -4.7 0  -5 -4.6 0  -4.9 -4.6 0  -4.8 -4.6 0  -4.7 -4.6 0  -4.6 -4.6 0  -4.5 -4.6 0  -4.4 -4.6 0  -4.3 -4.6 0  -4.2 -4.6 0  -4.1 -4.6 0  -4 -4.6 0  -3.9 -4.6 0  -3.8 -4.6 0  -3.7 -4.6 0  -3.6 -4.6 0  -3.5 -4.6 0  -3.4 -4.6 0  -3.3 -4.6 0  -3.2 -4.6 0  -3.1 -4.6 0  -3 -4.6 0  -2.9 -4.6 0  -2.8 -4.6 0  -2.7 -4.6 0  -2.6 -4.6 0  -2.5 -4.6 0  -2.4 -4.6 0  -2.3 -4.6 0  -2.2 -4.6 0  -2.1 -4.6 0  -2 -4.6 0  -1.9 -4.6 0  -1.8 -4.6 0  -1.7 -4.6 0  -1.6 -4.6 0  -1.5 -4.6 0  -1.4 -4.6 0  -1.3 -4.6 0  -1.2 -4.6 0  -1.1 -4.6 0  -1 -4.6 0  -0.9000000000000004 -4.6 0  -0.7999999999999998 -4.6 0  -0.7000000000000002 -4.6 0  -0.5999999999999996 -4.6 0  -0.5 -4.6 0  -0.4000000000000004 -4.6 0  -0.2999999999999998 -4.6 0  -0.2000000000000002 -4.6 0  -0.09999999999999964 -4.6 0  0 -4.6 0  0.09999999999999964 -4.6 0  0.2000000000000002 -4.6 0  0.2999999999999998 -4.6 0  0.4000000000000004 -4.6 0  0.5 -4.6 0  0.5999999999999996 -4.6 0  0.7000000000000002 -4.6 0  0.7999999999999998 -4.6 0  0.9000000000000004 -4.6 0  1 -4.6 0  1.1 -4.6 0  1.2 -4.6 0  1.3 -4.6 0  1.4 -4.6 0  1.5 -4.6 0  1.6 -4.6 0  1.7 -4.6 0  1.8 -4.6 0  1.9 -4.6 0  2 -4.6 0  2.1 -4.6 0  2.2 -4.6 0  2.3 -4.6 0  2.4 -4.6 0  2.5 -4.6 0  2.6 -4.6 0  2.7 -4.6 0  2.8 -4.6 0  2.9 -4.6 0  3 -4.6 0  3.1 -4.6 0  3.199999999999999 -4.6 0  3.300000000000001 -4.6 0  3.4 -4.6 0  3.5 -4.6 0  3.6 -4.6 0  3.699999999999999 -4.6 0  3.800000000000001 -4.6 0  3.9 -4.6 0  4 -4.6 0  4.1 -4.6 0  4.199999999999999 -4.6 0  4.300000000000001 -4.6 0  4.4 -4.6 0  4.5 -4.6 0  4.6 -4.6 0  4.699999999999999 -4.6 0  4.800000000000001 -4.6 0  4.9 -4.6 0  5 -4.6 0  -5 -4.5 0  -4.9 -4.5 0  -4.8 -4.5 0  -4.7 -4.5 0  -4.6 -4.5 0  -4.5 -4.5 0  -4.4 -4.5 0  -4.3 -4.5 0  -4.2 -4.5 0  -4.1 -4.5 0  -4 -4.5 0  -3.9 -4.5 0  -3.8 -4.5 0  -3.7 -4.5 0  -3.6 -4.5 0  -3.5 -4.5 0  -3.4 -4.5 0  -3.3 -4.5 0  -3.2 -4.5 0  -3.1 -4.5 0  -3 -4.5 0  -2.9 -4.5 0  -2.8 -4.5 0  -2.7 -4.5 0  -2.6 -4.5 0  -2.5 -4.5 0  -2.4 -4.5 0  -2.3 -4.5 0  -2.2 -4.5 0  -2.1 -4.5 0  -2 -4.5 0  -1.9 -4.5 0  -1.8 -4.5 0  -1.7 -4.5 0  -1.6 -4.5 0  -1.5 -4.5 0  -1.4 -4.5 0  -1.3 -4.5 0  -1.2 -4.5 0  -1.1 -4.5 0  -1 -4.5 0  -0.9000000000000004 -4.5 0  -0.7999999999999998 -4.5 0  -0.7000000000000002 -4.5 0  -0.5999999999999996 -4.5 0  -0.5 -4.5 0  -0.4000000000000004 -4.5 0  -0.2999999999999998 -4.5 0  -0.2000000000000002 -4.5 0  -0.09999999999999964 -4.5 0  0 -4.5 0  0.09999999999999964 -4.5 0  0.2000000000000002 -4.5 0  0.2999999999999998 -4.5 0  0.4000000000000004 -4.5 0  0.5 -4.5 0  0.5999999999999996 -4.5 0  0.7000000000000002 -4.5 0  0.7999999999999998 -4.5 0  0.9000000000000004 -4.5 0  1 -4.5 0  1.1 -4.5 0  1.2 -4.5 0  1.3 -4.5 0  1.4 -4.5 0  1.5 -4.5 0  1.6 -4.5 0  1.7 -4.5 0  1.8 -4.5 0  1.9 -4.5 0  2 -4.5 0  2.1 -4.5 0  2.2 -4.5 0  2.3 -4.5 0  2.4 -4.5 0  2.5 -4.5 0  2.6 -4.5 0  2.7 -4.5 0  2.8 -4.5 0  2.9 -4.5 0  3 -4.5 0  3.1 -4.5 0  3.199999999999999 -4.5 0  3.300000000000001 -4.5 0  3.4 -4.5 0  3.5 -4.5 0  3.6 -4.5 0  3.699999999999999 -4.5 0  3.800000000000001 -4.5 0  3.9 -4.5 0  4 -4.5 0  4.1 -4.5 0  4.199999999999999 -4.5 0  4.300000000000001 -4.5 0  4.4 -4.5 0  4.5 -4.5 0  4.6 -4.5 0  4.699999999999999 -4.5 0  4.800000000000001 -4.5 0  4.9 -4.5 0  5 -4.5 0  -5 -4.4 0  -4.9 -4.4 0  -4.8 -4.4 0  -4.7 -4.4 0  -4.6 -4.4 0  -4.5 -4.4 0  -4.4 -4.4 0  -4.3 -4.4 0  -4.2 -4.4 0  -4.1 -4.4 0  -4 -4.4 0  -3.9 -4.4 0  -3.8 -4.4 0  -3.7 -4.4 0  -3.6 -4.4 0  -3.5 -4.4 0  -3.4 -4.4 0  -3.3 -4.4 0  -3.2 -4.4 0  -3.1 -4.4 0  -3 -4.4 0  -2.9 -4.4 0  -2.8 -4.4 0  -2.7 -4.4 0  -2.6 -4.4 0  -2.5 -4.4 0  -2.4 -4.4 0  -2.3 -4.4 0  -2.2 -4.4 0  -2.1 -4.4 0  -2 -4.4 0  -1.9 -4.4 0  -1.8 -4.
[...]
<PointData  Scalars="f_27-1"> 
<DataArray  type="Float64"  Name="f_27-1"  format="ascii">1.0002215147630755e+00  9.9999462278211948e-01  9.9998010210932253e-01  9.9999930921164848e-01  1.0000135388459399e+00  9.9996975602988925e-01  1.0000220641423088e+00  9.9997778350080069e-01  1.0000123985351281e+00  9.9998863573967800e-01  1.0000032821660276e+00  1.0000034165686946e+00  9.9999657905706496e-01  1.0000217172971309e+00  9.9998130417316489e-01  1.0000162225005316e+00  9.9998159935190789e-01  1.0000258191256624e+00  9.9996106842521360e-01  1.0000407291234970e+00  9.9996595732489368e-01  1.0000272643000256e+00  9.9998661120082766e-01  1.0000078771151719e+00  9.9999066370535272e-01  1.0000139959619001e+00  9.9999371755607003e-01  1.0000007522494339e+00  1.0000098527300483e+00  9.9998899606713343e-01  1.0000170139925237e+00  9.9998898284031756e-01  1.0000073117899828e+00  9.9997529630602999e-01  9.9999878200749737e-01  9.9994356876668755e-01  9.9996696057328616e-01  9.9991787361400086e-01  9.9992875104564094e-01  9.9989579504236747e-01  9.9990983041978232e-01  9.9988717643010527e-01  9.9992708056903157e-01  9.9993398562032509e-01  9.9997716605848452e-01  1.0000122076945335e+00  1.0000604844507730e+00  1.0000974050380043e+00  1.0001452555985673e+00  1.0001638117692440e+00  1.0001846067178048e+00  1.0001942165221245e+00  1.0001883262969746e+00  1.0001714198652294e+00  1.0001548838159182e+00  1.0001245895033499e+00  1.0001034768730233e+00  1.0000793070925436e+00  1.0000538141838280e+00  1.0000373529324138e+00  1.0000286950948329e+00  1.0000138233411500e+00  1.0000080854923969e+00  1.0000066384870334e+00  1.0000018209248305e+00  1.0000021303947109e+00  9.9999902507756333e-01  1.0000010978086564e+00  1.0000007553656078e+00  9.9999975044196976e-01  9.9999786292951753e-01  1.0000034359826158e+00  9.9999852695396119e-01  9.9999852432311254e-01  1.0000022525886152e+00  9.9999935042385302e-01  9.9999920010412424e-01  1.0000005829194649e+00  1.0000004929935733e+00  9.9999870409599689e-01  1.0000014549503706e+00  9.9999856034841295e-01  1.0000012387134454e+00  9.9999956399565004e-01  1.0000004356121863e+00  9.9999943162129279e-01  1.0000010725978459e+00  9.9999928211946865e-01  9.9999738737683763e-01  1.0000021965485575e+00  9.9999795652665402e-01  1.0000001550835129e+00  1.0000032703539037e+00  1.0000007112035667e+00  9.9999742170109529e-01  1.0000034914920224e+00  9.9999601244080238e-01  1.0000025083918544e+00  9.9999718636573176e-01  1.0000102934753179e+00  9.9995497308665549e-01  9.9999462278211926e-01  9.9997926462135722e-01  9.9997037273787315e-01  1.0000152552997816e+00  1.0000228740741253e+00  9.9993402010133925e-01  1.0000411799672546e+00  1.0000019368723749e+00  9.9996606356887008e-01  1.0000312300399821e+00  9.9998848140172947e-01  9.9998934900254377e-01  1.0000316628673749e+00  9.9999803862833692e-01  9.9997462984251173e-01  1.0000365764781352e+00  9.9997132206980310e-01  1.0000255644048599e+00  9.9996537909307392e-01  1.0000370967208445e+00  9.9997097172723337e-01  1.0000246497285952e+00  9.9999177818806717e-01  9.9999731178508833e-01  9.9999113443958831e-01  1.0000228210801159e+00  9.9997936330534409e-01  1.0000027525899782e+00  1.0000123636664358e+00  9.9997515937748283e-01  1.0000263290290807e+00  9.9999183746118048e-01  9.9998682165653863e-01  9.9997172434098147e-01  9.9997754245336967e-01  9.9991787379505703e-01  9.9997695639838069e-01  9.9993333038709686e-01  9.9996176655549507e-01  9.9997248661029492e-01  1.0000027290317273e+00  1.0000222597601913e+00  1.0001317604228683e+00  1.0001789970723509e+00  1.0002881120080225e+00  1.0003994525445428e+00  1.0004902247288485e+00  1.0005790784439723e+00  1.0006667446243191e+00  1.0006865883792135e+00  1.0007193682287985e+00  1.0007241725700240e+00  1.0006694617442962e+00  1.0006232121099208e+00  1.0005608003863495e+00  1.0004654245937203e+00  1.0003935666933477e+00  1.0003129548036584e+00  1.0002237526985041e+00  1.0001786230631258e+00  1.0001254095704244e+00  1.0000691234841508e+00  1.0000569059622220e+00  1.0000354900590971e+00  1.0000115028778596e+00  1.0000124376479489e+00  1.0000074544883901e+00  9.9999834992106185e-01  1.0000058107027967e+00  9.9999709680013504e-01  9.9999959554617357e-01  1.0000051051545076e+00  9.9999542539375108e-01  9.9999883601236483e-01  1.0000058311303379e+00  9.9999580067879434e-01  9.9999784241044143e-01  1.0000060664250370e+00  9.9999514125011424e-01  1.0000005733176827e+00  1.0000025860174868e+00  9.9999730599233172e-01  1.0000015298674556e+00  1.0000011326272504e+00  9.9999783427029176e-01  1.0000015902168211e+00  1.0000011191409126e+00  9.9999613055017611e-01  9.9999991375449404e-01  1.0000039222773285e+00  9.9999271081174479e-01  1.0000044212054435e+00  1.0000047943403905e+00  9.9999362406630121e-01  1.0000048116182392e+00  9.9999968519867799e-01  9.9999859199346752e-01  9.9999765129188167e-01  1.0000105788562783e+00  9.9998308228682942e-01  1.0000102934753177e+00  9.9998010210932231e-01  9.9997037273787304e-01  1.0000674423914400e+00  1.0000420068582827e+00  9.9990354767820155e-01  1.0000430819780375e+00  1.0000697740943079e+00  9.9987564486546276e-01  1.0000878465864436e+00  9.9997812856250745e-01  9.9996354621233585e-01  1.0000603135655883e+00  9.9996832765411525e-01  9.9997456334174095e-01  1.0000391764929899e+00  9.9999559262179238e-01  9.9997512579676906e-01  1.0000190778172180e+00  9.9997217148716955e-01  1.0000360799280161e+00  9.9994494466826878e-01  1.0000498974170882e+00  9.9994774345990334e-01  1.0000223618667230e+00  1.0000192203244203e+00  9.9998988563719127e-01  9.9999020142506012e-01  1.0000402310392353e+00  9.9996734017205846e-01  1.0000076056661444e+00  1.0000012173389550e+00  9.9990607241604956e-01  9.9996655909383292e-01  9.9992944353240476e-01  9.9992753219975150e-01  9.9997430998480030e-01  1.0000308241501763e+00  1.0000342311612420e+00  1.0002431052162790e+00  1.0003757010154408e+00  1.0006550500588034e+00  1.0010098498582196e+00  1.0013798505084510e+00  1.0017527942542965e+00  1.0022316501641741e+00  1.0025819139632242e+00  1.0029543532475569e+00  1.0032826816070874e+00  1.0034866026030365e+00  1.0036362337061602e+00  1.0037199190505914e+00  1.0036139497139103e+00  1.0034762205257008e+00  1.0032576416513255e+00  1.0029127858269498e+00  1.0025599477398774e+00  1.0021837196318499e+00  1.0017604532833893e+00  1.0014192872933743e+00  1.0010838775239173e+00  1.0007651401374389e+00  1.0005631072589340e+00  1.0003860828046156e+00  1.0002237304626838e+00  1.0001525701698903e+00  1.0000963771816704e+00  1.0000362953983304e+00  1.0000324997896253e+00  1.0000109177163479e+00  1.0000025074190677e+00  1.0000096648079539e+00  9.9999632589931842e-01  9.9999567298193959e-01  1.0000119170619943e+00  9.9999298386424418e-01  9.9999487085719918e-01  1.0000127395407363e+00  9.9999198789160459e-01  9.9999846393209679e-01  1.0000072153930464e+00  9.9999490483294862e-01  9.9999909884532423e-01  1.0000052040801739e+00  9.9999296097398072e-01  1.0000038319450997e+00  1.0000018789413936e+00  9.9999391323087061e-01  1.0000032085424209e+00  1.0000045831496298e+00  9.9999039778826915e-01  1.0000037395501060e+00  1.0000076891327443e+00  9.9998819089741620e-01  1.0000076380066438e+00  1.0000020070851505e+00  9.9999590257755822e-01  9.9999699834040656e-01  1.0000116610161764e+00  9.9998339778109480e-01  1.0000105788562783e+00  9.9999718636573176e-01  9.9999930921164848e-01  1.0000152552997816e+00  1.0000420068582825e+00  9.9983399902727421e-01  1.0000590844824659e+00  1.0000900292421613e+00  9.9982786413121472e-01  1.0000875205423176e+00  1.0000394256853706e+00  9.9989642582466653e-01  1.0001075984565728e+00  9.9995418934387459e-01  9.9996411264870444e-01  1.0000835005848359e+00  9.9996473719719126e-01  9.9998847522473200e-01  1.0000055020548686e+00  1.0000128549055880e+00  9.9998912421158659e-01  9.9999771948090110e-01  9.9999444018679085e-01  1.0000264957740801e+00  9.9996228826661981e-01  1.0000728314694811e+00  9.9993907181550112e-01  1.0000016403378333e+00  1.0000286011256729e+00  9.9995145254682594e-01  9.9996684124235979e-01  9.9998362104171523e-01  9.9988541704882172e-01  9.9995654710178195e-01  9.9999931610742088e-01  9.9996159584459154e-01  1.0001680597129192e+00  1.0003205733095204e+00  1.0006191309429791e+00  1.0011499430867363e+00  1.0018085622244721e+00  1.0025450498237576e+00  1.0035806341133051e+00  1.0045475133631494e+00  1.0056630123174053e+00  1.0068628978538332e+00  1.0079814749498028e+00  1.0090273916505457e+00  1.0100644551475879e+00  1.0108104498839228e+00  1.0114251244338734e+00  1.0118281895765380e+00  1.0118845391017153e+00  1.0117543884937579e+00  1.0114095529891478e+00  1.0107280011928532e+00  1.0099131879694274e+00  1.0089506749786392e+00  1.0078034700725615e+00  1.0066703516300315e+00  1.0055111002833625e+00  1.0043540980652783e+00  1.0033891420490644e+00  1.0025186444785172e+00  1.0017508169500748e+00  1.0012174834722487e+00  1.0008082418302358e+00  1.0004700071484900e+00  1.0002974738243795e+00  1.0001664352826469e+00  1.0000790424168449e+00  1.0000509376043032e+00  1.0000164119459807e+00  1.0000025509187414e+00  1.0000181586576815e+00  9.9999275847846025e-01  9.9999187340897311e-01  1.0000188982121974e+00  9.9998835672903053e-01  9.9999509276500198e-01  1.0000125252961065e+00  9.9999259684172515e-01  9.9999623044721064e-01  1.0000101856893153e+00  9.9999174882149233e-01  1.0000023157466646e+00  1.0000072357465120e+00  9.9998916642299873e-01  1.0000060796243091e+00  1.0000057872821342e+00  9.9998418248917109e-01  1.0000077427994827e+00  1.0000061703554182e+00  9.9998501569083931e-01  1.0000101642077597e+00  1.0000051254920654e+00  9.9999220922306808e-01  9.9999972229551615e-01  1.0000123392391820e+00  9.9998456941363967e-01  1.0000116610161758e+00  9.9999765129188090e-01  1.0000025083918538e+00  1.0000135388459395e+00  1.0000228740741250e+00  9.9990354767820133e-01  1.0000590844824657e+00  1.0001633869712632e+00  9.9977850251627953e-01  1.0001146888067709e+00  1.0000746058773373e+00  9.9985542355886248e-01  1.0000979604157441e+00  9.9998939283202060e-01  9.9991562364741016e-01  1.0001162556656673e+00  9.9992779509956864e-01  9.9996802501624016e-01  1.0000494481309476e+00  9.9997949963449784e-01  1.0000163145890943e+00  9.9995501187977609e-01  1.0000392813129246e+00  9.9998022046684953e-01  1.0000026127831241e+00  1.0000006343096515e+00  9.9999834780437935e-01  9.9994870037647654e-01  1.0000845992016019e+00  9.9991208859537117e-01  9.9996597986552860e-01  9.9998151067895369e-01  9.9989598513540345e-01  9.9999209285170987e-01  1.0001047182639267e+00  1.0002075247602769e+00  1.0006564514571563e+00  1.0012852399452146e+00  1.0020828324045588e+00  1.0034167492125257e+00  1.0048820903492763e+00  1.0066664733994326e+00  1.0087985866803810e+00  1.0110871284304168e+00  1.0134586139186919e+00  1.0160609600573662e+00  1.0183974401870954e+00  1.0206476702705500e+00  1.0227199199727082e+00  1.0244050665441622e+00  1.0257553761117557e+00  1.0268370291427071e+00  1.0273801541155136e+00  1.0276352442130514e+00  1.0275070350392028e+00  1.0268540249091505e+00  1.0258715002829275e+00  1.0245479912377897e+00  1.0227483631660435e+00  1.0207205748213926e+00  1.0184253925933784e+00  1.0158993014150297e+00  1.0134038927607443e+00  1.0109118065149683e+00  1.0085063432702610e+00  1.0064580815352622e+00  1.0046932414910503e+00  1.0032009269632698e+00  1.0021411112922065e+00  1.0013534299883282e+00  1.0007893146174802e+00  1.0004593138193310e+00  1.0002426775160371e+00  1.0001128118808991e+00  1.0000735462283921e+00  1.0000150205199334e+00  1.0000009499354661e+00  1.0000262798386055e+00  9.9998812858537356e-01  9.9999214252745683e-01  1.0000195888022636e+00  9.9999089724830714e-01  9.9999247930022994e-01  1.0000160090909576e+00  9.9998972802718533e-01  9.9999854460624793e-01  1.0000100348531580e+00  9.9998726519375170e-01  1.0000032783516064e+00  1.0000108173655571e+00  9.9997933831673569e-01  1.0000119588886125e+00  1.0000089022206782e+00  9.9997863778729335e-01  1.0000148545099770e+00  1.0000046493669807e+00  9.9998769021612677e-01  1.0000023216155578e+00  1.0000136269282824e+00  9.9998145451378484e-01  1.0000123392391826e+00  9.9999699834040567e-01  9.9999859199346797e-01  9.9999601244080205e-01  9.9996975602988925e-01  9.9993402010133892e-01  1.0000430819780379e+00  1.0000900292421615e+00  9.9977850251627942e-01  1.0000552077574887e+00  1.0001238027286958e+00  9.9979188722911072e-01  1.0001049792066030e+00  1.0000287635806762e+00  9.9990354234793721e-01  1.0001200155948062e+00  9.9994465585984171e-01  9.9995243800175126e-01  1.0001056456653641e+00  9.9996294900358529e-01  1.0000036230687166e+00  9.9999778793268301e-01  1.0000079912621898e+00  1.0000357242292410e+00  9.9994955335990388e-01  1.0000510717254911e+00  9.9996891248080211e-01  1.0000007197333405e+00  1.0000154882777392e+00  9.9993857296979238e-01  9.9988518267336002e-01  1.0000180092291313e+00  9.9990569761551840e-01  1.0001245257324485e+00  1.0004402973339874e+00  1.0008953901365649e+00  1.0019081257343103e+00  1.0032973218359167e+00  1.0050910949669465e+00  1.0075971544852609e+00  1.0105439893745503e+00  1.0138495091480160e+00  1.0177522318302672e+00  1.0216693938956465e+00  1.0256485720088153e+00  1.0295662172582900e+00  1.0331080456459392e+00  1.0362413924176672e+00  1.0391577866990396e+00  1.0414403290692824e+00  1.0433628661476417e+00  1.0449196475037623e+00  1.0459521472670257e+00  1.0466257453095069e+00  1.0469749714223451e+00  1.0467631401356325e+00  1.0462631961620767e+00  1.0453930666827371e+00  1.0439552299611718e+00  1.0421425295083717e+00  1.0398676601838897e+00  1.0370127913628389e+00  1.0337836049753764e+00  1.0300959599545088e+00  1.0260188694830910e+00  1.0218927317140907e+00  1.0177502066569479e+00  1.0137384771183284e+00  1.0102622084891835e+00  1.0072943033876640e+00  1.0048898040269059e+00  1.0031425967529499e+00  1.0019094237479751e+00  1.0010759555874857e+00  1.0006008284277430e+00  1.0002875167986318e+00  1.0001300195527181e+00  1.0000865111187640e+00  1.0000091784827334e+00  9.9999935690673414e-01  1.0000264762989162e+00  9.9999018419718644e-01  9.9998665234827722e-01  1.0000223733782154e+00  9.9998779466840537e-01  9.9999421723655524e-01  1.0000154636778746e+00  9.9998759010765437e-01  1.0000019300814182e+00  1.0000144213710072e+00  9.9997965100670716e-01  1.0000104859630230e+00  1.0000117779270372e+00  9.9997210669224890e-01  1.0000156726020974e+00  1.0000066796582570e+00  9.9998103142687322e-01  1.0000081526219238e+00  1.0000155247431615e+00  9.9997826472287177e-01  1.0000136269282824e+00  9.9999972229551537e-01  9.9999590257755799e-01  9.9999968519867766e-01  1.0000034914920226e+00  1.0000220641423083e+00  1.0000411799672546e+00  1.0000697740943079e+00  9.9982786413121483e-01  1.0001146888067709e+00  1.0001238027286963e+00  9.9983679861135866e-01  1.0000720253894813e+00  1.0000909995777452e+00  9.9986537347062487e-01  1.0001088351972205e+00  9.9995607934385222e-01  9.9994282491721764e-01  1.0001062394112636e+00  9.9993540364795608e-01  9.9997134618399819e-01  1.0000318255507090e+00  9.9999449880323754e-01  1.0000147217278788e+00  9.9996950489029834e-01  9.9999100898952586e-01  1.0000290593491450e+00  9.9992169893200422e-01  1.0000307277129059e+00  9.9988097353498628e-01  9.9993551308543205e-01  1.0000265237285166e+00  1.0001041166438494e+00  1.0004328790926786e+00  1.0012172174834459e+00  1.0022422800419406e+00  1.0041526772408040e+00  1.0067269487303743e+00  1.0099737752446001e+00  1.0142112002010366e+00  1.0189956947450953e+00  1.0241519029458812e+00  1.0296392687192450e+00  1.0349113182811922e+00  1.0397070054135020e+00  1.0441918623122197e+00  1.0478512932478097e+00  1.0509333258415134e+00  1.0534902512716535e+00  1.0553661648748609e+00  1.0566963362549187e+00  1.0577858576912116e+00  1.0583392585849478e+00  1.0587329697635111e+00  1.0589702812573198e+00  1.0589517985581796e+00  1.0588798378572584e+00  1.0587691584380154e+00  1.0583254991921554e+00  1.0577973686472952e+00  1.0570260761023975e+00  1.0557929312849068e+00  1.0541762924293956e+00  1.0519789621994224e+00  1.0490269328555171e+00  1.0454548918354318e+00  1.0410873053058589e+00  1.0359494945585519e+00  1.0304665369154653e+00  1.0247472325893510e+00  1.0191138957834549e+00  1.0140735099189260e+00  1.0098054487174379e+00  1.0064090984654883e+00  1.0039787047665703e+00  1.0022977971770519e+00  1.0012433633102567e+00  1.0006621215245934e+00  1.0002865894079520e+00  1.0001219904812191e+00  1.0000819252165627e+00  1.0000068841416452e+00  9.9999075529601522e-01  1.0000302919649748e+00  9.9998895888457917e-01  9.9998866358685767e-01  1.0000220202056154e+00  9.9998699399925428e-01  9.9999653049849768e-01  1.0000168044424409e+00  9.9997811665357506e-01  1.0000085800055356e+00  1.0000121080504929e+00  9.9997264211113468e-01  1.0000159291022059e+00  1.0000107995196097e+00  9.9997686325334034e-01  1.0000103593862859e+00  1.0000178847178856e+00  9.9997141605893392e-01  1.0000155247431615e+00  1.0000023216155574e+00  9.9999220922306842e-01  1.0000020070851514e+00  1.0000048116182396e+00  9.9999742170109518e-01  9.9997778350080035e-01  1.0000019368723749e+00  9.9987564486546243e-01  1.0000875205423172e+00  1.0000746058773373e+00  9.9979188722911072e-01  1.0000720253894819e+00  1.0000482902101797e+00  9.9987797630161934e-01  1.0000635741190891e+00  1.0000018771492660e+00  9.9994697542890676e-01  1.0001057218167955e+00  9.9992906231858203e-01  9.9997854475097558e-01  1.0000706174825145e+00  9.9998975389925504e-01  1.0000050469869224e+00  9.9999107431378509e-01  9.9999347062044253e-01  1.0000268305316722e+00  9.9994907237389852e-01  9.9995931682260575e-01  9.9996390423834869e-01  9.9991119295316444e-01  1.0001737359010245e+00  1.0003462481511138e+00  1.0011077010526783e+00  1.0024433861100943e+00  1.0044883882663951e+00  1.0075966168784862e+00  1.0118495017833633e+00  1.0169189347212542e+00  1.0230610370047668e+00  1.0295781152267751e+00  1.0360120441920924e+00  1.0422492050552861e+00  1.0476137230375282e+00  1.0519830577508245e+00  1.0554813668828489e+00  1.0579048216616909e+00  1.0593535992526009e+00  1.0602573034448568e+00  1.0603585939134166e+00  1.0601227378031275e+00  1.0597537053740282e+00  1.0591960595431504e+00  1.0586417849500152e+00  1.0583146441771021e+00  1.0579387523243560e+00  1.0578167252818276e+00  1.0578787086075034e+00  1.0579400136187520e+00  1.0582088772108236e+00  1.0586382365099627e+00  1.0589607205463747e+00  1.0593430568107158e+00  1.0596066951094274e+00  1.0595289561715509e+00  1.0591239386114359e+00  1.0580712869762654e+00  1.0560872911578656e+00  1.0532196709670287e+00  1.0491288251093320e+00  1.0437650744657636e+00  1.0374882844074875e+00  1.0305893636942882e+00  1.0235431369328651e+00  1.0170931926457780e+00  1.0116067512546123e+00  1.0073584450455002e+00  1.0043834384354624e+00  1.0023939316545425e+00  1.0012255713095815e+00  1.0006188954586914e+00  1.0002447171736955e+00  1.0000857421546490e+00  1.0000724023630800e+00  9.9999821206035133e-01  9.9998711401691742e-01  1.0000267369113514e+00  9.9998854554046668e-01  9.9998902491559649e-01  1.0000227500429888e+00  9.9998019256472404e-01  1.0000065018137341e+00  1.0000158617869019e+00  9.9997363231006908e-01  1.0000167582970547e+00  1.0000094123423102e+00  9.9997422260790081e-01  1.0000086799316172e+00  1.0000188324401367e+00  9.9996719704506865e-01  1.0000178847178853e+00  1.0000081526219236e+00  9.9998769021612677e-01  1.0000051254920643e+00  1.0000076380066436e+00  9.9999362406630077e-01  1.0000007112035669e+00  1.0000123985351290e+00  9.9996606356887063e-01  1.0000878465864436e+00  1.0000394256853709e+00  9.9985542355886226e-01  1.0001049792066030e+00  1.0000909995777449e+00  9.9987797630161956e-01  1.0001011507136075e+00  9.9998471318978532e-01  9.9997099940966117e-01  1.0000671157375327e+00  9.9992427289312269e-01  9.9998807226697695e-01  1.0000686421833971e+00  9.9995085125050531e-01  9.9998302525478089e-01  1.0000081276053658e+00  9.9997609861688574e-01  1.0000205876479842e+00  9.9992595626141800e-01  9.9993869426589