<?xml version="1.0"?>
<VTKFile type="UnstructuredGrid"  version="0.1"  >
<UnstructuredGrid>
<Piece  NumberOfPoints="10201" NumberOfCells="20000">
<Points>
<DataArray  type="Float64"  NumberOfComponents="3"  format="ascii">-5 -5 0  -4.9 -5 0  -4.8 -5 0  -4.7 -5 0  -4.6 -5 0  -4.5 -5 0  -4.4 -5 0  -4.3 -5 0  -4.2 -5 0  -4.1 -5 0  -4 -5 0  -3.9 -5 0  -3.8 -5 0  -3.7 -5 0  -3.6 -5 0  -3.5 -5 0  -3.4 -5 0  -3.3 -5 0  -3.2 -5 0  -3.1 -5 0  -3 -5 0  -2.9 -5 0  -2.8 -5 0  -2.7 -5 0  -2.6 -5 0  -2.5 -5 0  -2.4 -5 0  -2.3 -5 0  -2.2 -5 0  -2.1 -5 0  -2 -5 0  -1.9 -5 0  -1.8 -5 0  -1.7 -5 0  -1.6 -5 0  -1.5 -5 0  -1.4 -5 0  -1.3 -5 0  -1.2 -5 0  -1.1 -5 0  -1 -5 0  -0.9000000000000004 -5 0  -0.7999999999999998 -5 0  -0.7000000000000002 -5 0  -0.5999999999999996 -5 0  -0.5 -5 0  -0.4000000000000004 -5 0  -0.2999999999999998 -5 0  -0.2000000000000002 -5 0  -0.09999999999999964 -5 0  0 -5 0  0.09999999999999964 -5 0  0.2000000000000002 -5 0  0.2999999999999998 -5 0  0.4000000000000004 -5 0  0.5 -5 0  0.5999999999999996 -5 0  0.7000000000000002 -5 0  0.7999999999999998 -5 0  0.9000000000000004 -5 0  1 -5 0  1.1 -5 0  1.2 -5 0  1.3 -5 0  1.4 -5 0  1.5 -5 0  1.6 -5 0  1.7 -5 0  1.8 -5 0  1.9 -5 0  2 -5 0  2.1 -5 0  2.2 -5 0  2.3 -5 0  2.4 -5 0  2.5 -5 0  2.6 -5 0  2.7 -5 0  2.8 -5 0  2.9 -5 0  3 -5 0  3.1 -5 0  3.199999999999999 -5 0  3.300000000000001 -5 0  3.4 -5 0  3.5 -5 0  3.6 -5 0  3.699999999999999 -5 0  3.800000000000001 -5 0  3.9 -5 0  4 -5 0  4.1 -5 0  4.199999999999999 -5 0  4.300000000000001 -5 0  4.4 -5 0  4.5 -5 0  4.6 -5 0  4.699999999999999 -5 0  4.800000000000001 -5 0  4.9 -5 0  5 -5 0  -5 -4.9 0  -4.9 -4.9 0  -4.8 -4.9 0  -4.7 -4.9 0  -4.6 -4.9 0  -4.5 -4.9 0  -4.4 -4.9 0  -4.3 -4.9 0  -4.2 -4.9 0  -4.1 -4.9 0  -4 -4.9 0  -3.9 -4.9 0  -3.8 -4.9 0  -3.7 -4.9 0  -3.6 -4.9 0  -3.5 -4.9 0  -3.4 -4.9 0  -3.3 -4.9 0  -3.2 -4.9 0  -3.1 -4.9 0  -3 -4.9 0  -2.9 -4.9 0  -2.8 -4.9 0  -2.7 -4.9 0  -2.6 -4.9 0  -2.5 -4.9 0  -2.4 -4.9 0  -2.3 -4.9 0  -2.2 -4.9 0  -2.1 -4.9 0  -2 -4.9 0  -1.9 -4.9 0  -1.8 -4.9 0  -1.7 -4.9 0  -1.6 -4.9 0  -1.5 -4.9 0  -1.4 -4.9 0  -1.3 -4.9 0  -1.2 -4.9 0  -1.1 -4.9 0  -1 -4.9 0  -0.9000000000000004 -4.9 0  -0.7999999999999998 -4.9 0  -0.7000000000000002 -4.9 0  -0.5999999999999996 -4.9 0  -0.5 -4.9 0  -0.4000000000000004 -4.9 0  -0.2999999999999998 -4.9 0  -0.2000000000000002 -4.9 0  -0.09999999999999964 -4.9 0  0 -4.9 0  0.09999999999999964 -4.9 0  0.2000000000000002 -4.9 0  0.2999999999999998 -4.9 0  0.4000000000000004 -4.9 0  0.5 -4.9 0  0.5999999999999996 -4.9 0  0.7000000000000002 -4.9 0  0.7999999999999998 -4.9 0  0.9000000000000004 -4.9 0  1 -4.9 0  1.1 -4.9 0  1.2 -4.9 0  1.3 -4.9 0  1.4 -4.9 0  1.5 -4.9 0  1.6 -4.9 0  1.7 -4.9 0  1.8 -4.9 0  1.9 -4.9 0  2 -4.9 0  2.1 -4.9 0  2.2 -4.9 0  2.3 -4.9 0  2.4 -4.9 0  2.5 -4.9 0  2.6 -4.9 0  2.7 -4.9 0  2.8 -4.9 0  2.9 -4.9 0  3 -4.9 0  3.1 -4.9 0  3.199999999999999 -4.9 0  3.300000000000001 -4.9 0  3.4 -4.9 0  3.5 -4.9 0  3.6 -4.9 0  3.699999999999999 -4.9 0  3.800000000000001 -4.9 0  3.9 -4.9 0  4 -4.9 0  4.1 -4.9 0  4.199999999999999 -4.9 0  4.300000000000001 -4.9 0  4.4 -4.9 0  4.5 -4.9 0  4.6 -4.9 0  4.699999999999999 -4.9 0  4.800000000000001 -4.9 0  4.9 -4.9 0  5 -4.9 0  -5 -4.8 0  -4.9 -4.8 0  -4.8 -4.8 0  -4.7 -4.8 0  -4.6 -4.8 0  -4.5 -4.8 0  -4.4 -4.8 0  -4.3 -4.8 0  -4.2 -4.8 0  -4.1 -4.8 0  -4 -4.8 0  -3.9 -4.8 0  -3.8 -4.8 0  -3.7 -4.8 0  -3.6 -4.8 0  -3.5 -4.8 0  -3.4 -4.8 0  -3.3 -4.8 0  -3.2 -4.8 0  -3.1 -4.8 0  -3 -4.8 0  -2.9 -4.8 0  -2.8 -4.8 0  -2.7 -4.8 0  -2.6 -4.8 0  -2.5 -4.8 0  -2.4 -4.8 0  -2.3 -4.8 0  -2.2 -4.8 0  -2.1 -4.8 0  -2 -4.8 0  -1.9 -4.8 0  -1.8 -4.8 0  -1.7 -4.8 0  -1.6 -4.8 0  -1.5 -4.8 0  -1.4 -4.8 0  -1.3 -4.8 0  -1.2 -4.8 0  -1.1 -4.8 0  -1 -4.8 0  -0.9000000000000004 -4.8 0  -0.7999999999999998 -4.8 0  -0.7000000000000002 -4.8 0  -0.5999999999999996 -4.8 0  -0.5 -4.8 0  -0.4000000000000004 -4.8 0  -0.2999999999999998 -4.8 0  -0.2000000000000002 -4.8 0  -0.09999999999999964 -4.8 0  0 -4.8 0  0.09999999999999964 -4.8 0  0.2000000000000002 -4.8 0  0.2999999999999998 -4.8 0  0.4000000000000004 -4.8 0  0.5 -4.8 0  0.5999999999999996 -4.8 0  0.7000000000000002 -4.8 0  0.7999999999999998 -4.8 0  0.9000000000000004 -4.8 0  1 -4.8 0  1.1 -4.8 0  1.2 -4.8 0  1.3 -4.8 0  1.4 -4.8 0  1.5 -4.8 0  1.6 -4.8 0  1.7 -4.8 0  1.8 -4.8 0  1.9 -4.8 0  2 -4.8 0  2.1 -4.8 0  2.2 -4.8 0  2.3 -4.8 0  2.4 -4.8 0  2.5 -4.8 0  2.6 -4.8 0  2.7 -4.8 0  2.8 -4.8 0  2.9 -4.8 0  3 -4.8 0  3.1 -4.8 0  3.199999999999999 -4.8 0  3.300000000000001 -4.8 0  3.4 -4.8 0  3.5 -4.8 0  3.6 -4.8 0  3.699999999999999 -4.8 0  3.800000000000001 -4.8 0  3.9 -4.8 0  4 -4.8 0  4.1 -4.8 0  4.199999999999999 -4.8 0  4.300000000000001 -4.8 0  4.4 -4.8 0  4.5 -4.8 0  4.6 -4.8 0  4.699999999999999 -4.8 0  4.800000000000001 -4.8 0  4.9 -4.8 0  5 -4.8 0  -5 -4.7 0  -4.9 -4.7 0  -4.8 -4.7 0  -4.7 -4.7 0  -4.6 -4.7 0  -4.5 -4.7 0  -4.4 -4.7 0  -4.3 -4.7 0  -4.2 -4.7 0  -4.1 -4.7 0  -4 -4.7 0  -3.9 -4.7 0  -3.8 -4.7 0  -3.7 -4.7 0  -3.6 -4.7 0  -3.5 -4.7 0  -3.4 -4.7 0  -3.3 -4.7 0  -3.2 -4.7 0  -3.1 -4.7 0  -3 -4.7 0  -2.9 -4.7 0  -2.8 -4.7 0  -2.7 -4.7 0  -2.6 -4.7 0  -2.5 -4.7 0  -2.4 -4.7 0  -2.3 -4.7 0  -2.2 -4.7 0  -2.1 -4.7 0  -2 -4.7 0  -1.9 -4.7 0  -1.8 -4.7 0  -1.7 -4.7 0  -1.6 -4.7 0  -1.5 -4.7 0  -1.4 -4.7 0  -1.3 -4.7 0  -1.2 -4.7 0  -1.1 -4.7 0  -1 -4.7 0  -0.9000000000000004 -4.7 0  -0.7999999999999998 -4.7 0  -0.7000000000000002 -4.7 0  -0.5999999999999996 -4.7 0  -0.5 -4.7 0  -0.4000000000000004 -4.7 0  -0.2999999999999998 -4.7 0  -0.2000000000000002 -4.7 0  -0.09999999999999964 -4.7 0  0 -4.7 0  0.09999999999999964 -4.7 0  0.2000000000000002 -4.7 0  0.2999999999999998 -4.7 0  0.4000000000000004 -4.7 0  0.5 -4.7 0  0.5999999999999996 -4.7 0  0.7000000000000002 -4.7 0  0.7999999999999998 -4.7 0  0.9000000000000004 -4.7 0  1 -4.7 0  1.1 -4.7 0  1.2 -4.7 0  1.3 -4.7 0  1.4 -4.7 0  1.5 -4.7 0  1.6 -4.7 0  1.7 -4.7 0  1.8 -4.7 0  1.9 -4.7 0  2 -4.7 0  2.1 -4.7 0  2.2 -4.7 0  2.3 -4.7 0  2.4 -4.7 0  2.5 -4.7 0  2.6 -4.7 0  2.7 -4.7 0  2.8 -4.7 0  2.9 -4.7 0  3 -4.7 0  3.1 -4.7 0  3.199999999999999 -4.7 0  3.300000000000001 -4.7 0  3.4 -4.7 0  3.5 -4.7 0  3.6 -4.7 0  3.699999999999999 -4.7 0  3.800000000000001 -4.7 0  3.9 -4.7 0  4 -4.7 0  4.1 -4.7 0  4.199999999999999 -4.7 0  4.300000000000001 -4.7 0  4.4 -4.7 0  4.5 -4.7 0  4.6 -4.7 0  4.699999999999999 -4.7 0  4.800000000000001 -4.7 0  4.9 -4.7 0  5 -4.7 0  -5 -4.6 0  -4.9 -4.6 0  -4.8 -4.6 0  -4.7 -4.6 0  -4.6 -4.6 0  -4.5 -4.6 0  -4.4 -4.6 0  -4.3 -4.6 0  -4.2 -4.6 0  -4.1 -4.6 0  -4 -4.6 0  -3.9 -4.6 0  -3.8 -4.6 0  -3.7 -4.6 0  -3.6 -4.6 0  -3.5 -4.6 0  -3.4 -4.6 0  -3.3 -4.6 0  -3.2 -4.6 0  -3.1 -4.6 0  -3 -4.6 0  -2.9 -4.6 0  -2.8 -4.6 0  -2.7 -4.6 0  -2.6 -4.6 0  -2.5 -4.6 0  -2.4 -4.6 0  -2.3 -4.6 0  -2.2 -4.6 0  -2.1 -4.6 0  -2 -4.6 0  -1.9 -4.6 0  -1.8 -4.6 0  -1.7 -4.6 0  -1.6 -4.6 0  -1.5 -4.6 0  -1.4 -4.6 0  -1.3 -4.6 0  -1.2 -4.6 0  -1.1 -4.6 0  -1 -4.6 0  -0.9000000000000004 -4.6 0  -0.7999999999999998 -4.6 0  -0.7000000000000002 -4.6 0  -0.5999999999999996 -4.6 0  -0.5 -4.6 0  -0.4000000000000004 -4.6 0  -0.2999999999999998 -4.6 0  -0.2000000000000002 -4.6 0  -0.09999999999999964 -4.6 0  0 -4.6 0  0.09999999999999964 -4.6 0  0.2000000000000002 -4.6 0  0.2999999999999998 -4.6 0  0.4000000000000004 -4.6 0  0.5 -4.6 0  0.5999999999999996 -4.6 0  0.7000000000000002 -4.6 0  0.7999999999999998 -4.6 0  0.9000000000000004 -4.6 0  1 -4.6 0  1.1 -4.6 0  1.2 -4.6 0  1.3 -4.6 0  1.4 -4.6 0  1.5 -4.6 0  1.6 -4.6 0  1.7 -4.6 0  1.8 -4.6 0  1.9 -4.6 0  2 -4.6 0  2.1 -4.6 0  2.2 -4.6 0  2.3 -4.6 0  2.4 -4.6 0  2.5 -4.6 0  2.6 -4.6 0  2.7 -4.6 0  2.8 -4.6 0  2.9 -4.6 0  3 -4.6 0  3.1 -4.6 0  3.199999999999999 -4.6 0  3.300000000000001 -4.6 0  3.4 -4.6 0  3.5 -4.6 0  3.6 -4.6 0  3.699999999999999 -4.6 0  3.800000000000001 -4.6 0  3.9 -4.6 0  4 -4.6 0  4.1 -4.6 0  4.199999999999999 -4.6 0  4.300000000000001 -4.6 0  4.4 -4.6 0  4.5 -4.6 0  4.6 -4.6 0  4.699999999999999 -4.6 0  4.800000000000001 -4.6 0  4.9 -4.6 0  5 -4.6 0  -5 -4.5 0  -4.9 -4.5 0  -4.8 -4.5 0  -4.7 -4.5 0  -4.6 -4.5 0  -4.5 -4.5 0  -4.4 -4.5 0  -4.3 -4.5 0  -4.2 -4.5 0  -4.1 -4.5 0  -4 -4.5 0  -3.9 -4.5 0  -3.8 -4.5 0  -3.7 -4.5 0  -3.6 -4.5 0  -3.5 -4.5 0  -3.4 -4.5 0  -3.3 -4.5 0  -3.2 -4.5 0  -3.1 -4.5 0  -3 -4.5 0  -2.9 -4.5 0  -2.8 -4.5 0  -2.7 -4.5 0  -2.6 -4.5 0  -2.5 -4.5 0  -2.4 -4.5 0  -2.3 -4.5 0  -2.2 -4.5 0  -2.1 -4.5 0  -2 -4.5 0  -1.9 -4.5 0  -1.8 -4.5 0  -1.7 -4.5 0  -1.6 -4.5 0  -1.5 -4.5 0  -1.4 -4.5 0  -1.3 -4.5 0  -1.2 -4.5 0  -1.1 -4.5 0  -1 -4.5 0  -0.9000000000000004 -4.5 0  -0.7999999999999998 -4.5 0  -0.7000000000000002 -4.5 0  -0.5999999999999996 -4.5 0  -0.5 -4.5 0  -0.4000000000000004 -4.5 0  -0.2999999999999998 -4.5 0  -0.2000000000000002 -4.5 0  -0.09999999999999964 -4.5 0  0 -4.5 0  0.09999999999999964 -4.5 0  0.2000000000000002 -4.5 0  0.2999999999999998 -4.5 0  0.4000000000000004 -4.5 0  0.5 -4.5 0  0.5999999999999996 -4.5 0  0.7000000000000002 -4.5 0  0.7999999999999998 -4.5 0  0.9000000000000004 -4.5 0  1 -4.5 0  1.1 -4.5 0  1.2 -4.5 0  1.3 -4.5 0  1.4 -4.5 0  1.5 -4.5 0  1.6 -4.5 0  1.7 -4.5 0  1.8 -4.5 0  1.9 -4.5 0  2 -4.5 0  2.1 -4.5 0  2.2 -4.5 0  2.3 -4.5 0  2.4 -4.5 0  2.5 -4.5 0  2.6 -4.5 0  2.7 -4.5 0  2.8 -4.5 0  2.9 -4.5 0  3 -4.5 0  3.1 -4.5 0  3.199999999999999 -4.5 0  3.300000000000001 -4.5 0  3.4 -4.5 0  3.5 -4.5 0  3.6 -4.5 0  3.699999999999999 -4.5 0  3.800000000000001 -4.5 0  3.9 -4.5 0  4 -4.5 0  4.1 -4.5 0  4.199999999999999 -4.5 0  4.300000000000001 -4.5 0  4.4 -4.5 0  4.5 -4.5 0  4.6 -4.5 0  4.699999999999999 -4.5 0  4.800000000000001 -4.5 0  4.9 -4.5 0  5 -4.5 0  -5 -4.4 0  -4.9 -4.4 0  -4.8 -4.4 0  -4.7 -4.4 0  -4.6 -4.4 0  -4.5 -4.4 0  -4.4 -4.4 0  -4.3 -4.4 0  -4.2 -4.4 0  -4.1 -4.4 0  -4 -4.4 0  -3.9 -4.4 0  -3.8 -4.4 0  -3.7 -4.4 0  -3.6 -4.4 0  -3.5 -4.4 0  -3.4 -4.4 0  -3.3 -4.4 0  -3.2 -4.4 0  -3.1 -4.4 0  -3 -4.4 0  -2.9 -4.4 0  -2.8 -4.4 0  -2.7 -4.4 0  -2.6 -4.4 0  -2.5 -4.4 0  -2.4 -4.4 0  -2.3 -4.4 0  -2.2 -4.4 0  -2.1 -4.4 0  -2 -4.4 0  -1.9 -4.4 0  -1.8 -4.
[...]
<PointData  Scalars="f_27-1"> 
<DataArray  type="Float64"  Name="f_27-1"  format="ascii">1.0000477999559541e+00  1.0000362867361299e+00  9.9998935823524260e-01  9.9998359460961161e-01  1.0000283193561419e+00  9.9996229571364981e-01  1.0000242065345319e+00  9.9997996038713233e-01  1.0000081157203313e+00  9.9999297147642918e-01  1.0000001850601035e+00  9.9999886993193743e-01  1.0000018856971693e+00  1.0000146873822482e+00  9.9999479541516523e-01  1.0000074795726925e+00  9.9998351556568055e-01  1.0000281730920828e+00  9.9995898939462113e-01  1.0000413968115425e+00  9.9996394245499565e-01  1.0000256880216905e+00  9.9998539529356634e-01  1.0000142357652162e+00  9.9998431555259937e-01  1.0000183400954126e+00  9.9998933149493441e-01  1.0000048711417866e+00  1.0000080943661702e+00  9.9999042431162455e-01  1.0000068300919274e+00  9.9998112502879832e-01  9.9998981960288646e-01  9.9995125499471660e-01  9.9996386889741362e-01  9.9990111950407756e-01  9.9992165462311633e-01  9.9987912237260457e-01  9.9990742416069966e-01  9.9990169880117086e-01  9.9996686288677394e-01  1.0000044896173976e+00  1.0001239911991944e+00  1.0002167342197370e+00  1.0003558432937987e+00  1.0004838597011281e+00  1.0006244247656442e+00  1.0007334202866158e+00  1.0008392740712628e+00  1.0008913558147783e+00  1.0009226819512143e+00  1.0009157810815208e+00  1.0008705590571869e+00  1.0007931041110329e+00  1.0007048734394581e+00  1.0005931311806155e+00  1.0004873479991854e+00  1.0003827289970080e+00  1.0002839967260411e+00  1.0002061417517818e+00  1.0001465537262355e+00  1.0000919732379363e+00  1.0000577598331080e+00  1.0000383043929268e+00  1.0000188699157819e+00  1.0000111063900896e+00  1.0000046341288913e+00  1.0000039306218613e+00  1.0000010264844743e+00  1.0000000562795295e+00  9.9999905171526637e-01  1.0000029938512147e+00  9.9999822528586713e-01  9.9999866883116439e-01  1.0000028803836241e+00  9.9999874072776984e-01  9.9999894515867860e-01  1.0000012579416555e+00  1.0000003481782254e+00  9.9999821657219679e-01  1.0000018040277154e+00  9.9999893824260122e-01  1.0000005823979763e+00  1.0000001051007310e+00  1.0000001708846271e+00  9.9999952145028392e-01  1.0000006457306696e+00  9.9999919780251534e-01  9.9999733147492209e-01  1.0000026345138746e+00  9.9999811194163790e-01  1.0000009079229528e+00  1.0000031718472513e+00  9.9999961882559407e-01  9.9999757795422373e-01  1.0000035436436523e+00  9.9999622493832818e-01  1.0000029318755510e+00  9.9999668083398385e-01  1.0000097415580123e+00  9.9995891363580092e-01  1.0000362867361297e+00  1.0000258220072180e+00  9.9997380502948230e-01  9.9999171898473072e-01  1.0000461917180370e+00  9.9993898128897307e-01  1.0000175527106505e+00  1.0000223092357146e+00  9.9996145909312928e-01  1.0000249360534295e+00  1.0000017135480972e+00  9.9997309203197726e-01  1.0000375818302263e+00  1.0000007591223254e+00  9.9997597855705866e-01  1.0000285992027458e+00  9.9997450056051984e-01  1.0000268936152903e+00  9.9996194510748615e-01  1.0000334501077681e+00  9.9996912630062329e-01  1.0000221819155675e+00  9.9999281023952791e-01  1.0000054808486745e+00  9.9997867711744792e-01  1.0000283214706227e+00  9.9997821039748747e-01  1.0000018026254900e+00  1.0000098134412196e+00  9.9996802627719794e-01  1.0000038854838189e+00  9.9998214702777299e-01  9.9996678213753887e-01  9.9994896129124122e-01  9.9995688410294781e-01  9.9989832558131542e-01  9.9997722040910320e-01  9.9997652888406019e-01  1.0000609371428479e+00  1.0001522585525071e+00  1.0002940683209982e+00  1.0004298882590075e+00  1.0006786577414322e+00  1.0008722412341211e+00  1.0011307173037016e+00  1.0013888219330154e+00  1.0016174930816701e+00  1.0018115502385689e+00  1.0019858976422888e+00  1.0020585475591619e+00  1.0021030874328147e+00  1.0020832632348158e+00  1.0019691498904137e+00  1.0018296705295375e+00  1.0016539987752859e+00  1.0014226047082662e+00  1.0012040314351671e+00  1.0009814880684824e+00  1.0007563160056465e+00  1.0005840683512848e+00  1.0004253645522219e+00  1.0002814023458284e+00  1.0002013240135366e+00  1.0001301908135092e+00  1.0000687158283068e+00  1.0000462722326549e+00  1.0000287766472613e+00  1.0000076944282907e+00  1.0000094323204276e+00  1.0000016099661668e+00  1.0000004583809883e+00  1.0000042313685986e+00  9.9999620621115670e-01  9.9999939403821014e-01  1.0000055568375346e+00  9.9999544681919972e-01  9.9999760734292076e-01  1.0000072635666950e+00  9.9999478754454363e-01  9.9999897606899180e-01  1.0000049278977448e+00  9.9999687109890156e-01  9.9999987902784448e-01  1.0000027389060777e+00  9.9999797016484382e-01  9.9999978452000371e-01  1.0000021113097328e+00  9.9999625034656336e-01  9.9999899937320080e-01  1.0000047923228064e+00  9.9999344380986566e-01  1.0000042883337594e+00  1.0000049476888337e+00  9.9999280493892317e-01  1.0000049527051731e+00  9.9999916714220982e-01  9.9999906505919578e-01  9.9999794215857774e-01  1.0000095854466442e+00  9.9998440647709319e-01  1.0000097415580123e+00  9.9998935823524249e-01  9.9997380502948208e-01  1.0000007234866843e+00  1.0000730739052470e+00  9.9993406962695230e-01  9.9997097153927839e-01  1.0001135480760805e+00  9.9987978286602996e-01  1.0000538505912986e+00  1.0000114139290430e+00  9.9993676509302654e-01  1.0000578264781719e+00  9.9999058872687985e-01  9.9995174850611712e-01  1.0000493576251135e+00  9.9999508227638945e-01  9.9999037832392679e-01  1.0000153330165844e+00  9.9997235522711547e-01  1.0000484068958604e+00  9.9994763367819672e-01  1.0000545477903302e+00  9.9995528056289074e-01  1.0000110256460162e+00  1.0000196109631476e+00  1.0000064067458907e+00  9.9997207586968329e-01  1.0000426742815387e+00  9.9995369995585948e-01  9.9998892292095276e-01  9.9999464384209513e-01  9.9989862728664658e-01  9.9994696742815259e-01  9.9995213129155736e-01  9.9999463000356681e-01  1.0001427103989651e+00  1.0003594330529706e+00  1.0005558167472439e+00  1.0010142074978647e+00  1.0014557714771468e+00  1.0020738059281460e+00  1.0028059562473635e+00  1.0035938032155578e+00  1.0043736848392999e+00  1.0052596264285403e+00  1.0059834426893972e+00  1.0066738943397608e+00  1.0072657445415487e+00  1.0076739456702903e+00  1.0079303900054168e+00  1.0080505919135423e+00  1.0079004423655122e+00  1.0076317065737204e+00  1.0072074267820443e+00  1.0065826862422882e+00  1.0058832627714407e+00  1.0051282079528170e+00  1.0042939058173406e+00  1.0035231013964554e+00  1.0027832751170298e+00  1.0020896110966211e+00  1.0015533840932160e+00  1.0010993549414213e+00  1.0007149306386813e+00  1.0004757932995054e+00  1.0003038040812855e+00  1.0001566583186292e+00  1.0000997686016728e+00  1.0000524766845846e+00  1.0000203815810096e+00  1.0000161547545934e+00  1.0000024840618704e+00  9.9999812146655331e-01  1.0000108936828411e+00  9.9999380804222648e-01  9.9999442353234480e-01  1.0000142609010467e+00  9.9999161463871722e-01  9.9999556505792087e-01  1.0000108010973039e+00  9.9999473501128100e-01  9.9999516258244892e-01  1.0000084010885060e+00  9.9999442515547310e-01  9.9999942791407015e-01  1.0000049075511201e+00  9.9999476182996871e-01  1.0000004289523698e+00  1.0000056475353640e+00  9.9999184321229917e-01  1.0000019714935564e+00  1.0000086353994728e+00  9.9998839500055381e-01  1.0000068783463825e+00  1.0000019900066763e+00  9.9999622761484186e-01  9.9999743089947080e-01  1.0000108823816434e+00  9.9998357795140669e-01  1.0000095854466446e+00  9.9999668083398363e-01  9.9998359460961139e-01  9.9999171898473038e-01  1.0000730739052464e+00  9.9989655729091065e-01  9.9996473074748993e-01  1.0001370730808929e+00  9.9986737849091756e-01  1.0000145247096834e+00  1.0000908358496929e+00  9.9988333363653914e-01  1.0000930307832163e+00  9.9999543955200743e-01  9.9993309239751815e-01  1.0000863704533389e+00  9.9998344417289986e-01  9.9997561543478297e-01  1.0000068476039075e+00  9.9999630621585422e-01  1.0000040021805046e+00  9.9998981902012107e-01  9.9997901797642574e-01  1.0000290877020901e+00  9.9994445483797001e-01  1.0000769894701531e+00  9.9995206157404226e-01  9.9997646176367150e-01  1.0000124664910441e+00  9.9994673644960097e-01  9.9992952890262654e-01  9.9997888435132498e-01  9.9987751168075945e-01  9.9998544466771222e-01  1.0001530921642123e+00  1.0002953780485775e+00  1.0007554695807945e+00  1.0012881624472028e+00  1.0020323179069033e+00  1.0031219181036393e+00  1.0044497070678848e+00  1.0059035789027750e+00  1.0077075367195982e+00  1.0094667068251169e+00  1.0113280962713433e+00  1.0132177415991952e+00  1.0149654259376699e+00  1.0165337425000247e+00  1.0180189364800445e+00  1.0191233117944429e+00  1.0199827047656878e+00  1.0205455943013477e+00  1.0206835109180346e+00  1.0205187206870494e+00  1.0200476177775146e+00  1.0191350901255585e+00  1.0179739271510753e+00  1.0165654989423201e+00  1.0148572150816337e+00  1.0130432962491180e+00  1.0111418336741083e+00  1.0091842668068736e+00  1.0073874073024045e+00  1.0057163229571251e+00  1.0042102472347709e+00  1.0030279257666084e+00  1.0020882846530932e+00  1.0013261151268487e+00  1.0008439223956564e+00  1.0005069927742425e+00  1.0002693521302624e+00  1.0001519206754907e+00  1.0000746791831379e+00  1.0000289450271929e+00  1.0000260195553634e+00  9.9999955935955398e-01  9.9999366556981173e-01  1.0000199282116904e+00  9.9998848858807632e-01  9.9999207145411406e-01  1.0000170554535504e+00  9.9999238849663064e-01  9.9999135760101110e-01  1.0000145679656589e+00  9.9999422242072700e-01  9.9999548307914765e-01  1.0000111110332111e+00  9.9999133783269933e-01  1.0000005056233026e+00  1.0000077030166661e+00  9.9998651032382513e-01  1.0000047910196814e+00  1.0000074308262679e+00  9.9998705586567005e-01  1.0000089775935215e+00  1.0000045115593752e+00  9.9999339286183819e-01  9.9999848629754029e-01  1.0000118392768342e+00  9.9998459261380113e-01  1.0000108823816423e+00  9.9999794215857674e-01  1.0000029318755501e+00  1.0000283193561414e+00  1.0000461917180370e+00  9.9993406962695253e-01  9.9996473074749004e-01  1.0001954274915956e+00  9.9983523376134564e-01  1.0000196719457153e+00  1.0001168958558309e+00  9.9987198998105942e-01  1.0000545235529561e+00  1.0000339736705457e+00  9.9988397157804043e-01  1.0001110979355154e+00  9.9995783635408875e-01  9.9994667644076407e-01  1.0000432754350692e+00  9.9998929692616190e-01  1.0000223653079727e+00  9.9996606722337666e-01  1.0000186754117140e+00  1.0000016345850224e+00  1.0000028021681067e+00  1.0000028334873630e+00  1.0000132255435947e+00  9.9991023703534287e-01  1.0000706256328704e+00  9.9990919768698849e-01  9.9993934227546444e-01  9.9999351985287421e-01  9.9998587997358002e-01  1.0002019054771503e+00  1.0006157575046135e+00  1.0010927552061002e+00  1.0020699268910518e+00  1.0034194135467638e+00  1.0050849209015389e+00  1.0074233219907629e+00  1.0100184255065392e+00  1.0129212805710852e+00  1.0161411207838291e+00  1.0194465182473054e+00  1.0226731218177736e+00  1.0259871921400125e+00  1.0289011001325121e+00  1.0315722978349020e+00  1.0339437589992544e+00  1.0358414286162936e+00  1.0372957882350127e+00  1.0384528379458948e+00  1.0390557384366255e+00  1.0393352524563508e+00  1.0392299578499351e+00  1.0386090450386676e+00  1.0376221002147634e+00  1.0362634858794331e+00  1.0343474656760903e+00  1.0320736357940694e+00  1.0294066939992659e+00  1.0263198498712554e+00  1.0230388411975941e+00  1.0195823387171159e+00  1.0160520686454706e+00  1.0127641502442910e+00  1.0097492198269040e+00  1.0070631099731642e+00  1.0049497411173001e+00  1.0033032637269357e+00  1.0020586016478366e+00  1.0012424205638790e+00  1.0007108768908584e+00  1.0003672142445805e+00  1.0001992055640869e+00  1.0000832196840370e+00  1.0000301368899815e+00  1.0000370143170896e+00  9.9999310799061325e-01  9.9999166471311496e-01  1.0000242295474944e+00  9.9999029030347975e-01  9.9998697475623932e-01  1.0000213646780745e+00  9.9999168123173465e-01  9.9999020529561600e-01  1.0000149228036839e+00  9.9999077273399828e-01  9.9999626160583732e-01  1.0000134826049838e+00  9.9998364713327814e-01  1.0000065624596599e+00  1.0000104297652310e+00  9.9998112226860769e-01  1.0000128993069053e+00  1.0000033435003366e+00  9.9998991479935151e-01  1.0000009081254391e+00  1.0000128628403677e+00  9.9998332745499363e-01  1.0000118392768340e+00  9.9999743089947024e-01  9.9999906505919622e-01  9.9999622493832807e-01  9.9996229571364981e-01  9.9993898128897263e-01  9.9997097153927839e-01  1.0001370730808929e+00  9.9983523376134564e-01  9.9996280104471946e-01  1.0001652134816590e+00  9.9982771621749278e-01  1.0000513980455645e+00  1.0000588061078448e+00  9.9989362658674363e-01  1.0001075711425254e+00  9.9998228575085291e-01  9.9992515066160526e-01  1.0000966466535364e+00  9.9997907424070809e-01  9.9999934297741566e-01  9.9998924369602082e-01  9.9999508824254524e-01  1.0000419183020408e+00  9.9995659871535370e-01  1.0000240896233887e+00  9.9996942370107245e-01  9.9996298896826341e-01  9.9999708357416017e-01  9.9995016555643712e-01  9.9987098882871828e-01  1.0001068863127036e+00  1.0001752083549005e+00  1.0006901192832658e+00  1.0015259841874073e+00  1.0026944062930809e+00  1.0046261916283490e+00  1.0072343822421039e+00  1.0103708039485402e+00  1.0142974944285426e+00  1.0186391159309245e+00  1.0231562987141496e+00  1.0280256205579712e+00  1.0326545564936853e+00  1.0370031591270548e+00  1.0410062299463179e+00  1.0444106503548727e+00  1.0471852608688155e+00  1.0496156995472992e+00  1.0513656758113843e+00  1.0527394582051646e+00  1.0538181129149728e+00  1.0544937399575391e+00  1.0548993759721479e+00  1.0551390376437255e+00  1.0549888553471320e+00  1.0546834018208080e+00  1.0541545297087658e+00  1.0531929839512415e+00  1.0519361219924424e+00  1.0503008717784610e+00  1.0480686388055165e+00  1.0453508992726717e+00  1.0420194283499637e+00  1.0380239715775932e+00  1.0335884273936022e+00  1.0287406923813622e+00  1.0236206067054925e+00  1.0187147174311020e+00  1.0141526222195167e+00  1.0101261574013201e+00  1.0069103574355807e+00  1.0044722336976823e+00  1.0027007583209409e+00  1.0015627490779011e+00  1.0008378123765223e+00  1.0004149218207141e+00  1.0002216916345825e+00  1.0000735586159661e+00  1.0000248789401185e+00  1.0000392997584628e+00  9.9999240942775491e-01  9.9998301561306824e-01  1.0000287389920246e+00  9.9998965322571920e-01  9.9998506255060782e-01  1.0000223981240433e+00  9.9999115665018190e-01  9.9999349694629835e-01  1.0000173190099455e+00  9.9998473415358724e-01  1.0000029355809228e+00  1.0000127076740921e+00  9.9997654555619508e-01  1.0000121817841345e+00  1.0000064008843559e+00  9.9998479590260281e-01  1.0000067626770097e+00  1.0000143218520245e+00  9.9998032294094508e-01  1.0000128628403677e+00  9.9999848629753973e-01  9.9999622761484153e-01  9.9999916714220938e-01  1.0000035436436518e+00  1.0000242065345315e+00  1.0000175527106505e+00  1.0001135480760810e+00  9.9986737849091800e-01  1.0000196719457146e+00  1.0001652134816590e+00  9.9987412802536235e-01  1.0000087438246379e+00  1.0001163097993266e+00  9.9986680023309227e-01  1.0000980494327054e+00  9.9997917959185334e-01  9.9992085552712928e-01  1.0000985441651820e+00  9.9996288820534329e-01  9.9995761365644109e-01  1.0000279653315145e+00  9.9999440788191019e-01  1.0000339242522229e+00  9.9997460663144533e-01  9.9997195154434193e-01  1.0000247992254474e+00  9.9991007639144358e-01  1.0000114256030013e+00  9.9990349943367784e-01  9.9998236970858012e-01  1.0002632823717923e+00  1.0007117653814903e+00  1.0015671122529639e+00  1.0032251534831100e+00  1.0053960963034847e+00  1.0087307527990912e+00  1.0129629621770671e+00  1.0178736294228579e+00  1.0235750672865001e+00  1.0295425442872530e+00  1.0353785970428129e+00  1.0410379641435827e+00  1.0459952872450831e+00  1.0500015446821203e+00  1.0533515859247216e+00  1.0556971040670691e+00  1.0573498341146008e+00  1.0584993261086726e+00  1.0591085653691708e+00  1.0593139951333814e+00  1.0594807401725166e+00  1.0593204949263162e+00  1.0591658694373070e+00  1.0590513122464749e+00  1.0588967897332551e+00  1.0588352256100495e+00  1.0589260235619669e+00  1.0588880238894136e+00  1.0589483476630426e+00  1.0589868025767775e+00  1.0587684939119519e+00  1.0583467966246620e+00  1.0575600764591042e+00  1.0561495027957926e+00  1.0541221265575798e+00  1.0512198722435719e+00  1.0472672507599186e+00  1.0424723862981122e+00  1.0368052531300289e+00  1.0304890994636613e+00  1.0241176148497670e+00  1.0180834278498538e+00  1.0127334495818183e+00  1.0084627661687582e+00  1.0052730933648009e+00  1.0030645830265383e+00  1.0016952105543067e+00  1.0008417271588685e+00  1.0003948741531976e+00  1.0002062359718971e+00  1.0000577154658379e+00  1.0000075631069791e+00  1.0000428980037595e+00  9.9999162267595187e-01  9.9997993963653131e-01  1.0000296331351268e+00  9.9999020193339527e-01  9.9998605357094916e-01  1.0000211515579920e+00  9.9998398589249837e-01  1.0000001344170173e+00  1.0000137153598589e+00  9.9997880741886136e-01  1.0000112386315652e+00  1.0000094342176895e+00  9.9998250661304211e-01  1.0000069482616238e+00  1.0000162047086187e+00  9.9997391972651695e-01  1.0000143218520250e+00  1.0000009081254388e+00  9.9999339286183853e-01  1.0000019900066766e+00  1.0000049527051738e+00  9.9999757795422395e-01  9.9997996038713233e-01  1.0000223092357148e+00  9.9987978286602996e-01  1.0000145247096828e+00  1.0001168958558309e+00  9.9982771621749267e-01  1.0000087438246386e+00  1.0000768615857862e+00  9.9989364044598905e-01  1.0000461991658143e+00  1.0000180613106435e+00  9.9992448675514878e-01  1.0001121009433220e+00  9.9995504199837082e-01  9.9995756869102526e-01  1.0000668979229210e+00  9.9999776260226059e-01  1.0000073475558109e+00  9.9999138250818898e-01  9.9996223760292868e-01  1.0000257935807721e+00  9.9993329165067912e-01  9.9994059249643741e-01  1.0000036155274346e+00  1.0000835075121586e+00  1.0006696370408503e+00  1.0014418969146002e+00  1.0030617319245301e+00  1.0056780847658864e+00  1.0093682179684700e+00  1.0142994688211600e+00  1.0204303139160686e+00  1.0270414333122284e+00  1.0341664834833237e+00  1.0409844359213987e+00  1.0469384632285934e+00  1.0519621161081025e+00  1.0556140976845474e+00  1.0579022210215816e+00  1.0592248805041926e+00  1.0595871605045337e+00  1.0591742178556007e+00  1.0584915888436548e+00  1.0573401629375363e+00  1.0561080403201457e+00  1.0549744627349722e+00  1.0538725534239957e+00  1.0529133123531440e+00  1.0523349531229442e+00  1.0518474806486622e+00  1.0516836245365924e+00  1.0517917806446329e+00  1.0520165219955238e+00  1.0525104036838575e+00  1.0532751308868060e+00  1.0540520956202117e+00  1.0550259555277086e+00  1.0560955674725803e+00  1.0570589147224250e+00  1.0579358771738621e+00  1.0585143159941850e+00  1.0584883761465111e+00  1.0578268300401232e+00  1.0560912435762488e+00  1.0529736496805862e+00  1.0485037494441141e+00  1.0426341953882450e+00  1.0355664805975513e+00  1.0280551926886112e+00  1.0207519100995532e+00  1.0142989505116085e+00  1.0091967699729558e+00  1.0054705413121450e+00  1.0030291278714782e+00  1.0015884489623734e+00  1.0007284859420751e+00  1.0003065846214352e+00  1.0001697547445048e+00  1.0000328004115722e+00  9.9999153910415572e-01  1.0000385767208295e+00  9.9999216338237851e-01  9.9997880514560433e-01  1.0000282973327947e+00  9.9998737664552695e-01  9.9999591631795526e-01  1.0000181629436629e+00  9.9998003397064628e-01  1.0000100570808366e+00  1.0000071328765510e+00  9.9998124123347154e-01  1.0000050195928334e+00  1.0000165091760738e+00  9.9997280773166708e-01  1.0000162047086179e+00  1.0000067626770088e+00  9.9998991479935184e-01  1.0000045115593745e+00  1.0000068783463818e+00  9.9999280493892295e-01  9.9999961882559418e-01  1.0000081157203318e+00  9.9996145909312950e-01  1.0000538505912986e+00  1.0000908358496932e+00  9.9987198998105897e-01  1.0000513980455645e+00  1.0001163097993266e+00  9.9989364044598894e-01  1.0000789726782544e+00  9.9999344644449817e-01  9.9996031783398653e-01  1.0000742899641548e+00  9.9995188336157348e-01  9.9995419291191578e-01  1.0000768521467001e+00  9.9996508139442597e-01  9.9997157551876359e-01  1.0000092242854159e+00  9.9995612229443265e-01  1.0000143956221312e+00  9.9992335434156243e-01  9.9992240100930