<?xml version="1.0"?>
<VTKFile type="UnstructuredGrid"  version="0.1"  >
<UnstructuredGrid>
<Piece  NumberOfPoints="10201" NumberOfCells="20000">
<Points>
<DataArray  type="Float64"  NumberOfComponents="3"  format="ascii">-5 -5 0  -4.9 -5 0  -4.8 -5 0  -4.7 -5 0  -4.6 -5 0  -4.5 -5 0  -4.4 -5 0  -4.3 -5 0  -4.2 -5 0  -4.1 -5 0  -4 -5 0  -3.9 -5 0  -3.8 -5 0  -3.7 -5 0  -3.6 -5 0  -3.5 -5 0  -3.4 -5 0  -3.3 -5 0  -3.2 -5 0  -3.1 -5 0  -3 -5 0  -2.9 -5 0  -2.8 -5 0  -2.7 -5 0  -2.6 -5 0  -2.5 -5 0  -2.4 -5 0  -2.3 -5 0  -2.2 -5 0  -2.1 -5 0  -2 -5 0  -1.9 -5 0  -1.8 -5 0  -1.7 -5 0  -1.6 -5 0  -1.5 -5 0  -1.4 -5 0  -1.3 -5 0  -1.2 -5 0  -1.1 -5 0  -1 -5 0  -0.9000000000000004 -5 0  -0.7999999999999998 -5 0  -0.7000000000000002 -5 0  -0.5999999999999996 -5 0  -0.5 -5 0  -0.4000000000000004 -5 0  -0.2999999999999998 -5 0  -0.2000000000000002 -5 0  -0.09999999999999964 -5 0  0 -5 0  0.09999999999999964 -5 0  0.2000000000000002 -5 0  0.2999999999999998 -5 0  0.4000000000000004 -5 0  0.5 -5 0  0.5999999999999996 -5 0  0.7000000000000002 -5 0  0.7999999999999998 -5 0  0.9000000000000004 -5 0  1 -5 0  1.1 -5 0  1.2 -5 0  1.3 -5 0  1.4 -5 0  1.5 -5 0  1.6 -5 0  1.7 -5 0  1.8 -5 0  1.9 -5 0  2 -5 0  2.1 -5 0  2.2 -5 0  2.3 -5 0  2.4 -5 0  2.5 -5 0  2.6 -5 0  2.7 -5 0  2.8 -5 0  2.9 -5 0  3 -5 0  3.1 -5 0  3.199999999999999 -5 0  3.300000000000001 -5 0  3.4 -5 0  3.5 -5 0  3.6 -5 0  3.699999999999999 -5 0  3.800000000000001 -5 0  3.9 -5 0  4 -5 0  4.1 -5 0  4.199999999999999 -5 0  4.300000000000001 -5 0  4.4 -5 0  4.5 -5 0  4.6 -5 0  4.699999999999999 -5 0  4.800000000000001 -5 0  4.9 -5 0  5 -5 0  -5 -4.9 0  -4.9 -4.9 0  -4.8 -4.9 0  -4.7 -4.9 0  -4.6 -4.9 0  -4.5 -4.9 0  -4.4 -4.9 0  -4.3 -4.9 0  -4.2 -4.9 0  -4.1 -4.9 0  -4 -4.9 0  -3.9 -4.9 0  -3.8 -4.9 0  -3.7 -4.9 0  -3.6 -4.9 0  -3.5 -4.9 0  -3.4 -4.9 0  -3.3 -4.9 0  -3.2 -4.9 0  -3.1 -4.9 0  -3 -4.9 0  -2.9 -4.9 0  -2.8 -4.9 0  -2.7 -4.9 0  -2.6 -4.9 0  -2.5 -4.9 0  -2.4 -4.9 0  -2.3 -4.9 0  -2.2 -4.9 0  -2.1 -4.9 0  -2 -4.9 0  -1.9 -4.9 0  -1.8 -4.9 0  -1.7 -4.9 0  -1.6 -4.9 0  -1.5 -4.9 0  -1.4 -4.9 0  -1.3 -4.9 0  -1.2 -4.9 0  -1.1 -4.9 0  -1 -4.9 0  -0.9000000000000004 -4.9 0  -0.7999999999999998 -4.9 0  -0.7000000000000002 -4.9 0  -0.5999999999999996 -4.9 0  -0.5 -4.9 0  -0.4000000000000004 -4.9 0  -0.2999999999999998 -4.9 0  -0.2000000000000002 -4.9 0  -0.09999999999999964 -4.9 0  0 -4.9 0  0.09999999999999964 -4.9 0  0.2000000000000002 -4.9 0  0.2999999999999998 -4.9 0  0.4000000000000004 -4.9 0  0.5 -4.9 0  0.5999999999999996 -4.9 0  0.7000000000000002 -4.9 0  0.7999999999999998 -4.9 0  0.9000000000000004 -4.9 0  1 -4.9 0  1.1 -4.9 0  1.2 -4.9 0  1.3 -4.9 0  1.4 -4.9 0  1.5 -4.9 0  1.6 -4.9 0  1.7 -4.9 0  1.8 -4.9 0  1.9 -4.9 0  2 -4.9 0  2.1 -4.9 0  2.2 -4.9 0  2.3 -4.9 0  2.4 -4.9 0  2.5 -4.9 0  2.6 -4.9 0  2.7 -4.9 0  2.8 -4.9 0  2.9 -4.9 0  3 -4.9 0  3.1 -4.9 0  3.199999999999999 -4.9 0  3.300000000000001 -4.9 0  3.4 -4.9 0  3.5 -4.9 0  3.6 -4.9 0  3.699999999999999 -4.9 0  3.800000000000001 -4.9 0  3.9 -4.9 0  4 -4.9 0  4.1 -4.9 0  4.199999999999999 -4.9 0  4.300000000000001 -4.9 0  4.4 -4.9 0  4.5 -4.9 0  4.6 -4.9 0  4.699999999999999 -4.9 0  4.800000000000001 -4.9 0  4.9 -4.9 0  5 -4.9 0  -5 -4.8 0  -4.9 -4.8 0  -4.8 -4.8 0  -4.7 -4.8 0  -4.6 -4.8 0  -4.5 -4.8 0  -4.4 -4.8 0  -4.3 -4.8 0  -4.2 -4.8 0  -4.1 -4.8 0  -4 -4.8 0  -3.9 -4.8 0  -3.8 -4.8 0  -3.7 -4.8 0  -3.6 -4.8 0  -3.5 -4.8 0  -3.4 -4.8 0  -3.3 -4.8 0  -3.2 -4.8 0  -3.1 -4.8 0  -3 -4.8 0  -2.9 -4.8 0  -2.8 -4.8 0  -2.7 -4.8 0  -2.6 -4.8 0  -2.5 -4.8 0  -2.4 -4.8 0  -2.3 -4.8 0  -2.2 -4.8 0  -2.1 -4.8 0  -2 -4.8 0  -1.9 -4.8 0  -1.8 -4.8 0  -1.7 -4.8 0  -1.6 -4.8 0  -1.5 -4.8 0  -1.4 -4.8 0  -1.3 -4.8 0  -1.2 -4.8 0  -1.1 -4.8 0  -1 -4.8 0  -0.9000000000000004 -4.8 0  -0.7999999999999998 -4.8 0  -0.7000000000000002 -4.8 0  -0.5999999999999996 -4.8 0  -0.5 -4.8 0  -0.4000000000000004 -4.8 0  -0.2999999999999998 -4.8 0  -0.2000000000000002 -4.8 0  -0.09999999999999964 -4.8 0  0 -4.8 0  0.09999999999999964 -4.8 0  0.2000000000000002 -4.8 0  0.2999999999999998 -4.8 0  0.4000000000000004 -4.8 0  0.5 -4.8 0  0.5999999999999996 -4.8 0  0.7000000000000002 -4.8 0  0.7999999999999998 -4.8 0  0.9000000000000004 -4.8 0  1 -4.8 0  1.1 -4.8 0  1.2 -4.8 0  1.3 -4.8 0  1.4 -4.8 0  1.5 -4.8 0  1.6 -4.8 0  1.7 -4.8 0  1.8 -4.8 0  1.9 -4.8 0  2 -4.8 0  2.1 -4.8 0  2.2 -4.8 0  2.3 -4.8 0  2.4 -4.8 0  2.5 -4.8 0  2.6 -4.8 0  2.7 -4.8 0  2.8 -4.8 0  2.9 -4.8 0  3 -4.8 0  3.1 -4.8 0  3.199999999999999 -4.8 0  3.300000000000001 -4.8 0  3.4 -4.8 0  3.5 -4.8 0  3.6 -4.8 0  3.699999999999999 -4.8 0  3.800000000000001 -4.8 0  3.9 -4.8 0  4 -4.8 0  4.1 -4.8 0  4.199999999999999 -4.8 0  4.300000000000001 -4.8 0  4.4 -4.8 0  4.5 -4.8 0  4.6 -4.8 0  4.699999999999999 -4.8 0  4.800000000000001 -4.8 0  4.9 -4.8 0  5 -4.8 0  -5 -4.7 0  -4.9 -4.7 0  -4.8 -4.7 0  -4.7 -4.7 0  -4.6 -4.7 0  -4.5 -4.7 0  -4.4 -4.7 0  -4.3 -4.7 0  -4.2 -4.7 0  -4.1 -4.7 0  -4 -4.7 0  -3.9 -4.7 0  -3.8 -4.7 0  -3.7 -4.7 0  -3.6 -4.7 0  -3.5 -4.7 0  -3.4 -4.7 0  -3.3 -4.7 0  -3.2 -4.7 0  -3.1 -4.7 0  -3 -4.7 0  -2.9 -4.7 0  -2.8 -4.7 0  -2.7 -4.7 0  -2.6 -4.7 0  -2.5 -4.7 0  -2.4 -4.7 0  -2.3 -4.7 0  -2.2 -4.7 0  -2.1 -4.7 0  -2 -4.7 0  -1.9 -4.7 0  -1.8 -4.7 0  -1.7 -4.7 0  -1.6 -4.7 0  -1.5 -4.7 0  -1.4 -4.7 0  -1.3 -4.7 0  -1.2 -4.7 0  -1.1 -4.7 0  -1 -4.7 0  -0.9000000000000004 -4.7 0  -0.7999999999999998 -4.7 0  -0.7000000000000002 -4.7 0  -0.5999999999999996 -4.7 0  -0.5 -4.7 0  -0.4000000000000004 -4.7 0  -0.2999999999999998 -4.7 0  -0.2000000000000002 -4.7 0  -0.09999999999999964 -4.7 0  0 -4.7 0  0.09999999999999964 -4.7 0  0.2000000000000002 -4.7 0  0.2999999999999998 -4.7 0  0.4000000000000004 -4.7 0  0.5 -4.7 0  0.5999999999999996 -4.7 0  0.7000000000000002 -4.7 0  0.7999999999999998 -4.7 0  0.9000000000000004 -4.7 0  1 -4.7 0  1.1 -4.7 0  1.2 -4.7 0  1.3 -4.7 0  1.4 -4.7 0  1.5 -4.7 0  1.6 -4.7 0  1.7 -4.7 0  1.8 -4.7 0  1.9 -4.7 0  2 -4.7 0  2.1 -4.7 0  2.2 -4.7 0  2.3 -4.7 0  2.4 -4.7 0  2.5 -4.7 0  2.6 -4.7 0  2.7 -4.7 0  2.8 -4.7 0  2.9 -4.7 0  3 -4.7 0  3.1 -4.7 0  3.199999999999999 -4.7 0  3.300000000000001 -4.7 0  3.4 -4.7 0  3.5 -4.7 0  3.6 -4.7 0  3.699999999999999 -4.7 0  3.800000000000001 -4.7 0  3.9 -4.7 0  4 -4.7 0  4.1 -4.7 0  4.199999999999999 -4.7 0  4.300000000000001 -4.7 0  4.4 -4.7 0  4.5 -4.7 0  4.6 -4.7 0  4.699999999999999 -4.7 0  4.800000000000001 -4.7 0  4.9 -4.7 0  5 -4.7 0  -5 -4.6 0  -4.9 -4.6 0  -4.8 -4.6 0  -4.7 -4.6 0  -4.6 -4.6 0  -4.5 -4.6 0  -4.4 -4.6 0  -4.3 -4.6 0  -4.2 -4.6 0  -4.1 -4.6 0  -4 -4.6 0  -3.9 -4.6 0  -3.8 -4.6 0  -3.7 -4.6 0  -3.6 -4.6 0  -3.5 -4.6 0  -3.4 -4.6 0  -3.3 -4.6 0  -3.2 -4.6 0  -3.1 -4.6 0  -3 -4.6 0  -2.9 -4.6 0  -2.8 -4.6 0  -2.7 -4.6 0  -2.6 -4.6 0  -2.5 -4.6 0  -2.4 -4.6 0  -2.3 -4.6 0  -2.2 -4.6 0  -2.1 -4.6 0  -2 -4.6 0  -1.9 -4.6 0  -1.8 -4.6 0  -1.7 -4.6 0  -1.6 -4.6 0  -1.5 -4.6 0  -1.4 -4.6 0  -1.3 -4.6 0  -1.2 -4.6 0  -1.1 -4.6 0  -1 -4.6 0  -0.9000000000000004 -4.6 0  -0.7999999999999998 -4.6 0  -0.7000000000000002 -4.6 0  -0.5999999999999996 -4.6 0  -0.5 -4.6 0  -0.4000000000000004 -4.6 0  -0.2999999999999998 -4.6 0  -0.2000000000000002 -4.6 0  -0.09999999999999964 -4.6 0  0 -4.6 0  0.09999999999999964 -4.6 0  0.2000000000000002 -4.6 0  0.2999999999999998 -4.6 0  0.4000000000000004 -4.6 0  0.5 -4.6 0  0.5999999999999996 -4.6 0  0.7000000000000002 -4.6 0  0.7999999999999998 -4.6 0  0.9000000000000004 -4.6 0  1 -4.6 0  1.1 -4.6 0  1.2 -4.6 0  1.3 -4.6 0  1.4 -4.6 0  1.5 -4.6 0  1.6 -4.6 0  1.7 -4.6 0  1.8 -4.6 0  1.9 -4.6 0  2 -4.6 0  2.1 -4.6 0  2.2 -4.6 0  2.3 -4.6 0  2.4 -4.6 0  2.5 -4.6 0  2.6 -4.6 0  2.7 -4.6 0  2.8 -4.6 0  2.9 -4.6 0  3 -4.6 0  3.1 -4.6 0  3.199999999999999 -4.6 0  3.300000000000001 -4.6 0  3.4 -4.6 0  3.5 -4.6 0  3.6 -4.6 0  3.699999999999999 -4.6 0  3.800000000000001 -4.6 0  3.9 -4.6 0  4 -4.6 0  4.1 -4.6 0  4.199999999999999 -4.6 0  4.300000000000001 -4.6 0  4.4 -4.6 0  4.5 -4.6 0  4.6 -4.6 0  4.699999999999999 -4.6 0  4.800000000000001 -4.6 0  4.9 -4.6 0  5 -4.6 0  -5 -4.5 0  -4.9 -4.5 0  -4.8 -4.5 0  -4.7 -4.5 0  -4.6 -4.5 0  -4.5 -4.5 0  -4.4 -4.5 0  -4.3 -4.5 0  -4.2 -4.5 0  -4.1 -4.5 0  -4 -4.5 0  -3.9 -4.5 0  -3.8 -4.5 0  -3.7 -4.5 0  -3.6 -4.5 0  -3.5 -4.5 0  -3.4 -4.5 0  -3.3 -4.5 0  -3.2 -4.5 0  -3.1 -4.5 0  -3 -4.5 0  -2.9 -4.5 0  -2.8 -4.5 0  -2.7 -4.5 0  -2.6 -4.5 0  -2.5 -4.5 0  -2.4 -4.5 0  -2.3 -4.5 0  -2.2 -4.5 0  -2.1 -4.5 0  -2 -4.5 0  -1.9 -4.5 0  -1.8 -4.5 0  -1.7 -4.5 0  -1.6 -4.5 0  -1.5 -4.5 0  -1.4 -4.5 0  -1.3 -4.5 0  -1.2 -4.5 0  -1.1 -4.5 0  -1 -4.5 0  -0.9000000000000004 -4.5 0  -0.7999999999999998 -4.5 0  -0.7000000000000002 -4.5 0  -0.5999999999999996 -4.5 0  -0.5 -4.5 0  -0.4000000000000004 -4.5 0  -0.2999999999999998 -4.5 0  -0.2000000000000002 -4.5 0  -0.09999999999999964 -4.5 0  0 -4.5 0  0.09999999999999964 -4.5 0  0.2000000000000002 -4.5 0  0.2999999999999998 -4.5 0  0.4000000000000004 -4.5 0  0.5 -4.5 0  0.5999999999999996 -4.5 0  0.7000000000000002 -4.5 0  0.7999999999999998 -4.5 0  0.9000000000000004 -4.5 0  1 -4.5 0  1.1 -4.5 0  1.2 -4.5 0  1.3 -4.5 0  1.4 -4.5 0  1.5 -4.5 0  1.6 -4.5 0  1.7 -4.5 0  1.8 -4.5 0  1.9 -4.5 0  2 -4.5 0  2.1 -4.5 0  2.2 -4.5 0  2.3 -4.5 0  2.4 -4.5 0  2.5 -4.5 0  2.6 -4.5 0  2.7 -4.5 0  2.8 -4.5 0  2.9 -4.5 0  3 -4.5 0  3.1 -4.5 0  3.199999999999999 -4.5 0  3.300000000000001 -4.5 0  3.4 -4.5 0  3.5 -4.5 0  3.6 -4.5 0  3.699999999999999 -4.5 0  3.800000000000001 -4.5 0  3.9 -4.5 0  4 -4.5 0  4.1 -4.5 0  4.199999999999999 -4.5 0  4.300000000000001 -4.5 0  4.4 -4.5 0  4.5 -4.5 0  4.6 -4.5 0  4.699999999999999 -4.5 0  4.800000000000001 -4.5 0  4.9 -4.5 0  5 -4.5 0  -5 -4.4 0  -4.9 -4.4 0  -4.8 -4.4 0  -4.7 -4.4 0  -4.6 -4.4 0  -4.5 -4.4 0  -4.4 -4.4 0  -4.3 -4.4 0  -4.2 -4.4 0  -4.1 -4.4 0  -4 -4.4 0  -3.9 -4.4 0  -3.8 -4.4 0  -3.7 -4.4 0  -3.6 -4.4 0  -3.5 -4.4 0  -3.4 -4.4 0  -3.3 -4.4 0  -3.2 -4.4 0  -3.1 -4.4 0  -3 -4.4 0  -2.9 -4.4 0  -2.8 -4.4 0  -2.7 -4.4 0  -2.6 -4.4 0  -2.5 -4.4 0  -2.4 -4.4 0  -2.3 -4.4 0  -2.2 -4.4 0  -2.1 -4.4 0  -2 -4.4 0  -1.9 -4.4 0  -1.8 -4.
[...]
<PointData  Scalars="f_27-1"> 
<DataArray  type="Float64"  Name="f_27-1"  format="ascii">1.0000221028045377e+00  9.9998490849464261e-01  9.9985779085112036e-01  1.0000003844821161e+00  1.0000607791152574e+00  9.9982899524458357e-01  1.0000862854678303e+00  1.0000646006735796e+00  9.9997378799523962e-01  9.9989531943687116e-01  1.0001374392694313e+00  9.9987714344880529e-01  9.9988445970107187e-01  1.0000434606735205e+00  1.0000066503617118e+00  9.9984020285010167e-01  1.0000541433633003e+00  9.9993825628431943e-01  9.9985409337314402e-01  1.0000019270570353e+00  1.0000029079313446e+00  9.9987746938748101e-01  1.0000757232388822e+00  1.0000672599374245e+00  9.9999352001214326e-01  1.0001607467011302e+00  1.0001824448754328e+00  1.0000488339225615e+00  1.0001220098809460e+00  1.0000314928290270e+00  9.9983631588522670e-01  9.9985365715473062e-01  9.9978914258420915e-01  9.9969713615934064e-01  9.9986052681473647e-01  9.9994678393995262e-01  9.9994761272303179e-01  1.0000804358746918e+00  1.0001005175660345e+00  1.0000631594592506e+00  1.0001378050295693e+00  1.0000883729585146e+00  1.0000097488917266e+00  1.0000689753673164e+00  1.0000459236805217e+00  9.9998985048496436e-01  1.0000201502684325e+00  1.0000025308435627e+00  9.9999746884079921e-01  1.0000253454255186e+00  9.9997955402991900e-01  9.9998611965718620e-01  1.0000353875447690e+00  9.9999148043842734e-01  9.9997387330781540e-01  1.0000188733805317e+00  1.0000111125122337e+00  9.9998781372004375e-01  9.9998797789650906e-01  1.0000129159925930e+00  1.0000162476671737e+00  9.9997500457970101e-01  9.9998897824612432e-01  1.0000437142643308e+00  9.9997881725677418e-01  9.9996855071223389e-01  1.0000425617359314e+00  1.0000060754210531e+00  9.9994749101277802e-01  1.0000374382115738e+00  1.0000184874261850e+00  9.9995558313999799e-01  1.0000108416684221e+00  1.0000373491144228e+00  9.9995843003474005e-01  1.0000002320368999e+00  1.0000357445400174e+00  9.9997209868920878e-01  9.9999152879669895e-01  1.0000281213989537e+00  9.9998867083602261e-01  9.9997809942086591e-01  1.0000341547844596e+00  9.9997813011403158e-01  9.9999657654548579e-01  1.0000040911092483e+00  1.0000013332728876e+00  9.9997306735666081e-01  1.0000167466541281e+00  9.9997746966662937e-01  9.9999324066409156e-01  9.9999321315492662e-01  9.9999522868049151e-01  9.9998672730642746e-01  1.0000113288844010e+00  9.9999186371054882e-01  1.0000173823771226e+00  9.9999837083137222e-01  1.0000292503257218e+00  9.9998853101680496e-01  1.0000358156092035e+00  9.9998490849464239e-01  9.9995819925862905e-01  1.0001010033361568e+00  1.0001009809017967e+00  9.9991637867826744e-01  1.0000863597200522e+00  1.0000803500288160e+00  9.9989462046870337e-01  9.9996060750793303e-01  1.0001183064310974e+00  9.9995255528406246e-01  9.9994176996362749e-01  1.0001665228274981e+00  1.0000316101998743e+00  9.9992430425249423e-01  1.0001144399719739e+00  1.0000628653476735e+00  9.9994824108309543e-01  1.0001388711808932e+00  1.0000823551196212e+00  9.9995663750856878e-01  1.0000926975396900e+00  1.0000483910697071e+00  9.9988444611489302e-01  9.9999977849143962e-01  9.9994450895310349e-01  9.9978878741418964e-01  9.9989539340269984e-01  9.9991724979341434e-01  9.9986818829212187e-01  1.0000723242941911e+00  1.0001650463831029e+00  1.0001486392163788e+00  1.0002857787447903e+00  1.0002523556575824e+00  1.0000829285001249e+00  1.0000774048775087e+00  9.9999912730470775e-01  9.9988629686171671e-01  9.9993342762284954e-01  9.9990200350207337e-01  9.9985996615941375e-01  9.9996310844946101e-01  9.9996495265443763e-01  9.9992391398834046e-01  9.9999129667603837e-01  9.9999557729921340e-01  9.9997956753516881e-01  1.0000113586529464e+00  9.9998260652936910e-01  9.9999002311808161e-01  1.0000319462506890e+00  9.9998395479881197e-01  9.9997680622760599e-01  1.0000284984022825e+00  1.0000036011311386e+00  9.9997901314354820e-01  1.0000017618453230e+00  1.0000138002196046e+00  1.0000032128790648e+00  9.9997993885565273e-01  9.9999949255497533e-01  1.0000323937681876e+00  9.9997773480303720e-01  9.9997549472121272e-01  1.0000439170902342e+00  9.9999571767302509e-01  9.9995502533102631e-01  1.0000386602915579e+00  1.0000161855796663e+00  9.9994991194895788e-01  1.0000221559834894e+00  1.0000300722330340e+00  9.9995792542984896e-01  1.0000024508581751e+00  1.0000387101202513e+00  9.9996517683947483e-01  9.9999591071603244e-01  1.0000304024477640e+00  9.9998348337041154e-01  9.9998318501926109e-01  1.0000325959039813e+00  9.9998450054302235e-01  9.9999100543755004e-01  1.0000203782503094e+00  9.9999693487312336e-01  9.9999185168398719e-01  1.0000198612193014e+00  1.0000025928374752e+00  9.9999835641439938e-01  1.0000208533126715e+00  1.0000025133142674e+00  1.0000057929248183e+00  1.0000099488839735e+00  1.0000019148249419e+00  9.9999492462253836e-01  1.0000009342223530e+00  9.9998895398893095e-01  9.9998867132073377e-01  9.9999211971484758e-01  9.9998853101680474e-01  9.9985779085112014e-01  1.0001010033361568e+00  9.9998588089148310e-01  9.9983446459191105e-01  1.0000422536229983e+00  9.9998771707731871e-01  9.9991824621282777e-01  9.9994971075550532e-01  1.0001737547435401e+00  9.9990440699872574e-01  9.9997270242718650e-01  1.0000845133298224e+00  9.9998868815497921e-01  9.9982895822751716e-01  1.0000947853160713e+00  9.9998342096091108e-01  9.9989730042387814e-01  1.0000216903044403e+00  1.0000041069735899e+00  9.9984018549434883e-01  1.0000308271319813e+00  9.9998755632394609e-01  9.9989219196230228e-01  1.0000367108110515e+00  1.0000709728853170e+00  9.9996098053886795e-01  1.0001327097244390e+00  1.0001558689382175e+00  1.0000548465444350e+00  1.0001312194106469e+00  1.0000743615369769e+00  9.9987835265061131e-01  9.9988393318677671e-01  9.9980989881027427e-01  9.9969946491412043e-01  9.9983104272016732e-01  9.9991557757933258e-01  9.9992277881618397e-01  1.0000594678549108e+00  1.0000924572707059e+00  1.0000600486015301e+00  1.0001348738786482e+00  1.0000990124417102e+00  1.0000206763750588e+00  1.0000684948964458e+00  1.0000496672458790e+00  9.9999660967877491e-01  1.0000220417833325e+00  1.0000036026742145e+00  9.9999593393045250e-01  1.0000255800229352e+00  9.9998500575043670e-01  9.9998290828280489e-01  1.0000316093579316e+00  9.9999622256027865e-01  9.9997595987350973e-01  1.0000133817251282e+00  1.0000121778960813e+00  9.9998977589428706e-01  9.9999074420257406e-01  1.0000055260452834e+00  1.0000194257423478e+00  9.9997892821949874e-01  9.9998742611205660e-01  1.0000341332706018e+00  9.9999421530403898e-01  9.9996031140002795e-01  1.0000403144758931e+00  1.0000083498439711e+00  9.9995548686862157e-01  1.0000217053102967e+00  1.0000309586815104e+00  9.9995204320316811e-01  1.0000102567516604e+00  1.0000348277656275e+00  9.9996454885178820e-01  9.9999605024783478e-01  1.0000340386961430e+00  9.9997805609669854e-01  9.9998503949729090e-01  1.0000346510925899e+00  9.9997916802687847e-01  9.9999299657131124e-01  1.0000154129372236e+00  9.9999742035105732e-01  9.9997945041821146e-01  1.0000207042773641e+00  9.9998445828354454e-01  9.9999234930229208e-01  9.9999928406885452e-01  9.9999338673600269e-01  9.9998302236329906e-01  1.0000018690299319e+00  9.9998851526617305e-01  9.9999530363827749e-01  9.9999833954838668e-01  1.0000087600030154e+00  9.9999035409644843e-01  1.0000293668940661e+00  9.9998867132073399e-01  1.0000292503257215e+00  1.0000003844821161e+00  1.0001009809017973e+00  9.9983446459191150e-01  1.0001588417873621e+00  1.0000492759481479e+00  9.9997156536935317e-01  1.0000207826626195e+00  1.0001335587148386e+00  9.9991709860928657e-01  9.9993161597961322e-01  1.0001125240928419e+00  9.9996998351225053e-01  9.9990164991657704e-01  1.0001093690824472e+00  1.0000489647480935e+00  9.9989240765770038e-01  1.0000777153606744e+00  1.0000366926882271e+00  9.9993198931500449e-01  1.0000663924640119e+00  1.0000689012068817e+00  9.9991551918068500e-01  1.0000682456468275e+00  1.0000422050199109e+00  9.9991243101647798e-01  9.9999722949394410e-01  9.9999930870640674e-01  9.9984792953901380e-01  9.9994288886464600e-01  9.9994858794641539e-01  9.9987735387712551e-01  1.0000234471555514e+00  1.0001185308876477e+00  1.0001045254254211e+00  1.0002410213932369e+00  1.0002442419615158e+00  1.0001081102480227e+00  1.0000985731045580e+00  1.0000296389938605e+00  9.9991143160810747e-01  9.9993751891246951e-01  9.9991212139679042e-01  9.9986491060557148e-01  9.9994728453223614e-01  9.9996014136901423e-01  9.9992516467172288e-01  9.9998252449681158e-01  9.9999320402363190e-01  9.9997729628084586e-01  1.0000072981306900e+00  9.9998877231056083e-01  9.9998647519237582e-01  1.0000253572975297e+00  9.9999174380664957e-01  9.9997812264848263e-01  1.0000207037784785e+00  1.0000070189574310e+00  9.9998093916325370e-01  1.0000026710424557e+00  1.0000089895231237e+00  1.0000031798389772e+00  9.9998696565245682e-01  9.9999714070017298e-01  1.0000210434127481e+00  9.9999329065489551e-01  9.9997332202258760e-01  1.0000307109210975e+00  1.0000070360678768e+00  9.9996024723766785e-01  1.0000230211314738e+00  1.0000238416943283e+00  9.9995849347416421e-01  1.0000069792725679e+00  1.0000382653963029e+00  9.9995837248164643e-01  1.0000028554911722e+00  1.0000299173853149e+00  9.9998002817598730e-01  9.9998218930374927e-01  1.0000401208251739e+00  9.9997440908999413e-01  9.9999530174825779e-01  1.0000185143175926e+00  9.9999592734693177e-01  9.9998491923261845e-01  1.0000223056718929e+00  9.9999540265910192e-01  9.9999350974458834e-01  1.0000187192967454e+00  9.9999895947927619e-01  1.0000046682600727e+00  1.0000108174501861e+00  1.0000097934938681e+00  9.9999867411820198e-01  1.0000126824159092e+00  1.0000002072006542e+00  9.9999490348326814e-01  1.0000030775199695e+00  9.9999035409644821e-01  9.9998895398893084e-01  9.9999837083137155e-01  1.0000607791152583e+00  9.9991637867826777e-01  1.0000422536229983e+00  1.0000492759481479e+00  9.9986362532098194e-01  9.9996584489432905e-01  1.0000755162365751e+00  9.9986223139956087e-01  9.9996041029733396e-01  1.0000828471378786e+00  1.0000093814499604e+00  9.9988363733759933e-01  1.0001277310774601e+00  1.0000165114563544e+00  9.9990497963306968e-01  1.0000431562874712e+00  1.0000719203741166e+00  9.9990226774301483e-01  1.0000599291116556e+00  1.0000286878504565e+00  9.9992944697548558e-01  1.0000298173678368e+00  1.0000680535777273e+00  9.9991300112457659e-01  1.0000474820959699e+00  1.0000632780058525e+00  9.9997663149351101e-01  1.0000612961737922e+00  1.0001076822460964e+00  9.9999695609252759e-01  1.0000808024729519e+00  1.0000675602165201e+00  9.9992392745882819e-01  9.9991293010201854e-01  9.9986295672896441e-01  9.9974529983829452e-01  9.9982899780322254e-01  9.9990082416444492e-01  9.9990545893483740e-01  1.0000227967939856e+00  1.0000795839524534e+00  1.0000569215899000e+00  1.0001163093863705e+00  1.0001034679969376e+00  1.0000355338250644e+00  1.0000657026818096e+00  1.0000553715677001e+00  1.0000025077245778e+00  1.0000200708302751e+00  1.0000135815132734e+00  9.9999406118279721e-01  1.0000176425495666e+00  9.9999587129655032e-01  9.9998469092356201e-01  1.0000207264569021e+00  1.0000024305796358e+00  9.9997799674547871e-01  1.0000128115706415e+00  1.0000080873325443e+00  9.9998988600397432e-01  9.9999707494000967e-01  1.0000056148141632e+00  1.0000035771222706e+00  9.9999804923062041e-01  9.9998574871813717e-01  1.0000183413181227e+00  1.0000042006413441e+00  9.9997351284760627e-01  1.0000146032367268e+00  1.0000214966732612e+00  9.9996392883594509e-01  1.0000072703023826e+00  1.0000322399694903e+00  9.9996462776740069e-01  9.9999903949356950e-01  1.0000331848125608e+00  9.9997534815218247e-01  9.9998734583386240e-01  1.0000357768174093e+00  9.9997827429480945e-01  9.9998956823627061e-01  1.0000249031360102e+00  9.9998910615091252e-01  9.9998677142223780e-01  1.0000187988122780e+00  9.9999335325304284e-01  9.9998588671988287e-01  1.0000138643083856e+00  9.9998954227415660e-01  9.9999103741617923e-01  1.0000000856293638e+00  9.9999469496913973e-01  9.9998444995965208e-01  1.0000035531393778e+00  9.9999126465907906e-01  9.9999340635305967e-01  1.0000073559143621e+00  9.9999490348326803e-01  1.0000087600030159e+00  1.0000009342223533e+00  1.0000173823771228e+00  9.9982899524458357e-01  1.0000863597200531e+00  9.9998771707731904e-01  9.9997156536935372e-01  9.9996584489432905e-01  1.0001752066670067e+00  9.9991827793504451e-01  1.0000154069397500e+00  1.0001237110908157e+00  9.9999804960844663e-01  9.9990444095219377e-01  1.0000828251345331e+00  1.0000300380577285e+00  9.9986817930710004e-01  1.0000360564860100e+00  1.0000422020159947e+00  9.9989810477031760e-01  9.9999270063841428e-01  1.0000393495539033e+00  9.9989739462948013e-01  1.0000147057746160e+00  1.0000125583354680e+00  9.9990721239715330e-01  9.9997948184022289e-01  1.0000491727034024e+00  9.9991107243055810e-01  9.9999603877578591e-01  1.0000126782063781e+00  9.9993335946101214e-01  9.9998260558541885e-01  1.0000255201980508e+00  9.9992261226242174e-01  1.0000025603585554e+00  1.0000722537206528e+00  1.0000662917810303e+00  1.0001655387572987e+00  1.0002106522234975e+00  1.0001144605259749e+00  1.0001048826742682e+00  1.0000617395712150e+00  9.9994852318763572e-01  9.9993938482483091e-01  9.9992846884772635e-01  9.9988163936943653e-01  9.9993223895184602e-01  9.9995569912614868e-01  9.9992579867816755e-01  9.9997120703241427e-01  9.9999698378225321e-01  9.9997220702939993e-01  9.9999589935185318e-01  1.0000003500141019e+00  9.9998689945667663e-01  1.0000110932011861e+00  1.0000009990671241e+00  9.9998068657931560e-01  1.0000164065412558e+00  1.0000051073184637e+00  9.9998206205003648e-01  1.0000071785991140e+00  1.0000095219752798e+00  9.9998790399898674e-01  1.0000049195487120e+00  9.9999811189527144e-01  1.0000013802213907e+00  1.0000057555779942e+00  9.9998690849821770e-01  1.0000046725502327e+00  1.0000159274352380e+00  9.9997778463838682e-01  9.9999953375376938e-01  1.0000298762724091e+00  9.9996911031109770e-01  1.0000003386819052e+00  1.0000264944192743e+00  9.9998225816611752e-01  9.9998299689926051e-01  1.0000388450896569e+00  9.9997492438337210e-01  9.9999335022285307e-01  1.0000216605253305e+00  9.9999329159407158e-01  9.9998244099936529e-01  1.0000252448631259e+00  9.9999142840860922e-01  9.9998995278295821e-01  1.0000177839338407e+00  9.9999689314302420e-01  9.9999575443569855e-01  1.0000132290227925e+00  1.0000047027302850e+00  9.9999680310450878e-01  1.0000164946921941e+00  1.0000021672204211e+00  9.9999922368197591e-01  1.0000122304045147e+00  9.9999340635306033e-01  1.0000002072006542e+00  9.9999833954838679e-01  9.9999492462253836e-01  9.9999186371054749e-01  1.0000862854678310e+00  1.0000803500288169e+00  9.9991824621282765e-01  1.0000207826626195e+00  1.0000755162365751e+00  9.9991827793504440e-01  9.9992686248293761e-01  1.0000715841886931e+00  9.9995638601692505e-01  9.9985814685022356e-01  1.0000754769177704e+00  1.0000172530894080e+00  9.9989603455683573e-01  1.0000301687712212e+00  1.0001056875133911e+00  9.9992955825654972e-01  1.0000345058255251e+00  1.0000896713766940e+00  9.9998208185484050e-01  1.0000296842032135e+00  1.0000976542725517e+00  9.9997345616596134e-01  1.0000717904380856e+00  1.0001025570431592e+00  1.0000041381584104e+00  1.0000139604217932e+00  1.0000885700547508e+00  9.9997273579154777e-01  1.0000178595762852e+00  1.0000225212688951e+00  9.9994526679419138e-01  9.9996917107623939e-01  1.0000353940386277e+00  9.9994711172467543e-01  9.9994734897631321e-01  9.9992429006800043e-01  9.9983082321890449e-01  9.9984876207580820e-01  9.9990993086468205e-01  9.9989924186045742e-01  9.9997831254732317e-01  1.0000585542169711e+00  1.0000529323076996e+00  1.0000868831375020e+00  1.0001009015493707e+00  1.0000486188004949e+00  1.0000609092658503e+00  1.0000652784600370e+00  1.0000067119452871e+00  1.0000140421156283e+00  1.0000290573331141e+00  9.9999595581422629e-01  1.0000027072982047e+00  1.0000093374972281e+00  9.9998776399269274e-01  1.0000123903634703e+00  1.0000033642731481e+00  9.9998168573947566e-01  1.0000128778471613e+00  1.0000097957964968e+00  9.9997691702190905e-01  1.0000130262541556e+00  1.0000062861770940e+00  9.9998537032707469e-01  1.0000090340608385e+00  1.0000010790386753e+00  9.9999057540601077e-01  1.0000134827496954e+00  9.9999189241949393e-01  9.9999172689758120e-01  1.0000231346651984e+00  9.9998142099336229e-01  9.9999497539580229e-01  1.0000233340560400e+00  9.9998584850889360e-01  9.9998541566846622e-01  1.0000315264332391e+00  9.9998245795477159e-01  9.9998764258241946e-01  1.0000264306699516e+00  9.9998790096441592e-01  9.9998764139020713e-01  1.0000191403587457e+00  9.9999699680665710e-01  9.9998065505478673e-01  1.0000234615353074e+00  9.9998731860959911e-01  9.9999426745801256e-01  1.0000039591403651e+00  9.9999991011819889e-01  9.9998087384617329e-01  1.0000121686311798e+00  9.9998437539043572e-01  9.9999611049757919e-01  9.9999830494857589e-01  9.9999922368197580e-01  9.9999126465907906e-01  1.0000126824159086e+00  9.9999530363827860e-01  1.0000019148249417e+00  1.0000113288844021e+00  1.0000646006735809e+00  9.9989462046870370e-01  9.9994971075550654e-01  1.0001335587148383e+00  9.9986223139956110e-01  1.0000154069397502e+00  1.0000715841886934e+00  1.0000417633761949e+00  9.9991278874576361e-01  1.0001199139091193e+00  1.0000845621010803e+00  9.9990639405108572e-01  1.0000426528338799e+00  1.0000975890831407e+00  9.9991281321809877e-01  9.9995234948156075e-01  1.0000555864641738e+00  9.9992257070251622e-01  9.9994478015474964e-01  1.0000134625045822e+00  9.9992607469055672e-01  9.9993910860887680e-01  1.0000046412637047e+00  9.9987825793381346e-01  9.9992421779164475e-01  9.9999173098344485e-01  9.9995083990045175e-01  9.9994123539524349e-01  1.0000334542957454e+00  9.9997556318884839e-01  1.0000415513678007e+00  1.0000908076461352e+00  1.0000357207263404e+00  1.0000053794303578e+00  1.0000633732485869e+00  1.0000308492095189e+00  1.0000836239968267e+00  1.0001425925939251e+00  1.0001020513761776e+00  1.0000831244997992e+00  1.0000864064866419e+00  9.9999042913366709e-01  9.9994515343161894e-01  9.9994836201594461e-01  9.9990823145171315e-01  9.9992133576622166e-01  9.9995563295994427e-01  9.9992581410777459e-01  9.9995763428568141e-01  1.0000035154337321e+00  9.9996935214757210e-01  9.9997770386538709e-01  1.0000139879615768e+00  9.9998824442783396e-01  9.9999847815946130e-01  1.0000048363180147e+00  9.9998649058819600e-01  1.0000110359853409e+00  1.0000081205930593e+00  9.9997344299920654e-01  1.0000186023756905e+00  1.0000100168913861e+00  9.9997293015741506e-01  1.0000143119442961e+00  1.0000116479806198e+00  9.9997695171213485e-01  1.0000121545465050e+00  1.0000073011018193e+00  9.9998045404222313e-01  1.0000184837846204e+00  9.9999381963891376e-01  9.9999064420768757e-01  1.0000154879360685e+00  9.9999606898349169e-01  9.9998260896845437e-01  1.0000276251917133e+00  9.9998568002409149e-01  9.9998950271945619e-01  1.0000213821404986e+00  9.9999279782423611e-01  9.9998397427762575e-01  1.0000233033337640e+00  9.9999288314854184e-01  9.9998584820494218e-01  1.0000201711572119e+00  9.9999510584315532e-01  9.9998903915660575e-01  1.0000175553091109e+00  9.9999719730881109e-01  9.9999505563216329e-01  1.0000150700406560e+00  1.0000011372727429e+00  9.9999757624531038e-01  1.0000163376163302e+00  9.9999611049757964e-01  1.0000021672204207e+00  1.0000035531393781e+00  9.9999867411820176e-01  9.9998851526617261e-01  1.0000099488839742e+00  9.9998672730642746e-01  9.9997378799524028e-01  9.9996060750793347e-01  1.0001737547435401e+00  9.9991709860928679e-01  9.9996041029733396e-01  1.0001237110908154e+00  9.9995638601692449e-01  9.9991278874576361e-01  1.0000471570186886e+00  1.0000378554714442e+00  9.9985876742930468e-01  9.9996597317129576e-01  1.0000930023377155e+00  9.9988279657216417e-01  9.9994670670658370e-01  1.0000999657764895e+00  9.9999615082200777e-01  9.9997318492552123e-01  1.0000904546185099e+00  1.0000207966254542e+00  1.0000117280080782e+00  1.0000868591257