<?xml version="1.0"?>
<VTKFile type="UnstructuredGrid"  version="0.1"  >
<UnstructuredGrid>
<Piece  NumberOfPoints="10201" NumberOfCells="20000">
<Points>
<DataArray  type="Float64"  NumberOfComponents="3"  format="ascii">-5 -5 0  -4.9 -5 0  -4.8 -5 0  -4.7 -5 0  -4.6 -5 0  -4.5 -5 0  -4.4 -5 0  -4.3 -5 0  -4.2 -5 0  -4.1 -5 0  -4 -5 0  -3.9 -5 0  -3.8 -5 0  -3.7 -5 0  -3.6 -5 0  -3.5 -5 0  -3.4 -5 0  -3.3 -5 0  -3.2 -5 0  -3.1 -5 0  -3 -5 0  -2.9 -5 0  -2.8 -5 0  -2.7 -5 0  -2.6 -5 0  -2.5 -5 0  -2.4 -5 0  -2.3 -5 0  -2.2 -5 0  -2.1 -5 0  -2 -5 0  -1.9 -5 0  -1.8 -5 0  -1.7 -5 0  -1.6 -5 0  -1.5 -5 0  -1.4 -5 0  -1.3 -5 0  -1.2 -5 0  -1.1 -5 0  -1 -5 0  -0.9000000000000004 -5 0  -0.7999999999999998 -5 0  -0.7000000000000002 -5 0  -0.5999999999999996 -5 0  -0.5 -5 0  -0.4000000000000004 -5 0  -0.2999999999999998 -5 0  -0.2000000000000002 -5 0  -0.09999999999999964 -5 0  0 -5 0  0.09999999999999964 -5 0  0.2000000000000002 -5 0  0.2999999999999998 -5 0  0.4000000000000004 -5 0  0.5 -5 0  0.5999999999999996 -5 0  0.7000000000000002 -5 0  0.7999999999999998 -5 0  0.9000000000000004 -5 0  1 -5 0  1.1 -5 0  1.2 -5 0  1.3 -5 0  1.4 -5 0  1.5 -5 0  1.6 -5 0  1.7 -5 0  1.8 -5 0  1.9 -5 0  2 -5 0  2.1 -5 0  2.2 -5 0  2.3 -5 0  2.4 -5 0  2.5 -5 0  2.6 -5 0  2.7 -5 0  2.8 -5 0  2.9 -5 0  3 -5 0  3.1 -5 0  3.199999999999999 -5 0  3.300000000000001 -5 0  3.4 -5 0  3.5 -5 0  3.6 -5 0  3.699999999999999 -5 0  3.800000000000001 -5 0  3.9 -5 0  4 -5 0  4.1 -5 0  4.199999999999999 -5 0  4.300000000000001 -5 0  4.4 -5 0  4.5 -5 0  4.6 -5 0  4.699999999999999 -5 0  4.800000000000001 -5 0  4.9 -5 0  5 -5 0  -5 -4.9 0  -4.9 -4.9 0  -4.8 -4.9 0  -4.7 -4.9 0  -4.6 -4.9 0  -4.5 -4.9 0  -4.4 -4.9 0  -4.3 -4.9 0  -4.2 -4.9 0  -4.1 -4.9 0  -4 -4.9 0  -3.9 -4.9 0  -3.8 -4.9 0  -3.7 -4.9 0  -3.6 -4.9 0  -3.5 -4.9 0  -3.4 -4.9 0  -3.3 -4.9 0  -3.2 -4.9 0  -3.1 -4.9 0  -3 -4.9 0  -2.9 -4.9 0  -2.8 -4.9 0  -2.7 -4.9 0  -2.6 -4.9 0  -2.5 -4.9 0  -2.4 -4.9 0  -2.3 -4.9 0  -2.2 -4.9 0  -2.1 -4.9 0  -2 -4.9 0  -1.9 -4.9 0  -1.8 -4.9 0  -1.7 -4.9 0  -1.6 -4.9 0  -1.5 -4.9 0  -1.4 -4.9 0  -1.3 -4.9 0  -1.2 -4.9 0  -1.1 -4.9 0  -1 -4.9 0  -0.9000000000000004 -4.9 0  -0.7999999999999998 -4.9 0  -0.7000000000000002 -4.9 0  -0.5999999999999996 -4.9 0  -0.5 -4.9 0  -0.4000000000000004 -4.9 0  -0.2999999999999998 -4.9 0  -0.2000000000000002 -4.9 0  -0.09999999999999964 -4.9 0  0 -4.9 0  0.09999999999999964 -4.9 0  0.2000000000000002 -4.9 0  0.2999999999999998 -4.9 0  0.4000000000000004 -4.9 0  0.5 -4.9 0  0.5999999999999996 -4.9 0  0.7000000000000002 -4.9 0  0.7999999999999998 -4.9 0  0.9000000000000004 -4.9 0  1 -4.9 0  1.1 -4.9 0  1.2 -4.9 0  1.3 -4.9 0  1.4 -4.9 0  1.5 -4.9 0  1.6 -4.9 0  1.7 -4.9 0  1.8 -4.9 0  1.9 -4.9 0  2 -4.9 0  2.1 -4.9 0  2.2 -4.9 0  2.3 -4.9 0  2.4 -4.9 0  2.5 -4.9 0  2.6 -4.9 0  2.7 -4.9 0  2.8 -4.9 0  2.9 -4.9 0  3 -4.9 0  3.1 -4.9 0  3.199999999999999 -4.9 0  3.300000000000001 -4.9 0  3.4 -4.9 0  3.5 -4.9 0  3.6 -4.9 0  3.699999999999999 -4.9 0  3.800000000000001 -4.9 0  3.9 -4.9 0  4 -4.9 0  4.1 -4.9 0  4.199999999999999 -4.9 0  4.300000000000001 -4.9 0  4.4 -4.9 0  4.5 -4.9 0  4.6 -4.9 0  4.699999999999999 -4.9 0  4.800000000000001 -4.9 0  4.9 -4.9 0  5 -4.9 0  -5 -4.8 0  -4.9 -4.8 0  -4.8 -4.8 0  -4.7 -4.8 0  -4.6 -4.8 0  -4.5 -4.8 0  -4.4 -4.8 0  -4.3 -4.8 0  -4.2 -4.8 0  -4.1 -4.8 0  -4 -4.8 0  -3.9 -4.8 0  -3.8 -4.8 0  -3.7 -4.8 0  -3.6 -4.8 0  -3.5 -4.8 0  -3.4 -4.8 0  -3.3 -4.8 0  -3.2 -4.8 0  -3.1 -4.8 0  -3 -4.8 0  -2.9 -4.8 0  -2.8 -4.8 0  -2.7 -4.8 0  -2.6 -4.8 0  -2.5 -4.8 0  -2.4 -4.8 0  -2.3 -4.8 0  -2.2 -4.8 0  -2.1 -4.8 0  -2 -4.8 0  -1.9 -4.8 0  -1.8 -4.8 0  -1.7 -4.8 0  -1.6 -4.8 0  -1.5 -4.8 0  -1.4 -4.8 0  -1.3 -4.8 0  -1.2 -4.8 0  -1.1 -4.8 0  -1 -4.8 0  -0.9000000000000004 -4.8 0  -0.7999999999999998 -4.8 0  -0.7000000000000002 -4.8 0  -0.5999999999999996 -4.8 0  -0.5 -4.8 0  -0.4000000000000004 -4.8 0  -0.2999999999999998 -4.8 0  -0.2000000000000002 -4.8 0  -0.09999999999999964 -4.8 0  0 -4.8 0  0.09999999999999964 -4.8 0  0.2000000000000002 -4.8 0  0.2999999999999998 -4.8 0  0.4000000000000004 -4.8 0  0.5 -4.8 0  0.5999999999999996 -4.8 0  0.7000000000000002 -4.8 0  0.7999999999999998 -4.8 0  0.9000000000000004 -4.8 0  1 -4.8 0  1.1 -4.8 0  1.2 -4.8 0  1.3 -4.8 0  1.4 -4.8 0  1.5 -4.8 0  1.6 -4.8 0  1.7 -4.8 0  1.8 -4.8 0  1.9 -4.8 0  2 -4.8 0  2.1 -4.8 0  2.2 -4.8 0  2.3 -4.8 0  2.4 -4.8 0  2.5 -4.8 0  2.6 -4.8 0  2.7 -4.8 0  2.8 -4.8 0  2.9 -4.8 0  3 -4.8 0  3.1 -4.8 0  3.199999999999999 -4.8 0  3.300000000000001 -4.8 0  3.4 -4.8 0  3.5 -4.8 0  3.6 -4.8 0  3.699999999999999 -4.8 0  3.800000000000001 -4.8 0  3.9 -4.8 0  4 -4.8 0  4.1 -4.8 0  4.199999999999999 -4.8 0  4.300000000000001 -4.8 0  4.4 -4.8 0  4.5 -4.8 0  4.6 -4.8 0  4.699999999999999 -4.8 0  4.800000000000001 -4.8 0  4.9 -4.8 0  5 -4.8 0  -5 -4.7 0  -4.9 -4.7 0  -4.8 -4.7 0  -4.7 -4.7 0  -4.6 -4.7 0  -4.5 -4.7 0  -4.4 -4.7 0  -4.3 -4.7 0  -4.2 -4.7 0  -4.1 -4.7 0  -4 -4.7 0  -3.9 -4.7 0  -3.8 -4.7 0  -3.7 -4.7 0  -3.6 -4.7 0  -3.5 -4.7 0  -3.4 -4.7 0  -3.3 -4.7 0  -3.2 -4.7 0  -3.1 -4.7 0  -3 -4.7 0  -2.9 -4.7 0  -2.8 -4.7 0  -2.7 -4.7 0  -2.6 -4.7 0  -2.5 -4.7 0  -2.4 -4.7 0  -2.3 -4.7 0  -2.2 -4.7 0  -2.1 -4.7 0  -2 -4.7 0  -1.9 -4.7 0  -1.8 -4.7 0  -1.7 -4.7 0  -1.6 -4.7 0  -1.5 -4.7 0  -1.4 -4.7 0  -1.3 -4.7 0  -1.2 -4.7 0  -1.1 -4.7 0  -1 -4.7 0  -0.9000000000000004 -4.7 0  -0.7999999999999998 -4.7 0  -0.7000000000000002 -4.7 0  -0.5999999999999996 -4.7 0  -0.5 -4.7 0  -0.4000000000000004 -4.7 0  -0.2999999999999998 -4.7 0  -0.2000000000000002 -4.7 0  -0.09999999999999964 -4.7 0  0 -4.7 0  0.09999999999999964 -4.7 0  0.2000000000000002 -4.7 0  0.2999999999999998 -4.7 0  0.4000000000000004 -4.7 0  0.5 -4.7 0  0.5999999999999996 -4.7 0  0.7000000000000002 -4.7 0  0.7999999999999998 -4.7 0  0.9000000000000004 -4.7 0  1 -4.7 0  1.1 -4.7 0  1.2 -4.7 0  1.3 -4.7 0  1.4 -4.7 0  1.5 -4.7 0  1.6 -4.7 0  1.7 -4.7 0  1.8 -4.7 0  1.9 -4.7 0  2 -4.7 0  2.1 -4.7 0  2.2 -4.7 0  2.3 -4.7 0  2.4 -4.7 0  2.5 -4.7 0  2.6 -4.7 0  2.7 -4.7 0  2.8 -4.7 0  2.9 -4.7 0  3 -4.7 0  3.1 -4.7 0  3.199999999999999 -4.7 0  3.300000000000001 -4.7 0  3.4 -4.7 0  3.5 -4.7 0  3.6 -4.7 0  3.699999999999999 -4.7 0  3.800000000000001 -4.7 0  3.9 -4.7 0  4 -4.7 0  4.1 -4.7 0  4.199999999999999 -4.7 0  4.300000000000001 -4.7 0  4.4 -4.7 0  4.5 -4.7 0  4.6 -4.7 0  4.699999999999999 -4.7 0  4.800000000000001 -4.7 0  4.9 -4.7 0  5 -4.7 0  -5 -4.6 0  -4.9 -4.6 0  -4.8 -4.6 0  -4.7 -4.6 0  -4.6 -4.6 0  -4.5 -4.6 0  -4.4 -4.6 0  -4.3 -4.6 0  -4.2 -4.6 0  -4.1 -4.6 0  -4 -4.6 0  -3.9 -4.6 0  -3.8 -4.6 0  -3.7 -4.6 0  -3.6 -4.6 0  -3.5 -4.6 0  -3.4 -4.6 0  -3.3 -4.6 0  -3.2 -4.6 0  -3.1 -4.6 0  -3 -4.6 0  -2.9 -4.6 0  -2.8 -4.6 0  -2.7 -4.6 0  -2.6 -4.6 0  -2.5 -4.6 0  -2.4 -4.6 0  -2.3 -4.6 0  -2.2 -4.6 0  -2.1 -4.6 0  -2 -4.6 0  -1.9 -4.6 0  -1.8 -4.6 0  -1.7 -4.6 0  -1.6 -4.6 0  -1.5 -4.6 0  -1.4 -4.6 0  -1.3 -4.6 0  -1.2 -4.6 0  -1.1 -4.6 0  -1 -4.6 0  -0.9000000000000004 -4.6 0  -0.7999999999999998 -4.6 0  -0.7000000000000002 -4.6 0  -0.5999999999999996 -4.6 0  -0.5 -4.6 0  -0.4000000000000004 -4.6 0  -0.2999999999999998 -4.6 0  -0.2000000000000002 -4.6 0  -0.09999999999999964 -4.6 0  0 -4.6 0  0.09999999999999964 -4.6 0  0.2000000000000002 -4.6 0  0.2999999999999998 -4.6 0  0.4000000000000004 -4.6 0  0.5 -4.6 0  0.5999999999999996 -4.6 0  0.7000000000000002 -4.6 0  0.7999999999999998 -4.6 0  0.9000000000000004 -4.6 0  1 -4.6 0  1.1 -4.6 0  1.2 -4.6 0  1.3 -4.6 0  1.4 -4.6 0  1.5 -4.6 0  1.6 -4.6 0  1.7 -4.6 0  1.8 -4.6 0  1.9 -4.6 0  2 -4.6 0  2.1 -4.6 0  2.2 -4.6 0  2.3 -4.6 0  2.4 -4.6 0  2.5 -4.6 0  2.6 -4.6 0  2.7 -4.6 0  2.8 -4.6 0  2.9 -4.6 0  3 -4.6 0  3.1 -4.6 0  3.199999999999999 -4.6 0  3.300000000000001 -4.6 0  3.4 -4.6 0  3.5 -4.6 0  3.6 -4.6 0  3.699999999999999 -4.6 0  3.800000000000001 -4.6 0  3.9 -4.6 0  4 -4.6 0  4.1 -4.6 0  4.199999999999999 -4.6 0  4.300000000000001 -4.6 0  4.4 -4.6 0  4.5 -4.6 0  4.6 -4.6 0  4.699999999999999 -4.6 0  4.800000000000001 -4.6 0  4.9 -4.6 0  5 -4.6 0  -5 -4.5 0  -4.9 -4.5 0  -4.8 -4.5 0  -4.7 -4.5 0  -4.6 -4.5 0  -4.5 -4.5 0  -4.4 -4.5 0  -4.3 -4.5 0  -4.2 -4.5 0  -4.1 -4.5 0  -4 -4.5 0  -3.9 -4.5 0  -3.8 -4.5 0  -3.7 -4.5 0  -3.6 -4.5 0  -3.5 -4.5 0  -3.4 -4.5 0  -3.3 -4.5 0  -3.2 -4.5 0  -3.1 -4.5 0  -3 -4.5 0  -2.9 -4.5 0  -2.8 -4.5 0  -2.7 -4.5 0  -2.6 -4.5 0  -2.5 -4.5 0  -2.4 -4.5 0  -2.3 -4.5 0  -2.2 -4.5 0  -2.1 -4.5 0  -2 -4.5 0  -1.9 -4.5 0  -1.8 -4.5 0  -1.7 -4.5 0  -1.6 -4.5 0  -1.5 -4.5 0  -1.4 -4.5 0  -1.3 -4.5 0  -1.2 -4.5 0  -1.1 -4.5 0  -1 -4.5 0  -0.9000000000000004 -4.5 0  -0.7999999999999998 -4.5 0  -0.7000000000000002 -4.5 0  -0.5999999999999996 -4.5 0  -0.5 -4.5 0  -0.4000000000000004 -4.5 0  -0.2999999999999998 -4.5 0  -0.2000000000000002 -4.5 0  -0.09999999999999964 -4.5 0  0 -4.5 0  0.09999999999999964 -4.5 0  0.2000000000000002 -4.5 0  0.2999999999999998 -4.5 0  0.4000000000000004 -4.5 0  0.5 -4.5 0  0.5999999999999996 -4.5 0  0.7000000000000002 -4.5 0  0.7999999999999998 -4.5 0  0.9000000000000004 -4.5 0  1 -4.5 0  1.1 -4.5 0  1.2 -4.5 0  1.3 -4.5 0  1.4 -4.5 0  1.5 -4.5 0  1.6 -4.5 0  1.7 -4.5 0  1.8 -4.5 0  1.9 -4.5 0  2 -4.5 0  2.1 -4.5 0  2.2 -4.5 0  2.3 -4.5 0  2.4 -4.5 0  2.5 -4.5 0  2.6 -4.5 0  2.7 -4.5 0  2.8 -4.5 0  2.9 -4.5 0  3 -4.5 0  3.1 -4.5 0  3.199999999999999 -4.5 0  3.300000000000001 -4.5 0  3.4 -4.5 0  3.5 -4.5 0  3.6 -4.5 0  3.699999999999999 -4.5 0  3.800000000000001 -4.5 0  3.9 -4.5 0  4 -4.5 0  4.1 -4.5 0  4.199999999999999 -4.5 0  4.300000000000001 -4.5 0  4.4 -4.5 0  4.5 -4.5 0  4.6 -4.5 0  4.699999999999999 -4.5 0  4.800000000000001 -4.5 0  4.9 -4.5 0  5 -4.5 0  -5 -4.4 0  -4.9 -4.4 0  -4.8 -4.4 0  -4.7 -4.4 0  -4.6 -4.4 0  -4.5 -4.4 0  -4.4 -4.4 0  -4.3 -4.4 0  -4.2 -4.4 0  -4.1 -4.4 0  -4 -4.4 0  -3.9 -4.4 0  -3.8 -4.4 0  -3.7 -4.4 0  -3.6 -4.4 0  -3.5 -4.4 0  -3.4 -4.4 0  -3.3 -4.4 0  -3.2 -4.4 0  -3.1 -4.4 0  -3 -4.4 0  -2.9 -4.4 0  -2.8 -4.4 0  -2.7 -4.4 0  -2.6 -4.4 0  -2.5 -4.4 0  -2.4 -4.4 0  -2.3 -4.4 0  -2.2 -4.4 0  -2.1 -4.4 0  -2 -4.4 0  -1.9 -4.4 0  -1.8 -4.
[...]
<PointData  Scalars="f_27-1"> 
<DataArray  type="Float64"  Name="f_27-1"  format="ascii">1.0001201494375280e+00  9.9960152990257800e-01  1.0002477090517838e+00  1.0000268207888974e+00  9.9981268304872284e-01  1.0001340982615772e+00  9.9993257849978279e-01  1.0000550585723322e+00  9.9997270835935526e-01  9.9994744642038813e-01  1.0000355950452597e+00  9.9998194148729502e-01  9.9996565275979521e-01  1.0000799452514113e+00  9.9986960715799089e-01  1.0000714893675817e+00  1.0000628482016960e+00  9.9984023693015223e-01  1.0001137191339629e+00  1.0000133804211038e+00  9.9990837793110721e-01  1.0000803743223121e+00  9.9997150470784713e-01  9.9987808439610870e-01  1.0001260289305969e+00  9.9994397119455325e-01  9.9993709833943223e-01  1.0000603673904611e+00  9.9998571114045176e-01  9.9996624460451822e-01  1.0001291642535641e+00  9.9992833765807898e-01  9.9993497209647431e-01  9.9999152146349612e-01  9.9991817409555783e-01  9.9995883756411141e-01  1.0001290225188453e+00  1.0000316878355786e+00  1.0000764772296944e+00  1.0000724080130472e+00  9.9989677514512720e-01  9.9988708233064905e-01  9.9993435174316159e-01  9.9983221667891231e-01  9.9991172204743084e-01  9.9998595476671015e-01  9.9994770981474002e-01  1.0000534766584290e+00  1.0000733463547882e+00  9.9998883074994283e-01  1.0000694071864944e+00  1.0000824391777126e+00  9.9998301266333167e-01  1.0000369151089519e+00  1.0000312917166474e+00  9.9998287057669777e-01  1.0000354488935828e+00  1.0000007738138463e+00  9.9996174430077145e-01  1.0000485262817889e+00  1.0000046812621144e+00  9.9994561067571874e-01  1.0000426673050826e+00  1.0000123358844406e+00  9.9995920154732765e-01  1.0000198289463671e+00  1.0000137566677973e+00  9.9997253756862992e-01  1.0000235438816334e+00  9.9998678393935259e-01  9.9999042459350829e-01  1.0000304987276054e+00  9.9997169443375722e-01  9.9998614470852643e-01  1.0000384706361323e+00  9.9997556374172869e-01  9.9996455521203853e-01  1.0000500139659889e+00  9.9997300076637841e-01  9.9997709108580768e-01  1.0000260457996446e+00  1.0000034516695442e+00  9.9998511413223945e-01  1.0000157453599892e+00  1.0000207300303599e+00  9.9999320419572912e-01  1.0000132820298935e+00  9.9999423705336898e-01  1.0000213877458852e+00  9.9997886845911887e-01  9.9998865969897222e-01  1.0000321594367401e+00  9.9997508591370277e-01  9.9998514007645123e-01  1.0000442534905301e+00  9.9997718979509786e-01  9.9997236846951199e-01  1.0000506771642288e+00  9.9996885931260460e-01  9.9997269592016591e-01  1.0000542377611819e+00  9.9960152990257878e-01  1.0002703549117813e+00  1.0001078966883838e+00  9.9973453893256758e-01  1.0001914995699817e+00  9.9998683829503654e-01  9.9996363541109290e-01  1.0000429074553967e+00  9.9992888075618058e-01  1.0000824926756908e+00  9.9999489569967470e-01  9.9995913956921589e-01  1.0000782241922692e+00  9.9992652143082028e-01  1.0000425877027874e+00  1.0000772378414919e+00  9.9985582156184438e-01  1.0000952071105691e+00  1.0000458295405337e+00  9.9987075224763333e-01  1.0000866045052810e+00  1.0000039248833610e+00  9.9992076506043515e-01  1.0001402914235213e+00  9.9998018270283628e-01  9.9992779482388261e-01  1.0001057444160719e+00  9.9998777879855583e-01  9.9995523588291457e-01  1.0000673410799799e+00  9.9992375451167048e-01  9.9994389419709440e-01  1.0001046871225152e+00  1.0000185402129267e+00  1.0000442812607635e+00  1.0001062375347896e+00  9.9994413339370358e-01  9.9990946488604582e-01  9.9996758576690881e-01  9.9988239298545212e-01  9.9999911855272416e-01  1.0001252826373417e+00  1.0000570454648041e+00  1.0001062378073116e+00  1.0001395028747246e+00  1.0000119494947997e+00  1.0000229538051280e+00  9.9999306301445101e-01  9.9988310132358194e-01  9.9995373497472506e-01  9.9996421363225896e-01  9.9987544408556484e-01  9.9995614844713210e-01  9.9998607308001963e-01  9.9993344084023050e-01  9.9999592317619601e-01  9.9998646039351902e-01  9.9995779508848581e-01  1.0000342130597089e+00  9.9999528721376796e-01  9.9994735781005550e-01  1.0000449414806944e+00  1.0000101407419502e+00  9.9994989594363248e-01  1.0000288663855021e+00  1.0000155982188639e+00  9.9996719709920168e-01  1.0000189584189076e+00  1.0000010456281991e+00  9.9998420602293003e-01  1.0000278607294957e+00  9.9997939850954365e-01  9.9999164695989184e-01  1.0000401117534221e+00  9.9997715307738777e-01  9.9998103778701031e-01  1.0000524151471049e+00  9.9998341443278438e-01  9.9997606433895814e-01  1.0000434613469027e+00  9.9999344095495390e-01  9.9997725308452601e-01  1.0000148506268578e+00  9.9999982806639565e-01  9.9997823661652141e-01  9.9999499907239509e-01  9.9999527406327371e-01  1.0000003803802093e+00  9.9998709444800993e-01  9.9999513453949040e-01  1.0000286053739655e+00  9.9998161975121613e-01  9.9998811648328967e-01  1.0000395661352719e+00  9.9997520738748902e-01  9.9997757067949189e-01  1.0000480806073233e+00  9.9997845088418935e-01  9.9997450845914526e-01  1.0000568748093512e+00  9.9997269592016536e-01  1.0002477090517847e+00  1.0001078966883830e+00  9.9969644101231936e-01  1.0001640164782963e+00  1.0000240516219252e+00  9.9988555491415443e-01  1.0000563396908215e+00  9.9997419554761635e-01  1.0000127390693310e+00  1.0000399439216086e+00  9.9987944863885347e-01  1.0000995110711135e+00  9.9992822149820704e-01  1.0000132691748547e+00  1.0000530784788677e+00  9.9988145965751407e-01  1.0000661767537191e+00  1.0000466074463341e+00  9.9988172764256611e-01  1.0000607887235429e+00  1.0000470570056823e+00  9.9989202181039827e-01  1.0001083972782501e+00  9.9994679149290011e-01  9.9991859026398022e-01  1.0000771488822107e+00  9.9999117260600923e-01  9.9991411182286272e-01  1.0000801533812349e+00  9.9994614870575116e-01  1.0000010000714701e+00  1.0000904165953042e+00  9.9998749579800561e-01  9.9992367676708416e-01  1.0000185690630312e+00  9.9988556896398628e-01  9.9996053243789806e-01  1.0000660206110681e+00  1.0000266655693204e+00  1.0000434764567436e+00  1.0000677282226913e+00  9.9987822208045440e-01  9.9986644945483194e-01  9.9988104624159058e-01  9.9979384482760603e-01  9.9985884564795657e-01  9.9993065262021907e-01  9.9990634667209932e-01  1.0000171381501111e+00  1.0000542241183474e+00  9.9997917448881701e-01  1.0000614355855035e+00  1.0000753424767475e+00  9.9999548300141927e-01  1.0000353101758215e+00  1.0000327208213058e+00  9.9998389985195846e-01  1.0000391865657408e+00  1.0000014042491558e+00  9.9996072363655852e-01  1.0000464774544808e+00  1.0000062688108948e+00  9.9995035856609915e-01  1.0000321566644910e+00  1.0000197368774382e+00  9.9995726934575213e-01  1.0000222849514460e+00  1.0000058508184879e+00  9.9998237872146445e-01  1.0000172733030352e+00  9.9998992850279322e-01  9.9998777927427385e-01  1.0000319196648129e+00  9.9997532559807922e-01  9.9997904427021844e-01  1.0000459398200718e+00  9.9996883919326540e-01  9.9997640891086259e-01  1.0000319247418130e+00  9.9999163624033494e-01  9.9996480030429968e-01  1.0000295600480644e+00  1.0000006331549884e+00  9.9998483488902812e-01  1.0000198470798007e+00  1.0000037315508536e+00  1.0000184385636830e+00  9.9998956344440448e-01  1.0000114570794894e+00  1.0000165645849537e+00  9.9998120847196748e-01  9.9998928559188927e-01  1.0000303950273710e+00  9.9997670760611157e-01  9.9998108831709187e-01  1.0000460577526324e+00  9.9997630674088733e-01  9.9997602513225570e-01  1.0000466402768287e+00  9.9997450845914371e-01  9.9996885931260571e-01  1.0000268207888976e+00  9.9973453893256670e-01  1.0001640164782970e+00  1.0000561458610500e+00  9.9988452560880625e-01  1.0000648157251515e+00  1.0000184251278537e+00  9.9997327236222222e-01  1.0000489576769069e+00  9.9991341708187376e-01  1.0000707963236961e+00  1.0000164549450326e+00  9.9994687586564379e-01  1.0000826325194030e+00  9.9991483605277698e-01  1.0000511140243526e+00  1.0000530506543512e+00  9.9990604734765143e-01  1.0000504639236079e+00  1.0000598257316000e+00  9.9990059102860585e-01  1.0000738341756896e+00  9.9998993571257233e-01  9.9994352222785210e-01  1.0000958583343655e+00  9.9999814169516177e-01  9.9992818876455936e-01  1.0000760504513191e+00  9.9997894095203255e-01  9.9997713475364758e-01  1.0000629602987807e+00  9.9994559126396299e-01  9.9995385721481700e-01  1.0000551901789874e+00  9.9999519539150172e-01  1.0000019852339164e+00  1.0000605856196374e+00  9.9990821609940206e-01  9.9988783231701661e-01  9.9989453203780221e-01  9.9983513195323614e-01  9.9992393604536955e-01  1.0000656996829647e+00  1.0000435977699516e+00  1.0001408472383664e+00  1.0001991192228092e+00  1.0001487311216852e+00  1.0001904049250412e+00  1.0001948344947942e+00  1.0001134632523734e+00  1.0001818583468058e+00  1.0001893664535122e+00  1.0001057632491965e+00  1.0001494397363258e+00  1.0001476313110860e+00  1.0000820430979231e+00  1.0001049134180877e+00  1.0000705829817949e+00  1.0000158196868540e+00  1.0000750239467846e+00  1.0000223852399333e+00  9.9996985637909841e-01  1.0000423452976104e+00  1.0000220275334128e+00  9.9995701630235556e-01  1.0000233722075103e+00  1.0000148802429538e+00  9.9997420544436200e-01  1.0000169960304000e+00  9.9999550199595910e-01  9.9999172874708164e-01  1.0000217657898001e+00  9.9998595421267111e-01  9.9998359699328054e-01  1.0000455262876911e+00  9.9997467912665527e-01  9.9998454207672927e-01  1.0000436837979234e+00  9.9999061732816885e-01  9.9997790880283532e-01  1.0000326518086582e+00  1.0000047450724221e+00  9.9997271042582125e-01  1.0000201486459728e+00  9.9999094785056308e-01  9.9999362877838815e-01  9.9998686525713909e-01  9.9999218849112070e-01  1.0000116138344570e+00  9.9997499949244684e-01  9.9999774692254750e-01  1.0000282843087844e+00  9.9997989218301098e-01  9.9998800611699179e-01  1.0000407944366598e+00  9.9997644890118143e-01  9.9997708601323709e-01  1.0000474427545183e+00  9.9997602513225559e-01  9.9997845088419013e-01  1.0000506771642295e+00  9.9981268304872128e-01  1.0001914995699821e+00  1.0000240516219250e+00  9.9988452560880547e-01  1.0000452261869821e+00  1.0000132331259068e+00  9.9994304638709486e-01  1.0000531911640762e+00  9.9992436223600756e-01  1.0000577245249263e+00  1.0000149062906485e+00  9.9993551671934577e-01  1.0000259313933226e+00  9.9999575780390637e-01  9.9997695303045375e-01  1.0000595487332011e+00  9.9992464940409631e-01  1.0000122603829031e+00  1.0000674698220908e+00  9.9989464313752607e-01  1.0000528427036053e+00  9.9999500112371964e-01  9.9995711321519232e-01  1.0000444580256331e+00  9.9999178949336798e-01  9.9991712010121525e-01  1.0000746300505081e+00  9.9998250620240647e-01  9.9998449043436954e-01  1.0000409547303650e+00  9.9997691753039597e-01  9.9996586282439348e-01  1.0000566740463428e+00  9.9993136573212715e-01  9.9992432450623037e-01  9.9992198197024296e-01  9.9986161310733257e-01  9.9989129236055441e-01  1.0000290007993033e+00  1.0000397361070159e+00  1.0001901731438225e+00  1.0003076945726255e+00  1.0003504956917242e+00  1.0005036199121609e+00  1.0007167115256477e+00  1.0008528854023562e+00  1.0011136038165414e+00  1.0013360742165160e+00  1.0014637194492424e+00  1.0016424916968016e+00  1.0017045330920744e+00  1.0016222143265621e+00  1.0015959348888905e+00  1.0014762733434626e+00  1.0012473887339055e+00  1.0010917494151841e+00  1.0008894301242011e+00  1.0006661343681216e+00  1.0005461459087841e+00  1.0003724783534256e+00  1.0002198282007111e+00  1.0002027990500970e+00  1.0001170948034928e+00  1.0000189051685076e+00  1.0000593578282553e+00  1.0000349811441809e+00  9.9997984659223149e-01  1.0000173844351243e+00  1.0000074305510755e+00  9.9998634632961592e-01  1.0000181817784219e+00  9.9998783002072023e-01  9.9998826769261817e-01  1.0000318352297413e+00  9.9997684381599039e-01  9.9998145435926400e-01  1.0000358992660252e+00  9.9998305742263038e-01  9.9996859202563204e-01  1.0000333788440061e+00  9.9998919356360394e-01  9.9997437843582182e-01  1.0000185539128184e+00  1.0000005403878007e+00  9.9999398145193164e-01  1.0000045777951103e+00  1.0000120419762220e+00  1.0000100017573084e+00  1.0000002190441619e+00  9.9999738738771438e-01  1.0000312892671490e+00  9.9997858688006391e-01  9.9998862742283623e-01  1.0000354350507592e+00  9.9997460540748051e-01  9.9997956106066654e-01  1.0000440977513385e+00  9.9997708601323632e-01  9.9997630674088789e-01  1.0000480806073235e+00  9.9997236846951121e-01  1.0001340982615767e+00  9.9998683829503721e-01  9.9988555491415376e-01  1.0000648157251515e+00  1.0000132331259071e+00  9.9995736784814493e-01  1.0000737622302398e+00  9.9993348868675669e-01  1.0000408369110008e+00  1.0000424454750347e+00  9.9991902516811404e-01  1.0000421334857093e+00  1.0000268418631395e+00  9.9997680680190548e-01  1.0000137677936469e+00  1.0000015236148461e+00  9.9996281167568934e-01  1.0000831747300136e+00  9.9992641867423915e-01  1.0000266463677645e+00  1.0000292013135104e+00  9.9996864430351695e-01  1.0000317742824403e+00  1.0000038803485098e+00  9.9995564083266886e-01  1.0000683655490903e+00  9.9999190380961323e-01  9.9997419480243910e-01  1.0000174584773609e+00  9.9996212275783380e-01  9.9995712269177039e-01  9.9999308609407300e-01  9.9990228594848374e-01  9.9989786605161601e-01  9.9996015399753591e-01  9.9995507952348339e-01  1.0001021011301852e+00  1.0002865956467779e+00  1.0004961496833211e+00  1.0008431441041508e+00  1.0013445725937133e+00  1.0018712838849950e+00  1.0026361246886499e+00  1.0034321319638790e+00  1.0041979666587213e+00  1.0049697542623857e+00  1.0056598145625844e+00  1.0061451279499569e+00  1.0065746409669076e+00  1.0067864304660130e+00  1.0067850464158874e+00  1.0066985971442586e+00  1.0064090977434930e+00  1.0059077158840062e+00  1.0053696472339506e+00  1.0047129778738904e+00  1.0039607207640719e+00  1.0032782134368663e+00  1.0025699414661258e+00  1.0019248160423027e+00  1.0014427325182325e+00  1.0009939899318394e+00  1.0006143972691928e+00  1.0004403993568869e+00  1.0002623105670316e+00  1.0001105146745761e+00  1.0000890306185555e+00  1.0000488289358060e+00  1.0000018935108714e+00  1.0000193389029957e+00  1.0000015502933091e+00  9.9998755323549993e-01  1.0000294505642360e+00  9.9998008793970361e-01  9.9999093111496540e-01  1.0000315466126433e+00  9.9999104705553843e-01  9.9997558439792933e-01  1.0000405225481197e+00  9.9999589199808236e-01  9.9997766143062838e-01  1.0000308782386826e+00  9.9999707105546665e-01  9.9999296503067725e-01  9.9999901983140971e-01  1.0000063093902507e+00  9.9999029798142680e-01  9.9998910820155729e-01  9.9999381648225194e-01  1.0000069096230220e+00  9.9998483727514098e-01  9.9998403094379473e-01  1.0000327744084969e+00  9.9997983388679001e-01  9.9998281036658121e-01  1.0000430167774765e+00  9.9997956106066688e-01  9.9997644890118176e-01  1.0000460577526333e+00  9.9997757067949133e-01  9.9997718979509909e-01  9.9993257849978301e-01  9.9996363541109201e-01  1.0000563396908206e+00  1.0000184251278539e+00  9.9994304638709430e-01  1.0000737622302398e+00  9.9990763691830165e-01  1.0000182629206984e+00  1.0000547042630610e+00  9.9991200818270976e-01  1.0000186333692325e+00  1.0000735831374108e+00  9.9991655636666132e-01  1.0000123713355409e+00  1.0000165616351262e+00  9.9995997740572284e-01  1.0000469270778056e+00  9.9997230148636673e-01  9.9998462667996713e-01  1.0000244887224357e+00  9.9998886644112162e-01  9.9997644720805612e-01  1.0000170313086132e+00  9.9995569721718192e-01  1.0000479152319766e+00  9.9997815274782043e-01  9.9998125353197542e-01  1.0000045001060789e+00  9.9997149411270003e-01  9.9996054298632797e-01  9.9996690105731967e-01  9.9989338791757665e-01  9.9994831668214645e-01  1.0000549530842375e+00  1.0002354945025198e+00  1.0006110140872313e+00  1.0011960264230799e+00  1.0019552416273516e+00  1.0030858910705940e+00  1.0044351191467553e+00  1.0060163129744617e+00  1.0077876915731980e+00  1.0096537053436079e+00  1.0114581436211902e+00  1.0132940354233808e+00  1.0149649096757529e+00  1.0164396232371273e+00  1.0177075210620987e+00  1.0186672535008903e+00  1.0192377105022767e+00  1.0195055708839835e+00  1.0193320870316265e+00  1.0187352135286336e+00  1.0178268486964919e+00  1.0165555455895252e+00  1.0149542445066055e+00  1.0132040760054069e+00  1.0112893440358428e+00  1.0093245271954367e+00  1.0074797583039925e+00  1.0057358715012668e+00  1.0041955735304329e+00  1.0029985560900316e+00  1.0020118066652763e+00  1.0012474369541011e+00  1.0007912774823009e+00  1.0004564705949910e+00  1.0002225491729007e+00  1.0001311563401591e+00  1.0000622322225785e+00  1.0000121762330509e+00  1.0000298918801964e+00  9.9999232967018015e-01  9.9998879107879335e-01  1.0000271718558054e+00  9.9998679606585672e-01  9.9997772826850506e-01  1.0000295588770627e+00  9.9999097931408665e-01  9.9997194876087903e-01  1.0000230265407832e+00  9.9999458717064926e-01  9.9998203342267833e-01  1.0000064996357860e+00  1.0000056528240071e+00  9.9999408486996477e-01  1.0000022663527133e+00  1.0000053517956264e+00  1.0000158593571231e+00  9.9999218935765743e-01  1.0000030116041496e+00  1.0000239042488468e+00  9.9999063862402848e-01  9.9998513816970069e-01  1.0000357900368524e+00  9.9998281036658121e-01  9.9997460540748073e-01  1.0000407944366596e+00  9.9998108831709087e-01  9.9997520738748902e-01  1.0000442534905294e+00  1.0000550585723313e+00  1.0000429074553958e+00  9.9997419554761613e-01  9.9997327236222222e-01  1.0000531911640769e+00  9.9993348868675713e-01  1.0000182629206980e+00  1.0000890238469839e+00  9.9990919943854617e-01  1.0000071030201563e+00  1.0001070290046006e+00  9.9990949717532829e-01  9.9998461948362338e-01  1.0000965520847847e+00  9.9991081747088684e-01  1.0000620007497212e+00  9.9998054082617338e-01  9.9998617104179743e-01  1.0000137847725219e+00  1.0000272126972953e+00  9.9996203521721172e-01  1.0000266906050255e+00  1.0000080904177895e+00  1.0000218636089779e+00  9.9999495316211107e-01  9.9998352766415044e-01  9.9998481658070804e-01  9.9994555761783754e-01  9.9993036279088132e-01  9.9992234667866864e-01  9.9991965192730892e-01  1.0001217755579090e+00  1.0004508035415201e+00  1.0010296945628239e+00  1.0020176985655951e+00  1.0033856480901302e+00  1.0052500894525216e+00  1.0076478373551119e+00  1.0104706736758939e+00  1.0136160616564713e+00  1.0170762258069348e+00  1.0205645205675089e+00  1.0240672991181234e+00  1.0274204196994676e+00  1.0305088627330428e+00  1.0331850567923093e+00  1.0354908181991311e+00  1.0372554877094411e+00  1.0385331249909844e+00  1.0393212700447791e+00  1.0396007981745881e+00  1.0393614000203850e+00  1.0386816548113404e+00  1.0374705293304083e+00  1.0357386842693328e+00  1.0335579609984922e+00  1.0308774428954681e+00  1.0277533292569552e+00  1.0243290331075645e+00  1.0206706827408958e+00  1.0169407692082482e+00  1.0134047521993197e+00  1.0101239477797386e+00  1.0072756930090094e+00  1.0050202872674958e+00  1.0032687418679105e+00  1.0019828289053405e+00  1.0011728264026181e+00  1.0006423535441926e+00  1.0003107177750974e+00  1.0001697785158574e+00  1.0000641554642249e+00  1.0000178827858013e+00  1.0000298783943407e+00  9.9999944183254874e-01  9.9998047125641876e-01  1.0000318253226965e+00  9.9999337469465022e-01  9.9998337731620646e-01  1.0000236185296183e+00  1.0000043277867792e+00  9.9998613201884812e-01  1.0000117977175216e+00  1.0000114250872778e+00  9.9998635779105993e-01  1.0000059577723539e+00  9.9999721374338479e-01  1.0000021612066554e+00  9.9998728758287236e-01  9.9999190520010883e-01  1.0000138431937249e+00  9.9997977634978918e-01  9.9998886333894366e-01  1.0000223580411376e+00  9.9998513816970103e-01  9.9997983388678968e-01  1.0000354350507590e+00  9.9998800611699057e-01  9.9997670760611213e-01  1.0000395661352721e+00  9.9998514007645123e-01  9.9997270835935326e-01  9.9992888075618036e-01  1.0000127390693303e+00  1.0000489576769065e+00  9.9992436223600689e-01  1.0000408369110010e+00  1.0000547042630605e+00  9.9990919943854584e-01  9.9996765363903040e-01  1.0001245010044848e+00  9.9989087987895431e-01  9.9996211381804623e-01  1.0001274428968185e+00  9.9990283023632220e-01  1.0000032355623305e+00  1.0000443426504273e+00  9.9993494012210438e-01  1.0000326188112285e+00  1.0000284618389157e+00  9.9994305017073004e-01  1.0000226249932773e+00  1.0000129846718