<?xml version="1.0"?>
<VTKFile type="UnstructuredGrid"  version="0.1"  >
<UnstructuredGrid>
<Piece  NumberOfPoints="801" NumberOfCells="800">
<Points>
<DataArray  type="Float64"  NumberOfComponents="3"  format="ascii">-5 0 0  -4.9875 0 0  -4.975 0 0  -4.9625 0 0  -4.95 0 0  -4.9375 0 0  -4.925 0 0  -4.9125 0 0  -4.9 0 0  -4.8875 0 0  -4.875 0 0  -4.8625 0 0  -4.85 0 0  -4.8375 0 0  -4.825 0 0  -4.8125 0 0  -4.8 0 0  -4.7875 0 0  -4.775 0 0  -4.7625 0 0  -4.75 0 0  -4.7375 0 0  -4.725 0 0  -4.7125 0 0  -4.7 0 0  -4.6875 0 0  -4.675 0 0  -4.6625 0 0  -4.65 0 0  -4.6375 0 0  -4.625 0 0  -4.6125 0 0  -4.6 0 0  -4.5875 0 0  -4.575 0 0  -4.5625 0 0  -4.55 0 0  -4.5375 0 0  -4.525 0 0  -4.5125 0 0  -4.5 0 0  -4.4875 0 0  -4.475 0 0  -4.4625 0 0  -4.45 0 0  -4.4375 0 0  -4.425 0 0  -4.4125 0 0  -4.4 0 0  -4.3875 0 0  -4.375 0 0  -4.3625 0 0  -4.35 0 0  -4.3375 0 0  -4.325 0 0  -4.3125 0 0  -4.3 0 0  -4.2875 0 0  -4.275 0 0  -4.2625 0 0  -4.25 0 0  -4.2375 0 0  -4.225 0 0  -4.2125 0 0  -4.2 0 0  -4.1875 0 0  -4.175 0 0  -4.1625 0 0  -4.15 0 0  -4.1375 0 0  -4.125 0 0  -4.1125 0 0  -4.1 0 0  -4.0875 0 0  -4.075 0 0  -4.0625 0 0  -4.05 0 0  -4.0375 0 0  -4.025 0 0  -4.0125 0 0  -4 0 0  -3.9875 0 0  -3.975 0 0  -3.9625 0 0  -3.95 0 0  -3.9375 0 0  -3.925 0 0  -3.9125 0 0  -3.9 0 0  -3.8875 0 0  -3.875 0 0  -3.8625 0 0  -3.85 0 0  -3.8375 0 0  -3.825 0 0  -3.8125 0 0  -3.8 0 0  -3.7875 0 0  -3.775 0 0  -3.7625 0 0  -3.75 0 0  -3.7375 0 0  -3.725 0 0  -3.7125 0 0  -3.7 0 0  -3.6875 0 0  -3.675 0 0  -3.6625 0 0  -3.65 0 0  -3.6375 0 0  -3.625 0 0  -3.6125 0 0  -3.6 0 0  -3.5875 0 0  -3.575 0 0  -3.5625 0 0  -3.55 0 0  -3.5375 0 0  -3.525 0 0  -3.5125 0 0  -3.5 0 0  -3.4875 0 0  -3.475 0 0  -3.4625 0 0  -3.45 0 0  -3.4375 0 0  -3.425 0 0  -3.4125 0 0  -3.4 0 0  -3.3875 0 0  -3.375 0 0  -3.3625 0 0  -3.35 0 0  -3.3375 0 0  -3.325 0 0  -3.3125 0 0  -3.3 0 0  -3.2875 0 0  -3.275 0 0  -3.2625 0 0  -3.25 0 0  -3.2375 0 0  -3.225 0 0  -3.2125 0 0  -3.2 0 0  -3.1875 0 0  -3.175 0 0  -3.1625 0 0  -3.15 0 0  -3.1375 0 0  -3.125 0 0  -3.1125 0 0  -3.1 0 0  -3.0875 0 0  -3.075 0 0  -3.0625 0 0  -3.05 0 0  -3.0375 0 0  -3.025 0 0  -3.0125 0 0  -3 0 0  -2.9875 0 0  -2.975 0 0  -2.9625 0 0  -2.95 0 0  -2.9375 0 0  -2.925 0 0  -2.9125 0 0  -2.9 0 0  -2.8875 0 0  -2.875 0 0  -2.8625 0 0  -2.85 0 0  -2.8375 0 0  -2.825 0 0  -2.8125 0 0  -2.8 0 0  -2.7875 0 0  -2.775 0 0  -2.7625 0 0  -2.75 0 0  -2.7375 0 0  -2.725 0 0  -2.7125 0 0  -2.7 0 0  -2.6875 0 0  -2.675 0 0  -2.6625 0 0  -2.65 0 0  -2.6375 0 0  -2.625 0 0  -2.6125 0 0  -2.6 0 0  -2.5875 0 0  -2.575 0 0  -2.5625 0 0  -2.55 0 0  -2.5375 0 0  -2.525 0 0  -2.5125 0 0  -2.5 0 0  -2.4875 0 0  -2.475 0 0  -2.4625 0 0  -2.45 0 0  -2.4375 0 0  -2.425 0 0  -2.4125 0 0  -2.4 0 0  -2.3875 0 0  -2.375 0 0  -2.3625 0 0  -2.35 0 0  -2.3375 0 0  -2.325 0 0  -2.3125 0 0  -2.3 0 0  -2.2875 0 0  -2.275 0 0  -2.2625 0 0  -2.25 0 0  -2.2375 0 0  -2.225 0 0  -2.2125 0 0  -2.2 0 0  -2.1875 0 0  -2.175 0 0  -2.1625 0 0  -2.15 0 0  -2.1375 0 0  -2.125 0 0  -2.1125 0 0  -2.1 0 0  -2.0875 0 0  -2.075 0 0  -2.0625 0 0  -2.05 0 0  -2.0375 0 0  -2.025 0 0  -2.0125 0 0  -2 0 0  -1.9875 0 0  -1.975 0 0  -1.9625 0 0  -1.95 0 0  -1.9375 0 0  -1.925 0 0  -1.9125 0 0  -1.9 0 0  -1.8875 0 0  -1.875 0 0  -1.8625 0 0  -1.85 0 0  -1.8375 0 0  -1.825 0 0  -1.8125 0 0  -1.8 0 0  -1.7875 0 0  -1.775 0 0  -1.7625 0 0  -1.75 0 0  -1.7375 0 0  -1.725 0 0  -1.7125 0 0  -1.7 0 0  -1.6875 0 0  -1.675 0 0  -1.6625 0 0  -1.65 0 0  -1.6375 0 0  -1.625 0 0  -1.6125 0 0  -1.6 0 0  -1.5875 0 0  -1.575 0 0  -1.5625 0 0  -1.55 0 0  -1.5375 0 0  -1.525 0 0  -1.5125 0 0  -1.5 0 0  -1.4875 0 0  -1.475 0 0  -1.4625 0 0  -1.45 0 0  -1.4375 0 0  -1.425 0 0  -1.4125 0 0  -1.4 0 0  -1.3875 0 0  -1.375 0 0  -1.3625 0 0  -1.35 0 0  -1.3375 0 0  -1.325 0 0  -1.3125 0 0  -1.3 0 0  -1.2875 0 0  -1.275 0 0  -1.2625 0 0  -1.25 0 0  -1.2375 0 0  -1.225 0 0  -1.2125 0 0  -1.2 0 0  -1.1875 0 0  -1.175 0 0  -1.1625 0 0  -1.15 0 0  -1.1375 0 0  -1.125 0 0  -1.1125 0 0  -1.1 0 0  -1.0875 0 0  -1.075 0 0  -1.0625 0 0  -1.05 0 0  -1.0375 0 0  -1.025 0 0  -1.0125 0 0  -1 0 0  -0.9874999999999998 0 0  -0.9749999999999996 0 0  -0.9625000000000004 0 0  -0.9500000000000002 0 0  -0.9375 0 0  -0.9249999999999998 0 0  -0.9124999999999996 0 0  -0.9000000000000004 0 0  -0.8875000000000002 0 0  -0.875 0 0  -0.8624999999999998 0 0  -0.8499999999999996 0 0  -0.8375000000000004 0 0  -0.8250000000000002 0 0  -0.8125 0 0  -0.7999999999999998 0 0  -0.7874999999999996 0 0  -0.7750000000000004 0 0  -0.7625000000000002 0 0  -0.75 0 0  -0.7374999999999998 0 0  -0.7249999999999996 0 0  -0.7125000000000004 0 0  -0.7000000000000002 0 0  -0.6875 0 0  -0.6749999999999998 0 0  -0.6624999999999996 0 0  -0.6500000000000004 0 0  -0.6375000000000002 0 0  -0.625 0 0  -0.6124999999999998 0 0  -0.5999999999999996 0 0  -0.5875000000000004 0 0  -0.5750000000000002 0 0  -0.5625 0 0  -0.5499999999999998 0 0  -0.5374999999999996 0 0  -0.5250000000000004 0 0  -0.5125000000000002 0 0  -0.5 0 0  -0.4874999999999998 0 0  -0.4749999999999996 0 0  -0.4625000000000004 0 0  -0.4500000000000002 0 0  -0.4375 0 0  -0.4249999999999998 0 0  -0.4124999999999996 0 0  -0.4000000000000004 0 0  -0.3875000000000002 0 0  -0.375 0 0  -0.3624999999999998 0 0  -0.3499999999999996 0 0  -0.3375000000000004 0 0  -0.3250000000000002 0 0  -0.3125 0 0  -0.2999999999999998 0 0  -0.2874999999999996 0 0  -0.2750000000000004 0 0  -0.2625000000000002 0 0  -0.25 0 0  -0.2374999999999998 0 0  -0.2249999999999996 0 0  -0.2125000000000004 0 0  -0.2000000000000002 0 0  -0.1875 0 0  -0.1749999999999998 0 0  -0.1624999999999996 0 0  -0.1500000000000004 0 0  -0.1375000000000002 0 0  -0.125 0 0  -0.1124999999999998 0 0  -0.09999999999999964 0 0  -0.08750000000000036 0 0  -0.07500000000000018 0 0  -0.0625 0 0  -0.04999999999999982 0 0  -0.03749999999999964 0 0  -0.02500000000000036 0 0  -0.01250000000000018 0 0  0 0 0  0.01250000000000018 0 0  0.02500000000000036 0 0  0.03749999999999964 0 0  0.04999999999999982 0 0  0.0625 0 0  0.07500000000000018 0 0  0.08750000000000036 0 0  0.09999999999999964 0 0  0.1124999999999998 0 0  0.125 0 0  0.1375000000000002 0 0  0.1500000000000004 0 0  0.1624999999999996 0 0  0.1749999999999998 0 0  0.1875 0 0  0.2000000000000002 0 0  0.2125000000000004 0 0  0.2249999999999996 0 0  0.2374999999999998 0 0  0.25 0 0  0.2625000000000002 0 0  0.2750000000000004 0 0  0.2874999999999996 0 0  0.2999999999999998 0 0  0.3125 0 0  0.3250000000000002 0 0  0.3375000000000004 0 0  0.3499999999999996 0 0  0.3624999999999998 0 0  0.375 0 0  0.3875000000000002 0 0  0.4000000000000004 0 0  0.4124999999999996 0 0  0.4249999999999998 0 0  0.4375 0 0  0.4500000000000002 0 0  0.4625000000000004 0 0  0.4749999999999996 0 0  0.4874999999999998 0 0  0.5 0 0  0.5125000000000002 0 0  0.5250000000000004 0 0  0.5374999999999996 0 0  0.5499999999999998 0 0  0.5625 0 0  0.5750000000000002 0 0  0.5875000000000004 0 0  0.5999999999999996 0 0  0.6124999999999998 0 0  0.625 0 0  0.6375000000000002 0 0  0.6500000000000004 0 0  0.6624999999999996 0 0  0.6749999999999998 0 0  0.6875 0 0  0.7000000000000002 0 0  0.7125000000000004 0 0  0.7249999999999996 0 0  0.7374999999999998 0 0  0.75 0 0  0.7625000000000002 0 0  0.7750000000000004 0 0  0.7874999999999996 0 0  0.7999999999999998 0 0  0.8125 0 0  0.8250000000000002 0 0  0.8375000000000004 0 0  0.8499999999999996 0 0  0.8624999999999998 0 0  0.875 0 0  0.8875000000000002 0 0  0.9000000000000004 0 0  0.9124999999999996 0 0  0.9249999999999998 0 0  0.9375 0 0  0.9500000000000002 0 0  0.9625000000000004 0 0  0.9749999999999996 0 0  0.9874999999999998 0 0  1 0 0  1.0125 0 0  1.025 0 0  1.0375 0 0  1.05 0 0  1.0625 0 0  1.075 0 0  1.0875 0 0  1.1 0 0  1.1125 0 0  1.125 0 0  1.1375 0 0  1.15 0 0  1.1625 0 0  1.175 0 0  1.1875 0 0  1.2 0 0  1.2125 0 0  1.225 0 0  1.2375 0 0  1.25 0 0  1.2625 0 0  1.275 0 0  1.2875 0 0  1.3 0 0  1.3125 0 0  1.325 0 0  1.3375 0 0  1.35 0 0  1.3625 0 0  1.375 0 0  1.3875 0 0  1.4 0 0  1.4125 0 0  1.425 0 0  1.4375 0 0  1.45 0 0  1.4625 0 0  1.475 0 0  1.4875 0 0  1.5 0 0  1.5125 0 0  1.525 0 0  1.5375 0 0  1.55 0 0  1.5625 0 0  1.575 0 0  1.5875 0 0  1.6 0 0  1.6125 0 0  1.625 0 0  1.6375 0 0  1.65 0 0  1.6625 0 0  1.675 0 0  1.6875 0 0  1.7 0 0  1.7125 0 0  1.725 0 0  1.7375 0 0  1.75 0 0  1.7625 0 0  1.775 0 0  1.7875 0 0  1.8 0 0  1.8125 0 0  1.825 0 0  1.8375 0 0  1.85 0 0  1.8625 0 0  1.875 0 0  1.8875 0 0  1.9 0 0  1.9125 0 0  1.925 0 0  1.9375 0 0  1.95 0 0  1.9625 0 0  1.975 0 0  1.9875 0 0  2 0 0  2.0125 0 0  2.025 0 0  2.0375 0 0  2.05 0 0  2.0625 0 0  2.075 0 0  2.0875 0 0  2.1 0 0  2.1125 0 0  2.125 0 0  2.1375 0 0  2.15 0 0  2.1625 0 0  2.175 0 0  2.1875 0 0  2.2 0 0  2.2125 0 0  2.225 0 0  2.2375 0 0  2.25 0 0  2.2625 0 0  2.275 0 0  2.2875 0 0  2.3 0 0  2.3125 0 0  2.325 0 0  2.3375 0 0  2.35 0 0  2.3625 0 0  2.375 0 0  2.3875 0 0  2.4 0 0  2.4125 0 0  2.425 0 0  2.4375 0 0  2.45 0 0  2.4625 0 0  2.475 0 0  2.4875 0 0  2.5 0 0  2.5125 0 0  2.525 0 0  2.5375 0 0  2.55 0 0  2.5625 0 0  2.575 0 0  2.5875 0 0  2.6 0 0  2.6125 0 0  2.625 0 0  2.6375 0 0  2.65 0 0  2.6625 0 0  2.675 0 0  2.6875 0 0  2.7 0 0  2.7125 0 0  2.725 0 0  2.7375 0 0  2.75 0 0  2.7625 0 0  2.775 0 0  2.7875 0 0  2.8 0 0  2.8125 0 0  2.825 0 0  2.8375 0 0  2.85 0 0  2.8625 0 0  2.875 0 0  2.8875 0 0  2.9 0 0  2.9125 0 0  2.925 0 0  2.9375 0 0  2.95 0 0  2.9625 0 0  2.975 0 0  2.9875 0 0  3 0 0  3.012499999999999 0 0  3.025 0 0  3.0375 0 0  3.050000000000001 0 0  3.0625 0 0  3.074999999999999 0 0  3.0875 0 0  3.1 0 0  3.112500000000001 0 0  3.125 0 0  3.137499999999999 0 0  3.15 0 0  3.1625 0 0  3.175000000000001 0 0  3.1875 0 0  3.199999999999999 0 0  3.2125 0 0  3.225 0 0  3.237500000000001 0 0  3.25 0 0  3.262499999999999 0 0  3.275 0 0  3.2875 0 0  3.300000000000001 0 0  3.3125 0 0  3.324999999999999 0 0  3.3375 0 0  3.35 0 0  3.362500000000001 0 0  3.375 0 0  3.387499999999999 0 0  3.4 0 0  3.4125 0 0  3.425000000000001 0 0  3.4375 0 0  3.449999999999999 0 0  3.4625 0 0  3.475 0 0  3.4875
[...]
<PointData  Vectors="(h, u)"> 
<DataArray  type="Float64"  Name="(h, u)"  NumberOfComponents="3" format="ascii">1.1901770376372457e-01 0.0000000000000000e+00 0.0000000000000000e+00  1.2373190706282536e-01 3.7378696469300950e-03 0.0000000000000000e+00  1.1905383602015231e-01 1.0169208477785852e-02 0.0000000000000000e+00  1.2365258881252703e-01 1.1337245620117519e-02 0.0000000000000000e+00  1.1915539492125217e-01 2.0093252150226566e-02 0.0000000000000000e+00  1.2350686949044991e-01 1.9275833081619852e-02 0.0000000000000000e+00  1.1930464989821761e-01 2.9589435017455555e-02 0.0000000000000000e+00  1.2331540109841459e-01 2.7688898117692397e-02 0.0000000000000000e+00  1.1947995269302372e-01 3.8568595295523748e-02 0.0000000000000000e+00  1.2309875951209996e-01 3.6619037404273580e-02 0.0000000000000000e+00  1.1966351336517084e-01 4.7025358859349005e-02 0.0000000000000000e+00  1.2287070454226032e-01 4.6040991847510315e-02 0.0000000000000000e+00  1.1984644120822516e-01 5.5002557334126352e-02 0.0000000000000000e+00  1.2263540220438812e-01 5.5903657713404789e-02 0.0000000000000000e+00  1.2002932018952776e-01 6.2553656899483889e-02 0.0000000000000000e+00  1.2238917300745736e-01 6.6163718537741625e-02 0.0000000000000000e+00  1.2021910614294551e-01 6.9719407260954949e-02 0.0000000000000000e+00  1.2212472214951765e-01 7.6799630953677728e-02 0.0000000000000000e+00  1.2042480834322326e-01 7.6520778525582506e-02 0.0000000000000000e+00  1.2183463701316334e-01 8.7813756273388333e-02 0.0000000000000000e+00  1.2065457686096336e-01 8.2958922979098237e-02 0.0000000000000000e+00  1.2151220445925320e-01 9.9234437496972971e-02 0.0000000000000000e+00  1.2091554002310897e-01 8.9011555223295416e-02 0.0000000000000000e+00  1.2115023473009028e-01 1.1111809456568178e-01 0.0000000000000000e+00  1.2121540309033761e-01 9.4627811323617875e-02 0.0000000000000000e+00  1.2074025851864680e-01 1.2354076801876668e-01 0.0000000000000000e+00  1.2156276127962221e-01 9.9740472016009649e-02 0.0000000000000000e+00  1.2027421790565583e-01 1.3656883631096878e-01 0.0000000000000000e+00  1.2196349106807085e-01 1.0431254596367483e-01 0.0000000000000000e+00  1.1974947382663347e-01 1.5020547445909174e-01 0.0000000000000000e+00  1.2241384171223131e-01 1.0840759535308095e-01 0.0000000000000000e+00  1.1917608222019474e-01 1.6432206715570069e-01 0.0000000000000000e+00  1.2289392669536074e-01 1.1224686767006177e-01 0.0000000000000000e+00  1.1858272259363326e-01 1.7860552185510581e-01 0.0000000000000000e+00  1.2336535593643323e-01 1.1621923246759067e-01 0.0000000000000000e+00  1.1801632305360031e-01 1.9256585464678538e-01 0.0000000000000000e+00  1.2377493254902218e-01 1.2083181426881502e-01 0.0000000000000000e+00  1.1753331316585751e-01 2.0562451674768936e-01 0.0000000000000000e+00  1.2406489012116917e-01 1.2660602704859283e-01 0.0000000000000000e+00  1.1718596528341654e-01 2.1725361727899417e-01 0.0000000000000000e+00  1.2418788699134986e-01 1.3394212639754322e-01 0.0000000000000000e+00  1.1700942598815123e-01 2.2711170338291475e-01 0.0000000000000000e+00  1.2412101224303594e-01 1.4300448288752735e-01 0.0000000000000000e+00  1.1701252841229165e-01 2.3513834116813334e-01 0.0000000000000000e+00  1.2387186603805532e-01 1.5368361644500070e-01 0.0000000000000000e+00  1.1717425887662442e-01 2.4158183905712685e-01 0.0000000000000000e+00  1.2347497032410433e-01 1.6564126880818050e-01 0.0000000000000000e+00  1.1744906672516585e-01 2.4693207140580756e-01 0.0000000000000000e+00  1.2298260189196385e-01 1.7839600318709872e-01 0.0000000000000000e+00  1.1778081310391704e-01 2.5176981142443988e-01 0.0000000000000000e+00  1.2245326617048848e-01 1.9142284068691900e-01 0.0000000000000000e+00  1.1811738696230321e-01 2.5661515951904307e-01 0.0000000000000000e+00  1.2193826697781121e-01 2.0426956975562607e-01 0.0000000000000000e+00  1.1841824512673058e-01 2.6185098405681140e-01 0.0000000000000000e+00  1.2147087603252950e-01 2.1665252902893209e-01 0.0000000000000000e+00  1.1865683646227464e-01 2.6770363633421768e-01 0.0000000000000000e+00  1.2106604820652754e-01 2.2845923522566042e-01 0.0000000000000000e+00  1.1882250144879571e-01 2.7423423286944842e-01 0.0000000000000000e+00  1.2072897252814406e-01 2.3967223458586359e-01 0.0000000000000000e+00  1.1891796474614647e-01 2.8136905280686070e-01 0.0000000000000000e+00  1.2045997692584234e-01 2.5032667540834541e-01 0.0000000000000000e+00  1.1894936715634222e-01 2.8899414870468915e-01 0.0000000000000000e+00  1.2025232617422391e-01 2.6053103169660669e-01 0.0000000000000000e+00  1.1892021679083584e-01 2.9701377464269785e-01 0.0000000000000000e+00  1.2009380382537219e-01 2.7044956450644919e-01 0.0000000000000000e+00  1.1883915161301142e-01 3.0528613451244130e-01 0.0000000000000000e+00  1.1997327807495892e-01 2.8023503897757401e-01 0.0000000000000000e+00  1.1872739333285168e-01 3.1356417174339452e-01 0.0000000000000000e+00  1.1987784464061213e-01 2.9004444485591790e-01 0.0000000000000000e+00  1.1860926453518683e-01 3.2159062583341258e-01 0.0000000000000000e+00  1.1978344860010312e-01 3.0011387449991422e-01 0.0000000000000000e+00  1.1850074338038896e-01 3.2921149586521259e-01 0.0000000000000000e+00  1.1966343054001560e-01 3.1067289731533659e-01 0.0000000000000000e+00  1.1841556293654393e-01 3.3632915817987930e-01 0.0000000000000000e+00  1.1951113504156789e-01 3.2173694449178075e-01 0.0000000000000000e+00  1.1836787130615264e-01 3.4287958499023485e-01 0.0000000000000000e+00  1.1933935445625712e-01 3.3311807046993019e-01 0.0000000000000000e+00  1.1835129212391719e-01 3.4901323360845804e-01 0.0000000000000000e+00  1.1915953178737636e-01 3.4462446771618876e-01 0.0000000000000000e+00  1.1833214587979604e-01 3.5514061843644895e-01 0.0000000000000000e+00  1.1898710788110299e-01 3.5602310758824185e-01 0.0000000000000000e+00  1.1828258451869514e-01 3.6161390279355399e-01 0.0000000000000000e+00  1.1886004937979122e-01 3.6688310518310518e-01 0.0000000000000000e+00  1.1819494757831005e-01 3.6858216909955993e-01 0.0000000000000000e+00  1.1881095082535435e-01 3.7684015275797811e-01 0.0000000000000000e+00  1.1805084665421199e-01 3.7626656814049680e-01 0.0000000000000000e+00  1.1883249956070968e-01 3.8591631572624524e-01 0.0000000000000000e+00  1.1782807443122620e-01 3.8489993836632563e-01 0.0000000000000000e+00  1.1891273652634772e-01 3.9419950455087527e-01 0.0000000000000000e+00  1.1755087457059946e-01 3.9427488253868209e-01 0.0000000000000000e+00  1.1905887754247199e-01 4.0162273896441708e-01 0.0000000000000000e+00  1.1726332024392937e-01 4.0399078747119943e-01 0.0000000000000000e+00  1.1923910009818152e-01 4.0848667146031004e-01 0.0000000000000000e+00  1.1697211471734746e-01 4.1397652648973510e-01 0.0000000000000000e+00  1.1938957521876259e-01 4.1538815909125149e-01 0.0000000000000000e+00  1.1670233457835827e-01 4.2398249146400413e-01 0.0000000000000000e+00  1.1950100090665716e-01 4.2242849744704558e-01 0.0000000000000000e+00  1.1651971554156570e-01 4.3337806603794837e-01 0.0000000000000000e+00  1.1957115488086494e-01 4.2964783821039659e-01 0.0000000000000000e+00  1.1642171579223676e-01 4.4214625126706897e-01 0.0000000000000000e+00  1.1954778314577978e-01 4.3754917846427555e-01 0.0000000000000000e+00  1.1637572805054976e-01 4.5054187884631486e-01 0.0000000000000000e+00  1.1944961257895569e-01 4.4599433201739841e-01 0.0000000000000000e+00  1.1641829318982629e-01 4.5819556038679249e-01 0.0000000000000000e+00  1.1933673669299173e-01 4.5447296906164408e-01 0.0000000000000000e+00  1.1651813516205371e-01 4.6536263971617126e-01 0.0000000000000000e+00  1.1917691182423348e-01 4.6331902473594871e-01 0.0000000000000000e+00  1.1659990911344899e-01 4.7270517038438992e-01 0.0000000000000000e+00  1.1900270913165319e-01 4.7226898269122125e-01 0.0000000000000000e+00  1.1670978029444887e-01 4.7978324336304368e-01 0.0000000000000000e+00  1.1888754867703796e-01 4.8067966979948690e-01 0.0000000000000000e+00  1.1681656308824613e-01 4.8686346816919973e-01 0.0000000000000000e+00  1.1876182300461972e-01 4.8920951874822416e-01 0.0000000000000000e+00  1.1685640679892281e-01 4.9450741487989047e-01 0.0000000000000000e+00  1.1866175087957349e-01 4.9754831600872629e-01 0.0000000000000000e+00  1.1692431216469065e-01 5.0182735723731653e-01 0.0000000000000000e+00  1.1863296721917266e-01 5.0530043969938399e-01 0.0000000000000000e+00  1.1696143398674469e-01 5.0933857168422048e-01 0.0000000000000000e+00  1.1856347929016499e-01 5.1350755336621856e-01 0.0000000000000000e+00  1.1694974975440850e-01 5.1718570240943429e-01 0.0000000000000000e+00  1.1854692443182341e-01 5.2132824667999855e-01 0.0000000000000000e+00  1.1700046300866018e-01 5.2434490889882523e-01 0.0000000000000000e+00  1.1855299647649596e-01 5.2904240630239474e-01 0.0000000000000000e+00  1.1698044400587307e-01 5.3203507301335173e-01 0.0000000000000000e+00  1.1850169708427122e-01 5.3736615867969639e-01 0.0000000000000000e+00  1.1698818304577667e-01 5.3937842379027345e-01 0.0000000000000000e+00  1.1854111223420909e-01 5.4491785948917315e-01 0.0000000000000000e+00  1.1702893259504804e-01 5.4636621776589778e-01 0.0000000000000000e+00  1.1850237807398337e-01 5.5319434682786994e-01 0.0000000000000000e+00  1.1699182675539707e-01 5.5405875281144579e-01 0.0000000000000000e+00  1.1849232194285468e-01 5.6116831002305811e-01 0.0000000000000000e+00  1.1707268104444336e-01 5.6072128043178593e-01 0.0000000000000000e+00  1.1850606823583641e-01 5.6883630328639212e-01 0.0000000000000000e+00  1.1705812753067608e-01 5.6834720684280393e-01 0.0000000000000000e+00  1.1842281008989257e-01 5.7726087849826180e-01 0.0000000000000000e+00  1.1711800265679964e-01 5.7541530441648214e-01 0.0000000000000000e+00  1.1846409477515865e-01 5.8440182594681389e-01 0.0000000000000000e+00  1.1718051116933176e-01 5.8259403221355011e-01 0.0000000000000000e+00  1.1835191206523328e-01 5.9279308564425759e-01 0.0000000000000000e+00  1.1718871550396406e-01 5.9039321288008051e-01 0.0000000000000000e+00  1.1836874843834227e-01 5.9987569438644750e-01 0.0000000000000000e+00  1.1732472985864195e-01 5.9712736706271285e-01 0.0000000000000000e+00  1.1828620075736380e-01 6.0776386362242474e-01 0.0000000000000000e+00  1.1729049653010819e-01 6.0548043462937284e-01 0.0000000000000000e+00  1.1824775192193972e-01 6.1518979415302588e-01 0.0000000000000000e+00  1.1745857065596710e-01 6.1200499342765280e-01 0.0000000000000000e+00  1.1823084883832685e-01 6.2241155414683524e-01 0.0000000000000000e+00  1.1740349535360703e-01 6.2052935160434064e-01 0.0000000000000000e+00  1.1813892859991272e-01 6.3037183514449835e-01 0.0000000000000000e+00  1.1755873187384414e-01 6.2702152922949361e-01 0.0000000000000000e+00  1.1820550671770245e-01 6.3702804420763504e-01 0.0000000000000000e+00  1.1749186859216297e-01 6.3533284852814886e-01 0.0000000000000000e+00  1.1808250276442063e-01 6.4566648661307358e-01 0.0000000000000000e+00  1.1758861182280309e-01 6.4180488970040417e-01 0.0000000000000000e+00  1.1824555763359934e-01 6.5210935155119554e-01 0.0000000000000000e+00  1.1749341757259246e-01 6.4950547718095342e-01 0.0000000000000000e+00  1.1814553608316811e-01 6.6156613321617908e-01 0.0000000000000000e+00  1.1750039097747710e-01 6.5551360247835821e-01 0.0000000000000000e+00  1.1843968338935662e-01 6.6830754379967794e-01 0.0000000000000000e+00  1.1731000339533126e-01 6.6227774304841192e-01 0.0000000000000000e+00  1.1841978638165565e-01 6.7909557933176123e-01 0.0000000000000000e+00  1.1718327137541740e-01 6.6707631898578812e-01 0.0000000000000000e+00  1.1890350810519244e-01 6.8683486961074514e-01 0.0000000000000000e+00  1.1678952495803109e-01 6.7255335930296256e-01 0.0000000000000000e+00  1.1903654759745136e-01 6.9967489442556419e-01 0.0000000000000000e+00  1.1649023017470519e-01 6.7502091465348002e-01 0.0000000000000000e+00  1.1979818485324219e-01 7.0907519975812205e-01 0.0000000000000000e+00  1.1579619698121672e-01 6.7856946479214952e-01 0.0000000000000000e+00  1.2021587069199299e-01 7.2418905671770339e-01 0.0000000000000000e+00  1.1531001327128396e-01 6.7738903782068582e-01 0.0000000000000000e+00  1.2124996567318773e-01 7.3652640897440891e-01 0.0000000000000000e+00  1.1414813725210193e-01 6.7936773965729857e-01 0.0000000000000000e+00  1.2203365070424255e-01 7.5396793691916464e-01 0.0000000000000000e+00  1.1347591403372960e-01 6.7384594162178135e-01 0.0000000000000000e+00  1.2326012710566372e-01 7.7009747845451637e-01 0.0000000000000000e+00  1.1189215923071780e-01 6.7396619382609912e-01 0.0000000000000000e+00  1.2457205367178910e-01 7.8758961679018857e-01 0.0000000000000000e+00  1.1106525083172350e-01 6.6500062827636752e-01 0.0000000000000000e+00  1.2568363513735784e-01 8.0826983255741403e-01 0.0000000000000000e+00  1.0931833016009898e-01 6.6349297475713487e-01 0.0000000000000000e+00  1.2746730728083439e-01 8.2301760751851150e-01 0.0000000000000000e+00  1.0824688184611633e-01 6.5604863576155203e-01 0.0000000000000000e+00  1.2814947436880578e-01 8.4631139205485162e-01 0.0000000000000000e+00  1.0705939043089555e-01 6.5188993685966223e-01 0.0000000000000000e+00  1.2997402692691670e-01 8.5641708373301528e-01 0.0000000000000000e+00  1.0573257801859043e-01 6.5303958695297670e-01 0.0000000000000000e+00  1.3039871969723102e-01 8.7427365211876629e-01 0.0000000000000000e+00  1.0577003445259299e-01 6.4739354929868198e-01 0.0000000000000000e+00  1.3106291417580052e-01 8.8402260752334505e-01 0.0000000000000000e+00  1.0464853369085660e-01 6.5995587443456694e-01 0.0000000000000000e+00  1.3177470900545132e-01 8.8631714910238502e-01 0.0000000000000000e+00  1.0524852174437949e-01 6.6434456020823041e-01 0.0000000000000000e+00  1.3045299659085269e-01 8.9948215479345173e-01 0.0000000000000000e+00  1.0583487015790505e-01 6.7664003689395336e-01 0.0000000000000000e+00  1.3081846060596641e-01 8.9125282267676176e-01 0.0000000000000000e+00  1.0566568049183796e-01 7.0247461381465948e-01 0.0000000000000000e+00  1.2965362761157453e-01 8.9156789745270604e-01 0.0000000000000000e+00  1.0793463811525021e-01 7.0974970610835897e-01 0.0000000000000000e+00  1.2753393656899792e-01 8.9742516349414370e-01 0.0000000000000000e+00  1.0852783343841672e-01 7.3425111204499904e-01 0.0000000000000000e+00  1.2816137394339835e-01 8.7850588096060933e-01 0.0000000000000000e+00  1.0872073855472252e-01 7.6149612236297204e-01 0.0000000000000000e+00  1.2623616344636387e-01 8.8448545019799685e-01 0.0000000000000000e+00  1.1161425169837638e-01 7.6014535005980433e-01 0.0000000000000000e+00  1.2404738153622485e-01 8.9648598972038862e-01 0.0000000000000000e+00  1.1165662324013956e-01 7.8012184393387562e-01 0.0000000000000000e+00  1.2583014410264376e-01 8.7777776949918174e-01 0.0000000000000000e+00  1.1053555209963825e-01 8.0580823524683554e-01 0.0000000000000000e+00  1.2479517783524878e-01 8.8942448248286587e-01 0.0000000000000000e+00  1.1343709238765577e-01 7.8994465077614728e-01 0.0000000000000000e+00  1.2154624006329183e-01 9.2448303597489423e-01 0.0000000000000000e+00  1.1450346415056113e-01 7.8755707652494600e-01 0.0000000000000000e+00  1.2357964474970766e-01 9.1371700335091577e-01 0.0000000000000000e+00  1.1138496609543526e-01 8.2259536388916688e-01 0.0000000000000000e+00  1.2616463663312952e-01 8.9826191404834921e-01 0.0000000000000000e+00  1.1166901793618600e-01 8.2739446468497324e-01 0.0000000000000000e+00  1.2239907003269287e-01 9.3912148948710794e-01 0.0000000000000000e+00  1.1646201823895995e-01 7.9262158257804893e-01 0.0000000000000000e+00  1.1794525572645115e-01 9.8409829100579482e-01 0.0000000000000000e+00  1.1756525786376884e-01 7.9357278760477024e-01 0.0000000000000000e+00  1.2061934709249370e-01 9.6254422104316717e-01 0.0000000000000000e+00  1.1310289879600592e-01 8.4709609219938953e-01 0.0000000000000000e+00  1.2629378750191192e-01 9.1267187660363525e-01 0.0000000000000000e+00  1.0929455842057394e-01 8.9509534947974667e-01 0.0000000000000000e+00  1.2752619153580433e-01 9.0321791920373240e-01 0.0000000000000000e+00  1.1131510821245602e-01 8.8977771772028391e-01 0.0000000000000000e+00  1.2299342942772214e-01 9.4718755768365059e-01 0.0000000000000000e+00  1.1714912043901862e-01 8.4852631926819611e-01 0.0000000000000000e+00  1.1671144096011526e-01 1.0081779972675124e+00 0.0000000000000000e+00  1.2175855976250222e-01 8.1659385432187526e-01 0.0000000000000000e+00  1.1302891049875463e-01 1.0464055522205185e+00 0.0000000000000000e+00  1.2324296812414916e-01 8.1180402405597629e-01 0.0000000000000000e+00  1.1272404794656757e-01 1.0540259488288137e+00 0.0000000000000000e+00  1.2255875052387333e-01 8.2639549892694675e-01 0.0000000000000000e+00  1.1423476073274863e-01 1.0449584123348814e+00 0.0000000000000000e+00  1.2109399088021651e-01 8.4859837346314482e-01 0.0000000000000000e+00  1.1608897183433707e-01 1.0327305305279773e+00 0.0000000000000000e+00  1.1973146454416195e-01 8.7083778311810256e-01 0.0000000000000000e+00  1.1758740136819631e-01 1.0238953087709379e+00 0.0000000000000000e+00  1.1881269400559007e-01 8.8976155168841808e-01 0.0000000000000000e+00  1.1856833465439071e-01 1.0201160283773716e+00 0.0000000000000000e+00  1.1836301330093417e-01 9.0437463953040953e-01 0.0000000000000000e+00  1.1906990603201105e-01 1.0212461875130143e+00 0.0000000000000000e+00  1.1831564906555146e-01 9.1449718942048230e-01 0.0000000000000000e+00  1.1913071060706425e-01 1.0270755783230707e+00 0.0000000000000000e+00  1.1862548409484404e-01 9.2014573941189992e-01 0.0000000000000000e+00  1.1877262615899693e-01 1.0373713271875240e+00 0.0000000000000000e+00  1.1925792134641335e-01 9.2176769857057683e-01 0.0000000000000000e+00  1.1805015701794200e-01 1.0513773014272458e+00 0.0000000000000000e+00  1.2011634169034008e-01 9.2076326704210898e-01 0.0000000000000000e+00  1.1715338647813059e-01 1.0669593186894537e+00 0.0000000000000000e+00  1.2105159524692523e-01 9.1911360133075826e-01 0.0000000000000000e+00  1.1646594916814126e-01 1.0802492515847384e+00 0.0000000000000000e+00  1.2192192435346005e-01 9.1855540436197936e-01 0.0000000000000000e+00  1.1636497222899701e-01 1.0876329069401607e+00 0.0000000000000000e+00  1.2288690534417562e-01 9.1775900696990120e-01 0.0000000000000000e+00  1.1680649431405599e-01 1.0896100494859788e+00 0.0000000000000000e+00  1.2433737866376990e-01 9.1302492105878175e-01 0.0000000000000000e+00  1.1832078904144111e-01 1.0817173153535260e+00 0.0000000000000000e+00  1.2511287032463808e-01 9.1454167038118284e-01 0.0000000000000000e+00  1.2187047389490699e-01 1.0557295883806894e+00 0.0000000000000000e+00  1.3190136579636091e-01 8.6261057481264025e-01 0.0000000000000000e+00  9.9680953209287673e-02 1.2652706659484210e+00 0.0000000000000000e+00  1.1366780612674024e-01 1.0402095300387970e+00 0.0000000000000000e+00  1.1393760785620463e-01 1.1352290502286266e+00 0.0000000000000000e+00  1.1962727000530038e-01 9.9358855062215612e-01 0.0000000000000000e+00  1.1429329649576501e-01 1.1377855818794251e+00 0.0000000000000000e+00  1.1877421718353827e-01 1.0100148112385359e+00 0.0000000000000000e+00  1.1784314651957517e-01 1.1107319292555975e+00 0.0000000000000000e+00  1.1449918973188740e-01 1.0581306566653441e+00 0.0000000000000000e+00  1.2074816152496350e-01 1.0894503220342151e+00 0.0000000000000000e+00  1.1758469203304979e-01 1.0391417914384282e+00 0.0000000000000000e+00  1.1808013464251875e-01 1.1191061486532410e+00 0.0000000000000000e+00  1.2514752177602076e-01 9.7960100031106634e-01 0.0000000000000000e+00  1.1367664051064587e-01 1.1651050883366472e+00 0.0000000000000000e+00  1.2908253457032848e-01 9.5221573749037580e-01 0.0000000000000000e+00  1.1366554429602171e-01 1.1720766523260675e+00 0.0000000000000000e+00  1.0981096060526878e-01 1.1356300927740741e+00 0.0000000000000000e+00  1.2727939566667346e-01 1.0550883207374222e+00 0.0000000000000000e+00  1.1146634631238474e-01 1.1268295278533513e+00 0.0000000000000000e+00  1.1899598361083098e-01 1.1384190973330752e+00 0.0000000000000000e+00  1.2616207278467645e-01 9.9933428504673449e-01 0.0000000000000000e+00  1.1634356733842875e-01 1.1703083292619707e+00 0.0000000000000000e+00  1.3377284050253088e-01 9.3828656428366664e-01 0.0000000000000000e+00  1.205167