<?xml version="1.0"?>
<VTKFile type="UnstructuredGrid"  version="0.1"  >
<UnstructuredGrid>
<Piece  NumberOfPoints="801" NumberOfCells="800">
<Points>
<DataArray  type="Float64"  NumberOfComponents="3"  format="ascii">-5 0 0  -4.9875 0 0  -4.975 0 0  -4.9625 0 0  -4.95 0 0  -4.9375 0 0  -4.925 0 0  -4.9125 0 0  -4.9 0 0  -4.8875 0 0  -4.875 0 0  -4.8625 0 0  -4.85 0 0  -4.8375 0 0  -4.825 0 0  -4.8125 0 0  -4.8 0 0  -4.7875 0 0  -4.775 0 0  -4.7625 0 0  -4.75 0 0  -4.7375 0 0  -4.725 0 0  -4.7125 0 0  -4.7 0 0  -4.6875 0 0  -4.675 0 0  -4.6625 0 0  -4.65 0 0  -4.6375 0 0  -4.625 0 0  -4.6125 0 0  -4.6 0 0  -4.5875 0 0  -4.575 0 0  -4.5625 0 0  -4.55 0 0  -4.5375 0 0  -4.525 0 0  -4.5125 0 0  -4.5 0 0  -4.4875 0 0  -4.475 0 0  -4.4625 0 0  -4.45 0 0  -4.4375 0 0  -4.425 0 0  -4.4125 0 0  -4.4 0 0  -4.3875 0 0  -4.375 0 0  -4.3625 0 0  -4.35 0 0  -4.3375 0 0  -4.325 0 0  -4.3125 0 0  -4.3 0 0  -4.2875 0 0  -4.275 0 0  -4.2625 0 0  -4.25 0 0  -4.2375 0 0  -4.225 0 0  -4.2125 0 0  -4.2 0 0  -4.1875 0 0  -4.175 0 0  -4.1625 0 0  -4.15 0 0  -4.1375 0 0  -4.125 0 0  -4.1125 0 0  -4.1 0 0  -4.0875 0 0  -4.075 0 0  -4.0625 0 0  -4.05 0 0  -4.0375 0 0  -4.025 0 0  -4.0125 0 0  -4 0 0  -3.9875 0 0  -3.975 0 0  -3.9625 0 0  -3.95 0 0  -3.9375 0 0  -3.925 0 0  -3.9125 0 0  -3.9 0 0  -3.8875 0 0  -3.875 0 0  -3.8625 0 0  -3.85 0 0  -3.8375 0 0  -3.825 0 0  -3.8125 0 0  -3.8 0 0  -3.7875 0 0  -3.775 0 0  -3.7625 0 0  -3.75 0 0  -3.7375 0 0  -3.725 0 0  -3.7125 0 0  -3.7 0 0  -3.6875 0 0  -3.675 0 0  -3.6625 0 0  -3.65 0 0  -3.6375 0 0  -3.625 0 0  -3.6125 0 0  -3.6 0 0  -3.5875 0 0  -3.575 0 0  -3.5625 0 0  -3.55 0 0  -3.5375 0 0  -3.525 0 0  -3.5125 0 0  -3.5 0 0  -3.4875 0 0  -3.475 0 0  -3.4625 0 0  -3.45 0 0  -3.4375 0 0  -3.425 0 0  -3.4125 0 0  -3.4 0 0  -3.3875 0 0  -3.375 0 0  -3.3625 0 0  -3.35 0 0  -3.3375 0 0  -3.325 0 0  -3.3125 0 0  -3.3 0 0  -3.2875 0 0  -3.275 0 0  -3.2625 0 0  -3.25 0 0  -3.2375 0 0  -3.225 0 0  -3.2125 0 0  -3.2 0 0  -3.1875 0 0  -3.175 0 0  -3.1625 0 0  -3.15 0 0  -3.1375 0 0  -3.125 0 0  -3.1125 0 0  -3.1 0 0  -3.0875 0 0  -3.075 0 0  -3.0625 0 0  -3.05 0 0  -3.0375 0 0  -3.025 0 0  -3.0125 0 0  -3 0 0  -2.9875 0 0  -2.975 0 0  -2.9625 0 0  -2.95 0 0  -2.9375 0 0  -2.925 0 0  -2.9125 0 0  -2.9 0 0  -2.8875 0 0  -2.875 0 0  -2.8625 0 0  -2.85 0 0  -2.8375 0 0  -2.825 0 0  -2.8125 0 0  -2.8 0 0  -2.7875 0 0  -2.775 0 0  -2.7625 0 0  -2.75 0 0  -2.7375 0 0  -2.725 0 0  -2.7125 0 0  -2.7 0 0  -2.6875 0 0  -2.675 0 0  -2.6625 0 0  -2.65 0 0  -2.6375 0 0  -2.625 0 0  -2.6125 0 0  -2.6 0 0  -2.5875 0 0  -2.575 0 0  -2.5625 0 0  -2.55 0 0  -2.5375 0 0  -2.525 0 0  -2.5125 0 0  -2.5 0 0  -2.4875 0 0  -2.475 0 0  -2.4625 0 0  -2.45 0 0  -2.4375 0 0  -2.425 0 0  -2.4125 0 0  -2.4 0 0  -2.3875 0 0  -2.375 0 0  -2.3625 0 0  -2.35 0 0  -2.3375 0 0  -2.325 0 0  -2.3125 0 0  -2.3 0 0  -2.2875 0 0  -2.275 0 0  -2.2625 0 0  -2.25 0 0  -2.2375 0 0  -2.225 0 0  -2.2125 0 0  -2.2 0 0  -2.1875 0 0  -2.175 0 0  -2.1625 0 0  -2.15 0 0  -2.1375 0 0  -2.125 0 0  -2.1125 0 0  -2.1 0 0  -2.0875 0 0  -2.075 0 0  -2.0625 0 0  -2.05 0 0  -2.0375 0 0  -2.025 0 0  -2.0125 0 0  -2 0 0  -1.9875 0 0  -1.975 0 0  -1.9625 0 0  -1.95 0 0  -1.9375 0 0  -1.925 0 0  -1.9125 0 0  -1.9 0 0  -1.8875 0 0  -1.875 0 0  -1.8625 0 0  -1.85 0 0  -1.8375 0 0  -1.825 0 0  -1.8125 0 0  -1.8 0 0  -1.7875 0 0  -1.775 0 0  -1.7625 0 0  -1.75 0 0  -1.7375 0 0  -1.725 0 0  -1.7125 0 0  -1.7 0 0  -1.6875 0 0  -1.675 0 0  -1.6625 0 0  -1.65 0 0  -1.6375 0 0  -1.625 0 0  -1.6125 0 0  -1.6 0 0  -1.5875 0 0  -1.575 0 0  -1.5625 0 0  -1.55 0 0  -1.5375 0 0  -1.525 0 0  -1.5125 0 0  -1.5 0 0  -1.4875 0 0  -1.475 0 0  -1.4625 0 0  -1.45 0 0  -1.4375 0 0  -1.425 0 0  -1.4125 0 0  -1.4 0 0  -1.3875 0 0  -1.375 0 0  -1.3625 0 0  -1.35 0 0  -1.3375 0 0  -1.325 0 0  -1.3125 0 0  -1.3 0 0  -1.2875 0 0  -1.275 0 0  -1.2625 0 0  -1.25 0 0  -1.2375 0 0  -1.225 0 0  -1.2125 0 0  -1.2 0 0  -1.1875 0 0  -1.175 0 0  -1.1625 0 0  -1.15 0 0  -1.1375 0 0  -1.125 0 0  -1.1125 0 0  -1.1 0 0  -1.0875 0 0  -1.075 0 0  -1.0625 0 0  -1.05 0 0  -1.0375 0 0  -1.025 0 0  -1.0125 0 0  -1 0 0  -0.9874999999999998 0 0  -0.9749999999999996 0 0  -0.9625000000000004 0 0  -0.9500000000000002 0 0  -0.9375 0 0  -0.9249999999999998 0 0  -0.9124999999999996 0 0  -0.9000000000000004 0 0  -0.8875000000000002 0 0  -0.875 0 0  -0.8624999999999998 0 0  -0.8499999999999996 0 0  -0.8375000000000004 0 0  -0.8250000000000002 0 0  -0.8125 0 0  -0.7999999999999998 0 0  -0.7874999999999996 0 0  -0.7750000000000004 0 0  -0.7625000000000002 0 0  -0.75 0 0  -0.7374999999999998 0 0  -0.7249999999999996 0 0  -0.7125000000000004 0 0  -0.7000000000000002 0 0  -0.6875 0 0  -0.6749999999999998 0 0  -0.6624999999999996 0 0  -0.6500000000000004 0 0  -0.6375000000000002 0 0  -0.625 0 0  -0.6124999999999998 0 0  -0.5999999999999996 0 0  -0.5875000000000004 0 0  -0.5750000000000002 0 0  -0.5625 0 0  -0.5499999999999998 0 0  -0.5374999999999996 0 0  -0.5250000000000004 0 0  -0.5125000000000002 0 0  -0.5 0 0  -0.4874999999999998 0 0  -0.4749999999999996 0 0  -0.4625000000000004 0 0  -0.4500000000000002 0 0  -0.4375 0 0  -0.4249999999999998 0 0  -0.4124999999999996 0 0  -0.4000000000000004 0 0  -0.3875000000000002 0 0  -0.375 0 0  -0.3624999999999998 0 0  -0.3499999999999996 0 0  -0.3375000000000004 0 0  -0.3250000000000002 0 0  -0.3125 0 0  -0.2999999999999998 0 0  -0.2874999999999996 0 0  -0.2750000000000004 0 0  -0.2625000000000002 0 0  -0.25 0 0  -0.2374999999999998 0 0  -0.2249999999999996 0 0  -0.2125000000000004 0 0  -0.2000000000000002 0 0  -0.1875 0 0  -0.1749999999999998 0 0  -0.1624999999999996 0 0  -0.1500000000000004 0 0  -0.1375000000000002 0 0  -0.125 0 0  -0.1124999999999998 0 0  -0.09999999999999964 0 0  -0.08750000000000036 0 0  -0.07500000000000018 0 0  -0.0625 0 0  -0.04999999999999982 0 0  -0.03749999999999964 0 0  -0.02500000000000036 0 0  -0.01250000000000018 0 0  0 0 0  0.01250000000000018 0 0  0.02500000000000036 0 0  0.03749999999999964 0 0  0.04999999999999982 0 0  0.0625 0 0  0.07500000000000018 0 0  0.08750000000000036 0 0  0.09999999999999964 0 0  0.1124999999999998 0 0  0.125 0 0  0.1375000000000002 0 0  0.1500000000000004 0 0  0.1624999999999996 0 0  0.1749999999999998 0 0  0.1875 0 0  0.2000000000000002 0 0  0.2125000000000004 0 0  0.2249999999999996 0 0  0.2374999999999998 0 0  0.25 0 0  0.2625000000000002 0 0  0.2750000000000004 0 0  0.2874999999999996 0 0  0.2999999999999998 0 0  0.3125 0 0  0.3250000000000002 0 0  0.3375000000000004 0 0  0.3499999999999996 0 0  0.3624999999999998 0 0  0.375 0 0  0.3875000000000002 0 0  0.4000000000000004 0 0  0.4124999999999996 0 0  0.4249999999999998 0 0  0.4375 0 0  0.4500000000000002 0 0  0.4625000000000004 0 0  0.4749999999999996 0 0  0.4874999999999998 0 0  0.5 0 0  0.5125000000000002 0 0  0.5250000000000004 0 0  0.5374999999999996 0 0  0.5499999999999998 0 0  0.5625 0 0  0.5750000000000002 0 0  0.5875000000000004 0 0  0.5999999999999996 0 0  0.6124999999999998 0 0  0.625 0 0  0.6375000000000002 0 0  0.6500000000000004 0 0  0.6624999999999996 0 0  0.6749999999999998 0 0  0.6875 0 0  0.7000000000000002 0 0  0.7125000000000004 0 0  0.7249999999999996 0 0  0.7374999999999998 0 0  0.75 0 0  0.7625000000000002 0 0  0.7750000000000004 0 0  0.7874999999999996 0 0  0.7999999999999998 0 0  0.8125 0 0  0.8250000000000002 0 0  0.8375000000000004 0 0  0.8499999999999996 0 0  0.8624999999999998 0 0  0.875 0 0  0.8875000000000002 0 0  0.9000000000000004 0 0  0.9124999999999996 0 0  0.9249999999999998 0 0  0.9375 0 0  0.9500000000000002 0 0  0.9625000000000004 0 0  0.9749999999999996 0 0  0.9874999999999998 0 0  1 0 0  1.0125 0 0  1.025 0 0  1.0375 0 0  1.05 0 0  1.0625 0 0  1.075 0 0  1.0875 0 0  1.1 0 0  1.1125 0 0  1.125 0 0  1.1375 0 0  1.15 0 0  1.1625 0 0  1.175 0 0  1.1875 0 0  1.2 0 0  1.2125 0 0  1.225 0 0  1.2375 0 0  1.25 0 0  1.2625 0 0  1.275 0 0  1.2875 0 0  1.3 0 0  1.3125 0 0  1.325 0 0  1.3375 0 0  1.35 0 0  1.3625 0 0  1.375 0 0  1.3875 0 0  1.4 0 0  1.4125 0 0  1.425 0 0  1.4375 0 0  1.45 0 0  1.4625 0 0  1.475 0 0  1.4875 0 0  1.5 0 0  1.5125 0 0  1.525 0 0  1.5375 0 0  1.55 0 0  1.5625 0 0  1.575 0 0  1.5875 0 0  1.6 0 0  1.6125 0 0  1.625 0 0  1.6375 0 0  1.65 0 0  1.6625 0 0  1.675 0 0  1.6875 0 0  1.7 0 0  1.7125 0 0  1.725 0 0  1.7375 0 0  1.75 0 0  1.7625 0 0  1.775 0 0  1.7875 0 0  1.8 0 0  1.8125 0 0  1.825 0 0  1.8375 0 0  1.85 0 0  1.8625 0 0  1.875 0 0  1.8875 0 0  1.9 0 0  1.9125 0 0  1.925 0 0  1.9375 0 0  1.95 0 0  1.9625 0 0  1.975 0 0  1.9875 0 0  2 0 0  2.0125 0 0  2.025 0 0  2.0375 0 0  2.05 0 0  2.0625 0 0  2.075 0 0  2.0875 0 0  2.1 0 0  2.1125 0 0  2.125 0 0  2.1375 0 0  2.15 0 0  2.1625 0 0  2.175 0 0  2.1875 0 0  2.2 0 0  2.2125 0 0  2.225 0 0  2.2375 0 0  2.25 0 0  2.2625 0 0  2.275 0 0  2.2875 0 0  2.3 0 0  2.3125 0 0  2.325 0 0  2.3375 0 0  2.35 0 0  2.3625 0 0  2.375 0 0  2.3875 0 0  2.4 0 0  2.4125 0 0  2.425 0 0  2.4375 0 0  2.45 0 0  2.4625 0 0  2.475 0 0  2.4875 0 0  2.5 0 0  2.5125 0 0  2.525 0 0  2.5375 0 0  2.55 0 0  2.5625 0 0  2.575 0 0  2.5875 0 0  2.6 0 0  2.6125 0 0  2.625 0 0  2.6375 0 0  2.65 0 0  2.6625 0 0  2.675 0 0  2.6875 0 0  2.7 0 0  2.7125 0 0  2.725 0 0  2.7375 0 0  2.75 0 0  2.7625 0 0  2.775 0 0  2.7875 0 0  2.8 0 0  2.8125 0 0  2.825 0 0  2.8375 0 0  2.85 0 0  2.8625 0 0  2.875 0 0  2.8875 0 0  2.9 0 0  2.9125 0 0  2.925 0 0  2.9375 0 0  2.95 0 0  2.9625 0 0  2.975 0 0  2.9875 0 0  3 0 0  3.012499999999999 0 0  3.025 0 0  3.0375 0 0  3.050000000000001 0 0  3.0625 0 0  3.074999999999999 0 0  3.0875 0 0  3.1 0 0  3.112500000000001 0 0  3.125 0 0  3.137499999999999 0 0  3.15 0 0  3.1625 0 0  3.175000000000001 0 0  3.1875 0 0  3.199999999999999 0 0  3.2125 0 0  3.225 0 0  3.237500000000001 0 0  3.25 0 0  3.262499999999999 0 0  3.275 0 0  3.2875 0 0  3.300000000000001 0 0  3.3125 0 0  3.324999999999999 0 0  3.3375 0 0  3.35 0 0  3.362500000000001 0 0  3.375 0 0  3.387499999999999 0 0  3.4 0 0  3.4125 0 0  3.425000000000001 0 0  3.4375 0 0  3.449999999999999 0 0  3.4625 0 0  3.475 0 0  3.4875
[...]
<PointData  Vectors="(h, u)"> 
<DataArray  type="Float64"  Name="(h, u)"  NumberOfComponents="3" format="ascii">5.6401719408849216e-01 0.0000000000000000e+00 0.0000000000000000e+00  5.6432602074735061e-01 1.2612513709122780e-02 0.0000000000000000e+00  5.6400734702065480e-01 2.5235053836304047e-02 0.0000000000000000e+00  5.6430468228784736e-01 3.7837939037031837e-02 0.0000000000000000e+00  5.6397678494781334e-01 5.0469539098149351e-02 0.0000000000000000e+00  5.6426367683360001e-01 6.3069125715613614e-02 0.0000000000000000e+00  5.6392335823930584e-01 7.5698221776699687e-02 0.0000000000000000e+00  5.6420459239143916e-01 8.8312855325095432e-02 0.0000000000000000e+00  5.6384728120880323e-01 1.0092280384664577e-01 0.0000000000000000e+00  5.6412418142737664e-01 1.1355776439567550e-01 0.0000000000000000e+00  5.6375499929366979e-01 1.2617210812055030e-01 0.0000000000000000e+00  5.6401342596756687e-01 1.3876882156893219e-01 0.0000000000000000e+00  5.6365416544015701e-01 1.5147837126033678e-01 0.0000000000000000e+00  5.6387181369374217e-01 1.6394253565222769e-01 0.0000000000000000e+00  5.6353283406597665e-01 1.7679200302845599e-01 0.0000000000000000e+00  5.6372706125634731e-01 1.8919779626781288e-01 0.0000000000000000e+00  5.6334987837641537e-01 2.0194585837639989e-01 0.0000000000000000e+00  5.6361949872126027e-01 2.1470355771181435e-01 0.0000000000000000e+00  5.6308869512840687e-01 2.2686634764292948e-01 0.0000000000000000e+00  5.6351616350622025e-01 2.4032183784395383e-01 0.0000000000000000e+00  5.6285233630609555e-01 2.5199240821335583e-01 0.0000000000000000e+00  5.6324261737768233e-01 2.6533640056949814e-01 0.0000000000000000e+00  5.6284400690609859e-01 2.7817225653837008e-01 0.0000000000000000e+00  5.6265086117512808e-01 2.8911159104289136e-01 0.0000000000000000e+00  5.6304534313853960e-01 3.0532489790493816e-01 0.0000000000000000e+00  5.6204011695670963e-01 3.1291756096498613e-01 0.0000000000000000e+00  5.6281263961339090e-01 3.3079212289192417e-01 0.0000000000000000e+00  5.6231917135396947e-01 3.4053964953278226e-01 0.0000000000000000e+00  5.6122617946357689e-01 3.5067299696605436e-01 0.0000000000000000e+00  5.6399972806303378e-01 3.7410872594454397e-01 0.0000000000000000e+00  5.5870731924065420e-01 3.6677332368426935e-01 0.0000000000000000e+00  5.6523424606181472e-01 4.0597945202164498e-01 0.0000000000000000e+00  5.5862723282906435e-01 3.9317523912447006e-01 0.0000000000000000e+00  5.6160425024865757e-01 4.1765388444604151e-01 0.0000000000000000e+00  5.6516061870816248e-01 4.4740119517122778e-01 0.0000000000000000e+00  5.5109032773474842e-01 4.0040368679589522e-01 0.0000000000000000e+00  5.7563739701070116e-01 5.1775847721698476e-01 0.0000000000000000e+00  5.4282661778251384e-01 3.9231685934071669e-01 0.0000000000000000e+00  5.7370737668082361e-01 5.3796980014853968e-01 0.0000000000000000e+00  5.5730894303421219e-01 4.8317676580478019e-01 0.0000000000000000e+00  5.3903583709362635e-01 4.2022755575951004e-01 0.0000000000000000e+00  6.0439925825386476e-01 7.0495954577574849e-01 0.0000000000000000e+00  4.7968520743738408e-01 1.8454236285368281e-01 0.0000000000000000e+00  6.4325630685934299e-01 8.4926781704721133e-01 0.0000000000000000e+00  3.5688474442040846e-01 -1.3507657895412301e-01 0.0000000000000000e+00  1.4605776299364620e-01 -2.3749512770259962e+00 0.0000000000000000e+00  1.6956516081607034e-01 -1.5347820885650001e+00 0.0000000000000000e+00  1.7575414219912763e-01 -1.9159035761562613e+00 0.0000000000000000e+00  1.6371351627172814e-01 -1.7371491211992220e+00 0.0000000000000000e+00  1.7065683655112091e-01 -1.8104125908870570e+00 0.0000000000000000e+00  1.6608524606680791e-01 -1.7836483978010258e+00 0.0000000000000000e+00  1.6650538698530837e-01 -1.7771175302843005e+00 0.0000000000000000e+00  1.6587250361603009e-01 -1.7874353352371488e+00 0.0000000000000000e+00  1.6457446477694737e-01 -1.7674772345984930e+00 0.0000000000000000e+00  1.6428281964672606e-01 -1.7783635248954235e+00 0.0000000000000000e+00  1.6332935292668099e-01 -1.7637288178684583e+00 0.0000000000000000e+00  1.6248010786270992e-01 -1.7676298163655664e+00 0.0000000000000000e+00  1.6205968117278136e-01 -1.7594908095567015e+00 0.0000000000000000e+00  1.6080995475255136e-01 -1.7583711544059180e+00 0.0000000000000000e+00  1.6065479472403943e-01 -1.7536693755689534e+00 0.0000000000000000e+00  1.5925597695279173e-01 -1.7505638945604602e+00 0.0000000000000000e+00  1.5918214198025549e-01 -1.7468097432169591e+00 0.0000000000000000e+00  1.5774371704579188e-01 -1.7435304125197448e+00 0.0000000000000000e+00  1.5770183910904811e-01 -1.7395360281055396e+00 0.0000000000000000e+00  1.5623355744342737e-01 -1.7367818331692417e+00 0.0000000000000000e+00  1.5623455996705429e-01 -1.7321947776082298e+00 0.0000000000000000e+00  1.5471869803750823e-01 -1.7300951916781173e+00 0.0000000000000000e+00  1.5477850690560349e-01 -1.7249195709954124e+00 0.0000000000000000e+00  1.5320495002344567e-01 -1.7233999438228496e+00 0.0000000000000000e+00  1.5332682315556720e-01 -1.7177445076076721e+00 0.0000000000000000e+00  1.5169830078021784e-01 -1.7166857895351586e+00 0.0000000000000000e+00  1.5187505612871655e-01 -1.7106698964775819e+00 0.0000000000000000e+00  1.5020140822641012e-01 -1.7099601219707488e+00 0.0000000000000000e+00  1.5042198509772253e-01 -1.7036875781911887e+00 0.0000000000000000e+00  1.4871430384190210e-01 -1.7032339940375125e+00 0.0000000000000000e+00  1.4896824697292563e-01 -1.6967882887250130e+00 0.0000000000000000e+00  1.4723588165066198e-01 -1.6965183283217087e+00 0.0000000000000000e+00  1.4751503461583373e-01 -1.6899636969409140e+00 0.0000000000000000e+00  1.4576488791912257e-01 -1.6898227185029913e+00 0.0000000000000000e+00  1.4606343013172415e-01 -1.6832071542662037e+00 0.0000000000000000e+00  1.4430030968436131e-01 -1.6831550056926241e+00 0.0000000000000000e+00  1.4461422596786064e-01 -1.6765138307929057e+00 0.0000000000000000e+00  1.4284141145646395e-01 -1.6765214048076056e+00 0.0000000000000000e+00  1.4316797195828948e-01 -1.6698803852337132e+00 0.0000000000000000e+00  1.4138764803010051e-01 -1.6699269688771341e+00 0.0000000000000000e+00  1.4172507192112721e-01 -1.6633044573195668e+00 0.0000000000000000e+00  1.3993857698286458e-01 -1.6633760713152295e+00 0.0000000000000000e+00  1.4028585186438117e-01 -1.6567842769090924e+00 0.0000000000000000e+00  1.3849381290317186e-01 -1.6568726797848519e+00 0.0000000000000000e+00  1.3885058382009977e-01 -1.6503185254465704e+00 0.0000000000000000e+00  1.3705302167538982e-01 -1.6504203777880915e+00 0.0000000000000000e+00  1.3741947785792219e-01 -1.6439064146214823e+00 0.0000000000000000e+00  1.3561593651317921e-01 -1.6440222269682696e+00 0.0000000000000000e+00  1.3599266259662990e-01 -1.6375478553711764e+00 0.0000000000000000e+00  1.3418237611045641e-01 -1.6376806086667948e+00 0.0000000000000000e+00  1.3457017137828067e-01 -1.6312435859105809e+00 0.0000000000000000e+00  1.3275225131977619e-01 -1.6313971558038505e+00 0.0000000000000000e+00  1.3315194360177784e-01 -1.6249951766314674e+00 0.0000000000000000e+00  1.3132555505072671e-01 -1.6251728250029229e+00 0.0000000000000000e+00  1.3173784260982377e-01 -1.6188048941295947e+00 0.0000000000000000e+00  1.2990233737171306e-01 -1.6190080979430095e+00 0.0000000000000000e+00  1.3032768546374857e-01 -1.6126754590252168e+00 0.0000000000000000e+00  1.2848267237042102e-01 -1.6129032598992010e+00 0.0000000000000000e+00  1.2892127695067429e-01 -1.6066097603092673e+00 0.0000000000000000e+00  1.2706662476366137e-01 -1.6068586883504727e+00 0.0000000000000000e+00  1.2751844013905200e-01 -1.6006105919316116e+00 0.0000000000000000e+00  1.2565422309597357e-01 -1.6008750918515342e+00 0.0000000000000000e+00  1.2611903785934095e-01 -1.5946804618719570e+00 0.0000000000000000e+00  1.2424544368601456e-01 -1.5949536606458306e+00 0.0000000000000000e+00  1.2472298250493971e-01 -1.5888214992502783e+00 0.0000000000000000e+00  1.2284020639046808e-01 -1.5890961163978088e+00 0.0000000000000000e+00  1.2333023449167854e-01 -1.5830354598999574e+00 0.0000000000000000e+00  1.2143838063502316e-01 -1.5833046713309205e+00 0.0000000000000000e+00  1.2194079189516330e-01 -1.5773238113480361e+00 0.0000000000000000e+00  1.2003979849830367e-01 -1.5775819224491281e+00 0.0000000000000000e+00  1.2055467490866646e-01 -1.5716878672594903e+00 0.0000000000000000e+00  1.1864427104106523e-01 -1.5719307129685292e+00 0.0000000000000000e+00  1.1917190887602533e-01 -1.5661289391463253e+00 0.0000000000000000e+00  1.1725160437789311e-01 -1.5663539916640479e+00 0.0000000000000000e+00  1.1779250901346167e-01 -1.5606484776272993e+00 0.0000000000000000e+00  1.1586161287771433e-01 -1.5608546939891657e+00 0.0000000000000000e+00  1.1641646888404825e-01 -1.5552481839787773e+00 0.0000000000000000e+00  1.1447412800838627e-01 -1.5554356594357859e+00 0.0000000000000000e+00  1.1504375355191590e-01 -1.5499300823715454e+00 0.0000000000000000e+00  1.1308900242522228e-01 -1.5500995901759180e+00 0.0000000000000000e+00  1.1367429735748408e-01 -1.5446965518960392e+00 0.0000000000000000e+00  1.1170610975737398e-01 -1.5448490483128632e+00 0.0000000000000000e+00  1.1230800555443966e-01 -1.5395503239287125e+00 0.0000000000000000e+00  1.1032534108637077e-01 -1.5396864839381799e+00 0.0000000000000000e+00  1.1094475867051508e-01 -1.5344944541300336e+00 0.0000000000000000e+00  1.0894659934027337e-01 -1.5346142837389816e+00 0.0000000000000000e+00  1.0958441836451975e-01 -1.5295322795784512e+00 0.0000000000000000e+00  1.0756979280080901e-01 -1.5296348297116307e+00 0.0000000000000000e+00  1.0822683367896258e-01 -1.5246673708164360e+00 0.0000000000000000e+00  1.0619482872242511e-01 -1.5247505589202590e+00 0.0000000000000000e+00  1.0687184684453067e-01 -1.5199034866468160e+00 0.0000000000000000e+00  1.0482160777634107e-01 -1.5199640174641935e+00 0.0000000000000000e+00  1.0551929810011711e-01 -1.5152445370490959e+00 0.0000000000000000e+00  1.0345001973163701e-01 -1.5152779042729856e+00 0.0000000000000000e+00  1.0416902928724341e-01 -1.5106945571099535e+00 0.0000000000000000e+00  1.0207994052202367e-01 -1.5106951025971642e+00 0.0000000000000000e+00  1.0282088621934647e-01 -1.5062576927075602e+00 0.0000000000000000e+00  1.0071123065162119e-01 -1.5062186988693413e+00 0.0000000000000000e+00  1.0147471999522076e-01 -1.5019381970002914e+00 0.0000000000000000e+00  9.9343734776678128e-02 -1.5018519898862643e+00 0.0000000000000000e+00  1.0013038752030981e-01 -1.4977404355692325e+00 0.0000000000000000e+00  9.7977282257752041e-02 -1.4975984800138880e+00 0.0000000000000000e+00  9.8787751532066315e-02 -1.4936688972998218e+00 0.0000000000000000e+00  9.6611688492349052e-02 -1.4934618703932732e+00 0.0000000000000000e+00  9.7446680417340933e-02 -1.4897282076868534e+00 0.0000000000000000e+00  9.5246756890015064e-02 -1.4894460419728366e+00 0.0000000000000000e+00  9.6107048084771510e-02 -1.4859231411405682e+00 0.0000000000000000e+00  9.3882281418905339e-02 -1.4855550336452514e+00 0.0000000000000000e+00  9.4768734136021743e-02 -1.4822586289934592e+00 0.0000000000000000e+00  9.2518049717975712e-02 -1.4817930158501771e+00 0.0000000000000000e+00  9.3431624583271783e-02 -1.4787397601788497e+00 0.0000000000000000e+00  9.1153846823920887e-02 -1.4781642587489066e+00 0.0000000000000000e+00  9.2095613394590589e-02 -1.4753717718597099e+00 0.0000000000000000e+00  8.9789459609353625e-02 -1.4746730925423248e+00 0.0000000000000000e+00  9.0760605212689346e-02 -1.4721600274569890e+00 0.0000000000000000e+00  8.8424682081289965e-02 -1.4713238557822794e+00 0.0000000000000000e+00  8.9426519677738694e-02 -1.4691099793316524e+00 0.0000000000000000e+00  8.7059321767143857e-02 -1.4681208257224538e+00 0.0000000000000000e+00  8.8093297880831312e-02 -1.4662271125544131e+00 0.0000000000000000e+00  8.5693207541023983e-02 -1.4650681229326452e+00 0.0000000000000000e+00  8.6760911576218847e-02 -1.4635168645168593e+00 0.0000000000000000e+00  8.4326199431601301e-02 -1.4621695805079433e+00 0.0000000000000000e+00  8.5429375896587278e-02 -1.4609845124614504e+00 0.0000000000000000e+00  8.2958201205663204e-02 -1.4594285659846180e+00 0.0000000000000000e+00  8.4098766475547940e-02 -1.4586350173704774e+00 0.0000000000000000e+00  8.1589176821293088e-02 -1.4568477410149336e+00 0.0000000000000000e+00  8.2769242134943063e-02 -1.4564728082869014e+00 0.0000000000000000e+00  8.0219172157007995e-02 -1.4544287392158204e+00 0.0000000000000000e+00  8.1441074700764768e-02 -1.4545014864167689e+00 0.0000000000000000e+00  7.8848343707598467e-02 -1.4521717356094055e+00 0.0000000000000000e+00  8.0114688112989205e-02 -1.4527234236448863e+00 0.0000000000000000e+00  7.7476996166662093e-02 -1.4500748712679068e+00 0.0000000000000000e+00  7.8790709775100415e-02 -1.4511392254949658e+00 0.0000000000000000e+00  7.6105630997451601e-02 -1.4481334846453211e+00 0.0000000000000000e+00  7.7470037918942872e-02 -1.4497470237407217e+00 0.0000000000000000e+00  7.4735008280253201e-02 -1.4463390888025107e+00 0.0000000000000000e+00  7.6153929343912685e-02 -1.4485415580263115e+00 0.0000000000000000e+00  7.3366224397143937e-02 -1.4446780259180829e+00 0.0000000000000000e+00  7.4844111739452338e-02 -1.4475129980811776e+00 0.0000000000000000e+00  7.2000808533336083e-02 -1.4431297344664102e+00 0.0000000000000000e+00  7.3542923276889050e-02 -1.4466454482010564e+00 0.0000000000000000e+00  7.0640841475100052e-02 -1.4416645899885694e+00 0.0000000000000000e+00  7.2253478551950509e-02 -1.4459150657954818e+00 0.0000000000000000e+00  6.9289100436543391e-02 -1.4402413385011446e+00 0.0000000000000000e+00  7.0979853829930481e-02 -1.4452877205602641e+00 0.0000000000000000e+00  6.7949233460410791e-02 -1.4388042359015047e+00 0.0000000000000000e+00  6.9727276792371132e-02 -1.4447161184241539e+00 0.0000000000000000e+00  6.6625966325519176e-02 -1.4372801281313576e+00 0.0000000000000000e+00  6.8502296260104234e-02 -1.4441363393648754e+00 0.0000000000000000e+00  6.5325336635022407e-02 -1.4355759211672894e+00 0.0000000000000000e+00  6.7312884168891002e-02 -1.4434639640594886e+00 0.0000000000000000e+00  6.4054916075827931e-02 -1.4335773903136177e+00 0.0000000000000000e+00  6.6168376967078127e-02 -1.4425905511951407e+00 0.0000000000000000e+00  6.2823928722827438e-02 -1.4311509789752572e+00 0.0000000000000000e+00  6.5079125111463132e-02 -1.4413818872195390e+00 0.0000000000000000e+00  6.1643133702475157e-02 -1.4281507039428492e+00 0.0000000000000000e+00  6.4055710067038224e-02 -1.4396798934047692e+00 0.0000000000000000e+00  6.0524322491386416e-02 -1.4244323611818934e+00 0.0000000000000000e+00  6.3107626022615632e-02 -1.4373100678821618e+00 0.0000000000000000e+00  5.9479354220276538e-02 -1.4198759740213041e+00 0.0000000000000000e+00  6.2241523268828564e-02 -1.4340942999854902e+00 0.0000000000000000e+00  5.8518932686203479e-02 -1.4144132541357426e+00 0.0000000000000000e+00  6.1459467755121087e-02 -1.4298646396861989e+00 0.0000000000000000e+00  5.7651642110599415e-02 -1.4080518845923378e+00 0.0000000000000000e+00  6.0757839519467553e-02 -1.4244714389635789e+00 0.0000000000000000e+00  5.6883724833550614e-02 -1.4008878445448218e+00 0.0000000000000000e+00  6.0127217539581418e-02 -1.4177827072421418e+00 0.0000000000000000e+00  5.6219675782397033e-02 -1.3931017325579997e+00 0.0000000000000000e+00  5.9553124603160493e-02 -1.4096776810412230e+00 0.0000000000000000e+00  5.5663309538852339e-02 -1.3849407401624241e+00 0.0000000000000000e+00  5.9017244687263923e-02 -1.4000410531474075e+00 0.0000000000000000e+00  5.5218798638911451e-02 -1.3766909006299546e+00 0.0000000000000000e+00  5.8498794820708126e-02 -1.3887631210868803e+00 0.0000000000000000e+00  5.4891259319492985e-02 -1.3686445694562479e+00 0.0000000000000000e+00  5.7975958659240594e-02 -1.3757473475720863e+00 0.0000000000000000e+00  5.4686632179466600e-02 -1.3610674824753055e+00 0.0000000000000000e+00  5.7427453840727671e-02 -1.3609233854575018e+00 0.0000000000000000e+00  5.4610792653043243e-02 -1.3541691044025506e+00 0.0000000000000000e+00  5.6834309242644494e-02 -1.3442620956387976e+00 0.0000000000000000e+00  5.4668016024416219e-02 -1.3480792758779372e+00 0.0000000000000000e+00  5.6181797919512631e-02 -1.3257894537265893e+00 0.0000000000000000e+00  5.4859095887773456e-02 -1.3428332081363843e+00 0.0000000000000000e+00  5.5461303914726839e-02 -1.3055975265458843e+00 0.0000000000000000e+00  5.5179527520030566e-02 -1.3383657686430306e+00 0.0000000000000000e+00  5.4671797137285649e-02 -1.2838518288206882e+00 0.0000000000000000e+00  5.5618174141283672e-02 -1.3345149821475859e+00 0.0000000000000000e+00  5.3820604205559390e-02 -1.2607947756598410e+00 0.0000000000000000e+00  5.6156727831274976e-02 -1.3310338488748479e+00 0.0000000000000000e+00  5.2923285421248287e-02 -1.2367447049408105e+00 0.0000000000000000e+00  5.6770097015370447e-02 -1.3276089303829388e+00 0.0000000000000000e+00  5.2002603811428766e-02 -1.2120895137874221e+00 0.0000000000000000e+00  5.7427662234297197e-02 -1.3238836634346209e+00 0.0000000000000000e+00  5.1086735110560992e-02 -1.1872737970941709e+00 0.0000000000000000e+00  5.8095197859227725e-02 -1.3194841081237643e+00 0.0000000000000000e+00  5.0206970494261031e-02 -1.1627787354139598e+00 0.0000000000000000e+00  5.8737187803809307e-02 -1.3140448971992000e+00 0.0000000000000000e+00  4.9395192841353304e-02 -1.1390948661203624e+00 0.0000000000000000e+00  5.9319263999354596e-02 -1.3072334932389076e+00 0.0000000000000000e+00  4.8681378170482702e-02 -1.1166891560831866e+00 0.0000000000000000e+00  5.9810540588657236e-02 -1.2987713158912912e+00 0.0000000000000000e+00  4.8091318538525163e-02 -1.0959692592315471e+00 0.0000000000000000e+00  6.0185670669747893e-02 -1.2884506927911086e+00 0.0000000000000000e+00  4.7644712567192771e-02 -1.0772491660733539e+00 0.0000000000000000e+00  6.0426490246464071e-02 -1.2761468500251190e+00 0.0000000000000000e+00  4.7353742858276031e-02 -1.0607211929928926e+00 0.0000000000000000e+00  6.0523127981522172e-02 -1.2618243802136382e+00 0.0000000000000000e+00  4.7222253624850233e-02 -1.0464389576597566e+00 0.0000000000000000e+00  6.0474462676364020e-02 -1.2455379500238677e+00 0.0000000000000000e+00  4.7245633816152918e-02 -1.0343144399370332e+00 0.0000000000000000e+00  6.0287835157775083e-02 -1.2274274219704246e+00 0.0000000000000000e+00  4.7411462918773184e-02 -1.0241298094584785e+00 0.0000000000000000e+00  5.9978004504969762e-02 -1.2077078007906006e+00 0.0000000000000000e+00  4.7700861269587773e-02 -1.0155622935554935e+00 0.0000000000000000e+00  5.9565482822340921e-02 -1.1866543047254845e+00 0.0000000000000000e+00  4.8090336251449060e-02 -1.0082186008940903e+00 0.0000000000000000e+00  5.9074516341496117e-02 -1.1645829021626635e+00 0.0000000000000000e+00  4.8553829599651245e-02 -1.0016741248855618e+00 0.0000000000000000e+00  5.8531003719101145e-02 -1.1418276145110986e+00 0.0000000000000000e+00  4.9064714560892404e-02 -9.9551113560072735e-01 0.0000000000000000e+00  5.7960553853279077e-02 -1.1187174014232069e+00 0.0000000000000000e+00  4.9597594773085812e-02 -9.8935030602736118e-01 0.0000000000000000e+00  5.7386801633959310e-02 -1.0955559206458412e+00 0.0000000000000000e+00  5.0129801001881150e-02 -9.8287209588629243e-01 0.0000000000000000e+00  5.6830090981576209e-02 -1.0726062100128322e+00 0.0000000000000000e+00  5.0642471665305326e-02 -9.7582771845094596e-01 0.0000000000000000e+00  5.6306631153301451e-02 -1.0500806900558077e+00 0.0000000000000000e+00  5.1121136416532674e-02 -9.6804153960848072e-01 0.0000000000000000e+00  5.5828160338500424e-02 -1.0281361975723440e+00 0.0000000000000000e+00  5.1555818492623577e-02 -9.5940715899889595e-01 0.0000000000000000e+00  5.5402050535154526e-02 -1.0068737508619430e+00 0.0000000000000000e+00  5.1940754430410054e-02 -9.4987912315945333e-01 0.0000000000000000e+00  5.5031734775261416e-02 -9.8634253518875425e-01 0.0000000000000000e+00  5.2273852841085808e-02 -9.3946203635428349e-01 0.0000000000000000e+00  5.4717338027744263e-02 -9.6654712007153565e-01 0.0000000000000000e+00  5.2556001668817347e-02 -9.2819868020154894e-01 0.0000000000000000e+00  5.4456410139075338e-02 -9.4745661940635839e-01 0.000