<?xml version="1.0"?>
<VTKFile type="UnstructuredGrid"  version="0.1"  >
<UnstructuredGrid>
<Piece  NumberOfPoints="801" NumberOfCells="800">
<Points>
<DataArray  type="Float64"  NumberOfComponents="3"  format="ascii">-5 0 0  -4.9875 0 0  -4.975 0 0  -4.9625 0 0  -4.95 0 0  -4.9375 0 0  -4.925 0 0  -4.9125 0 0  -4.9 0 0  -4.8875 0 0  -4.875 0 0  -4.8625 0 0  -4.85 0 0  -4.8375 0 0  -4.825 0 0  -4.8125 0 0  -4.8 0 0  -4.7875 0 0  -4.775 0 0  -4.7625 0 0  -4.75 0 0  -4.7375 0 0  -4.725 0 0  -4.7125 0 0  -4.7 0 0  -4.6875 0 0  -4.675 0 0  -4.6625 0 0  -4.65 0 0  -4.6375 0 0  -4.625 0 0  -4.6125 0 0  -4.6 0 0  -4.5875 0 0  -4.575 0 0  -4.5625 0 0  -4.55 0 0  -4.5375 0 0  -4.525 0 0  -4.5125 0 0  -4.5 0 0  -4.4875 0 0  -4.475 0 0  -4.4625 0 0  -4.45 0 0  -4.4375 0 0  -4.425 0 0  -4.4125 0 0  -4.4 0 0  -4.3875 0 0  -4.375 0 0  -4.3625 0 0  -4.35 0 0  -4.3375 0 0  -4.325 0 0  -4.3125 0 0  -4.3 0 0  -4.2875 0 0  -4.275 0 0  -4.2625 0 0  -4.25 0 0  -4.2375 0 0  -4.225 0 0  -4.2125 0 0  -4.2 0 0  -4.1875 0 0  -4.175 0 0  -4.1625 0 0  -4.15 0 0  -4.1375 0 0  -4.125 0 0  -4.1125 0 0  -4.1 0 0  -4.0875 0 0  -4.075 0 0  -4.0625 0 0  -4.05 0 0  -4.0375 0 0  -4.025 0 0  -4.0125 0 0  -4 0 0  -3.9875 0 0  -3.975 0 0  -3.9625 0 0  -3.95 0 0  -3.9375 0 0  -3.925 0 0  -3.9125 0 0  -3.9 0 0  -3.8875 0 0  -3.875 0 0  -3.8625 0 0  -3.85 0 0  -3.8375 0 0  -3.825 0 0  -3.8125 0 0  -3.8 0 0  -3.7875 0 0  -3.775 0 0  -3.7625 0 0  -3.75 0 0  -3.7375 0 0  -3.725 0 0  -3.7125 0 0  -3.7 0 0  -3.6875 0 0  -3.675 0 0  -3.6625 0 0  -3.65 0 0  -3.6375 0 0  -3.625 0 0  -3.6125 0 0  -3.6 0 0  -3.5875 0 0  -3.575 0 0  -3.5625 0 0  -3.55 0 0  -3.5375 0 0  -3.525 0 0  -3.5125 0 0  -3.5 0 0  -3.4875 0 0  -3.475 0 0  -3.4625 0 0  -3.45 0 0  -3.4375 0 0  -3.425 0 0  -3.4125 0 0  -3.4 0 0  -3.3875 0 0  -3.375 0 0  -3.3625 0 0  -3.35 0 0  -3.3375 0 0  -3.325 0 0  -3.3125 0 0  -3.3 0 0  -3.2875 0 0  -3.275 0 0  -3.2625 0 0  -3.25 0 0  -3.2375 0 0  -3.225 0 0  -3.2125 0 0  -3.2 0 0  -3.1875 0 0  -3.175 0 0  -3.1625 0 0  -3.15 0 0  -3.1375 0 0  -3.125 0 0  -3.1125 0 0  -3.1 0 0  -3.0875 0 0  -3.075 0 0  -3.0625 0 0  -3.05 0 0  -3.0375 0 0  -3.025 0 0  -3.0125 0 0  -3 0 0  -2.9875 0 0  -2.975 0 0  -2.9625 0 0  -2.95 0 0  -2.9375 0 0  -2.925 0 0  -2.9125 0 0  -2.9 0 0  -2.8875 0 0  -2.875 0 0  -2.8625 0 0  -2.85 0 0  -2.8375 0 0  -2.825 0 0  -2.8125 0 0  -2.8 0 0  -2.7875 0 0  -2.775 0 0  -2.7625 0 0  -2.75 0 0  -2.7375 0 0  -2.725 0 0  -2.7125 0 0  -2.7 0 0  -2.6875 0 0  -2.675 0 0  -2.6625 0 0  -2.65 0 0  -2.6375 0 0  -2.625 0 0  -2.6125 0 0  -2.6 0 0  -2.5875 0 0  -2.575 0 0  -2.5625 0 0  -2.55 0 0  -2.5375 0 0  -2.525 0 0  -2.5125 0 0  -2.5 0 0  -2.4875 0 0  -2.475 0 0  -2.4625 0 0  -2.45 0 0  -2.4375 0 0  -2.425 0 0  -2.4125 0 0  -2.4 0 0  -2.3875 0 0  -2.375 0 0  -2.3625 0 0  -2.35 0 0  -2.3375 0 0  -2.325 0 0  -2.3125 0 0  -2.3 0 0  -2.2875 0 0  -2.275 0 0  -2.2625 0 0  -2.25 0 0  -2.2375 0 0  -2.225 0 0  -2.2125 0 0  -2.2 0 0  -2.1875 0 0  -2.175 0 0  -2.1625 0 0  -2.15 0 0  -2.1375 0 0  -2.125 0 0  -2.1125 0 0  -2.1 0 0  -2.0875 0 0  -2.075 0 0  -2.0625 0 0  -2.05 0 0  -2.0375 0 0  -2.025 0 0  -2.0125 0 0  -2 0 0  -1.9875 0 0  -1.975 0 0  -1.9625 0 0  -1.95 0 0  -1.9375 0 0  -1.925 0 0  -1.9125 0 0  -1.9 0 0  -1.8875 0 0  -1.875 0 0  -1.8625 0 0  -1.85 0 0  -1.8375 0 0  -1.825 0 0  -1.8125 0 0  -1.8 0 0  -1.7875 0 0  -1.775 0 0  -1.7625 0 0  -1.75 0 0  -1.7375 0 0  -1.725 0 0  -1.7125 0 0  -1.7 0 0  -1.6875 0 0  -1.675 0 0  -1.6625 0 0  -1.65 0 0  -1.6375 0 0  -1.625 0 0  -1.6125 0 0  -1.6 0 0  -1.5875 0 0  -1.575 0 0  -1.5625 0 0  -1.55 0 0  -1.5375 0 0  -1.525 0 0  -1.5125 0 0  -1.5 0 0  -1.4875 0 0  -1.475 0 0  -1.4625 0 0  -1.45 0 0  -1.4375 0 0  -1.425 0 0  -1.4125 0 0  -1.4 0 0  -1.3875 0 0  -1.375 0 0  -1.3625 0 0  -1.35 0 0  -1.3375 0 0  -1.325 0 0  -1.3125 0 0  -1.3 0 0  -1.2875 0 0  -1.275 0 0  -1.2625 0 0  -1.25 0 0  -1.2375 0 0  -1.225 0 0  -1.2125 0 0  -1.2 0 0  -1.1875 0 0  -1.175 0 0  -1.1625 0 0  -1.15 0 0  -1.1375 0 0  -1.125 0 0  -1.1125 0 0  -1.1 0 0  -1.0875 0 0  -1.075 0 0  -1.0625 0 0  -1.05 0 0  -1.0375 0 0  -1.025 0 0  -1.0125 0 0  -1 0 0  -0.9874999999999998 0 0  -0.9749999999999996 0 0  -0.9625000000000004 0 0  -0.9500000000000002 0 0  -0.9375 0 0  -0.9249999999999998 0 0  -0.9124999999999996 0 0  -0.9000000000000004 0 0  -0.8875000000000002 0 0  -0.875 0 0  -0.8624999999999998 0 0  -0.8499999999999996 0 0  -0.8375000000000004 0 0  -0.8250000000000002 0 0  -0.8125 0 0  -0.7999999999999998 0 0  -0.7874999999999996 0 0  -0.7750000000000004 0 0  -0.7625000000000002 0 0  -0.75 0 0  -0.7374999999999998 0 0  -0.7249999999999996 0 0  -0.7125000000000004 0 0  -0.7000000000000002 0 0  -0.6875 0 0  -0.6749999999999998 0 0  -0.6624999999999996 0 0  -0.6500000000000004 0 0  -0.6375000000000002 0 0  -0.625 0 0  -0.6124999999999998 0 0  -0.5999999999999996 0 0  -0.5875000000000004 0 0  -0.5750000000000002 0 0  -0.5625 0 0  -0.5499999999999998 0 0  -0.5374999999999996 0 0  -0.5250000000000004 0 0  -0.5125000000000002 0 0  -0.5 0 0  -0.4874999999999998 0 0  -0.4749999999999996 0 0  -0.4625000000000004 0 0  -0.4500000000000002 0 0  -0.4375 0 0  -0.4249999999999998 0 0  -0.4124999999999996 0 0  -0.4000000000000004 0 0  -0.3875000000000002 0 0  -0.375 0 0  -0.3624999999999998 0 0  -0.3499999999999996 0 0  -0.3375000000000004 0 0  -0.3250000000000002 0 0  -0.3125 0 0  -0.2999999999999998 0 0  -0.2874999999999996 0 0  -0.2750000000000004 0 0  -0.2625000000000002 0 0  -0.25 0 0  -0.2374999999999998 0 0  -0.2249999999999996 0 0  -0.2125000000000004 0 0  -0.2000000000000002 0 0  -0.1875 0 0  -0.1749999999999998 0 0  -0.1624999999999996 0 0  -0.1500000000000004 0 0  -0.1375000000000002 0 0  -0.125 0 0  -0.1124999999999998 0 0  -0.09999999999999964 0 0  -0.08750000000000036 0 0  -0.07500000000000018 0 0  -0.0625 0 0  -0.04999999999999982 0 0  -0.03749999999999964 0 0  -0.02500000000000036 0 0  -0.01250000000000018 0 0  0 0 0  0.01250000000000018 0 0  0.02500000000000036 0 0  0.03749999999999964 0 0  0.04999999999999982 0 0  0.0625 0 0  0.07500000000000018 0 0  0.08750000000000036 0 0  0.09999999999999964 0 0  0.1124999999999998 0 0  0.125 0 0  0.1375000000000002 0 0  0.1500000000000004 0 0  0.1624999999999996 0 0  0.1749999999999998 0 0  0.1875 0 0  0.2000000000000002 0 0  0.2125000000000004 0 0  0.2249999999999996 0 0  0.2374999999999998 0 0  0.25 0 0  0.2625000000000002 0 0  0.2750000000000004 0 0  0.2874999999999996 0 0  0.2999999999999998 0 0  0.3125 0 0  0.3250000000000002 0 0  0.3375000000000004 0 0  0.3499999999999996 0 0  0.3624999999999998 0 0  0.375 0 0  0.3875000000000002 0 0  0.4000000000000004 0 0  0.4124999999999996 0 0  0.4249999999999998 0 0  0.4375 0 0  0.4500000000000002 0 0  0.4625000000000004 0 0  0.4749999999999996 0 0  0.4874999999999998 0 0  0.5 0 0  0.5125000000000002 0 0  0.5250000000000004 0 0  0.5374999999999996 0 0  0.5499999999999998 0 0  0.5625 0 0  0.5750000000000002 0 0  0.5875000000000004 0 0  0.5999999999999996 0 0  0.6124999999999998 0 0  0.625 0 0  0.6375000000000002 0 0  0.6500000000000004 0 0  0.6624999999999996 0 0  0.6749999999999998 0 0  0.6875 0 0  0.7000000000000002 0 0  0.7125000000000004 0 0  0.7249999999999996 0 0  0.7374999999999998 0 0  0.75 0 0  0.7625000000000002 0 0  0.7750000000000004 0 0  0.7874999999999996 0 0  0.7999999999999998 0 0  0.8125 0 0  0.8250000000000002 0 0  0.8375000000000004 0 0  0.8499999999999996 0 0  0.8624999999999998 0 0  0.875 0 0  0.8875000000000002 0 0  0.9000000000000004 0 0  0.9124999999999996 0 0  0.9249999999999998 0 0  0.9375 0 0  0.9500000000000002 0 0  0.9625000000000004 0 0  0.9749999999999996 0 0  0.9874999999999998 0 0  1 0 0  1.0125 0 0  1.025 0 0  1.0375 0 0  1.05 0 0  1.0625 0 0  1.075 0 0  1.0875 0 0  1.1 0 0  1.1125 0 0  1.125 0 0  1.1375 0 0  1.15 0 0  1.1625 0 0  1.175 0 0  1.1875 0 0  1.2 0 0  1.2125 0 0  1.225 0 0  1.2375 0 0  1.25 0 0  1.2625 0 0  1.275 0 0  1.2875 0 0  1.3 0 0  1.3125 0 0  1.325 0 0  1.3375 0 0  1.35 0 0  1.3625 0 0  1.375 0 0  1.3875 0 0  1.4 0 0  1.4125 0 0  1.425 0 0  1.4375 0 0  1.45 0 0  1.4625 0 0  1.475 0 0  1.4875 0 0  1.5 0 0  1.5125 0 0  1.525 0 0  1.5375 0 0  1.55 0 0  1.5625 0 0  1.575 0 0  1.5875 0 0  1.6 0 0  1.6125 0 0  1.625 0 0  1.6375 0 0  1.65 0 0  1.6625 0 0  1.675 0 0  1.6875 0 0  1.7 0 0  1.7125 0 0  1.725 0 0  1.7375 0 0  1.75 0 0  1.7625 0 0  1.775 0 0  1.7875 0 0  1.8 0 0  1.8125 0 0  1.825 0 0  1.8375 0 0  1.85 0 0  1.8625 0 0  1.875 0 0  1.8875 0 0  1.9 0 0  1.9125 0 0  1.925 0 0  1.9375 0 0  1.95 0 0  1.9625 0 0  1.975 0 0  1.9875 0 0  2 0 0  2.0125 0 0  2.025 0 0  2.0375 0 0  2.05 0 0  2.0625 0 0  2.075 0 0  2.0875 0 0  2.1 0 0  2.1125 0 0  2.125 0 0  2.1375 0 0  2.15 0 0  2.1625 0 0  2.175 0 0  2.1875 0 0  2.2 0 0  2.2125 0 0  2.225 0 0  2.2375 0 0  2.25 0 0  2.2625 0 0  2.275 0 0  2.2875 0 0  2.3 0 0  2.3125 0 0  2.325 0 0  2.3375 0 0  2.35 0 0  2.3625 0 0  2.375 0 0  2.3875 0 0  2.4 0 0  2.4125 0 0  2.425 0 0  2.4375 0 0  2.45 0 0  2.4625 0 0  2.475 0 0  2.4875 0 0  2.5 0 0  2.5125 0 0  2.525 0 0  2.5375 0 0  2.55 0 0  2.5625 0 0  2.575 0 0  2.5875 0 0  2.6 0 0  2.6125 0 0  2.625 0 0  2.6375 0 0  2.65 0 0  2.6625 0 0  2.675 0 0  2.6875 0 0  2.7 0 0  2.7125 0 0  2.725 0 0  2.7375 0 0  2.75 0 0  2.7625 0 0  2.775 0 0  2.7875 0 0  2.8 0 0  2.8125 0 0  2.825 0 0  2.8375 0 0  2.85 0 0  2.8625 0 0  2.875 0 0  2.8875 0 0  2.9 0 0  2.9125 0 0  2.925 0 0  2.9375 0 0  2.95 0 0  2.9625 0 0  2.975 0 0  2.9875 0 0  3 0 0  3.012499999999999 0 0  3.025 0 0  3.0375 0 0  3.050000000000001 0 0  3.0625 0 0  3.074999999999999 0 0  3.0875 0 0  3.1 0 0  3.112500000000001 0 0  3.125 0 0  3.137499999999999 0 0  3.15 0 0  3.1625 0 0  3.175000000000001 0 0  3.1875 0 0  3.199999999999999 0 0  3.2125 0 0  3.225 0 0  3.237500000000001 0 0  3.25 0 0  3.262499999999999 0 0  3.275 0 0  3.2875 0 0  3.300000000000001 0 0  3.3125 0 0  3.324999999999999 0 0  3.3375 0 0  3.35 0 0  3.362500000000001 0 0  3.375 0 0  3.387499999999999 0 0  3.4 0 0  3.4125 0 0  3.425000000000001 0 0  3.4375 0 0  3.449999999999999 0 0  3.4625 0 0  3.475 0 0  3.4875
[...]
<PointData  Vectors="(h, u)"> 
<DataArray  type="Float64"  Name="(h, u)"  NumberOfComponents="3" format="ascii">4.2281646998388572e-01 0.0000000000000000e+00 0.0000000000000000e+00  4.1852876725791666e-01 1.0309758656247845e-02 0.0000000000000000e+00  4.2280912253132191e-01 2.0587067325906570e-02 0.0000000000000000e+00  4.1851692472007634e-01 3.0927356257439687e-02 0.0000000000000000e+00  4.2278793292454930e-01 4.1172508799422587e-02 0.0000000000000000e+00  4.1849381811385428e-01 5.1545586789034252e-02 0.0000000000000000e+00  4.2275236679124401e-01 6.1762229427932323e-02 0.0000000000000000e+00  4.1845837008021897e-01 7.2167879100400137e-02 0.0000000000000000e+00  4.2270229761806566e-01 8.2354186020422049e-02 0.0000000000000000e+00  4.1841174332726305e-01 9.2788131701288731e-02 0.0000000000000000e+00  4.2263867605967237e-01 1.0294570965092573e-01 0.0000000000000000e+00  4.1835332091609173e-01 1.1341247589775566e-01 0.0000000000000000e+00  4.2255975993615080e-01 1.2354714726334227e-01 0.0000000000000000e+00  4.1828232054060882e-01 1.3404254053183945e-01 0.0000000000000000e+00  4.2246740618169742e-01 1.4414970507757274e-01 0.0000000000000000e+00  4.1820094888048193e-01 1.5466808443358548e-01 0.0000000000000000e+00  4.2236083202555830e-01 1.6475681915343532e-01 0.0000000000000000e+00  4.1810619843552282e-01 1.7530827011365799e-01 0.0000000000000000e+00  4.2223801170566455e-01 1.8537809825740112e-01 0.0000000000000000e+00  4.1800051229819923e-01 1.9594832435186826e-01 0.0000000000000000e+00  4.2210410075270033e-01 2.0599512401207851e-01 0.0000000000000000e+00  4.1788303619919787e-01 2.1658670551605463e-01 0.0000000000000000e+00  4.2195308024000938e-01 2.2663823273102529e-01 0.0000000000000000e+00  4.1775061219207044e-01 2.3724982902406494e-01 0.0000000000000000e+00  4.2178799744818052e-01 2.4727778033073058e-01 0.0000000000000000e+00  4.1761294809339161e-01 2.5790199359660254e-01 0.0000000000000000e+00  4.2160931200184815e-01 2.6791892982125076e-01 0.0000000000000000e+00  4.1745583570892908e-01 2.7858442709641923e-01 0.0000000000000000e+00  4.2141366132029195e-01 2.8861529162429089e-01 0.0000000000000000e+00  4.1728729059304026e-01 2.9924157958707431e-01 0.0000000000000000e+00  4.2121367271392984e-01 3.0928265601801314e-01 0.0000000000000000e+00  4.1711074988013103e-01 3.1992561105899459e-01 0.0000000000000000e+00  4.2097963733747201e-01 3.2998701138387043e-01 0.0000000000000000e+00  4.1692166093254657e-01 3.4069132920595296e-01 0.0000000000000000e+00  4.2074124117753875e-01 3.5064798042391077e-01 0.0000000000000000e+00  4.1672641506341934e-01 3.6135384612332061e-01 0.0000000000000000e+00  4.2049820139186217e-01 3.7144274618832673e-01 0.0000000000000000e+00  4.1647954549394295e-01 3.8206160536619577e-01 0.0000000000000000e+00  4.2024195010672022e-01 3.9228056462880140e-01 0.0000000000000000e+00  4.1626680842612995e-01 4.0273797802061523e-01 0.0000000000000000e+00  4.1994775049584371e-01 4.1289082377064268e-01 0.0000000000000000e+00  4.1604925735796411e-01 4.2376407123458382e-01 0.0000000000000000e+00  4.1959593432158748e-01 4.3360424159274918e-01 0.0000000000000000e+00  4.1581341137482564e-01 4.4451444024818143e-01 0.0000000000000000e+00  4.1935423922057385e-01 4.5448648803186092e-01 0.0000000000000000e+00  4.1545481049777211e-01 4.6494121905457436e-01 0.0000000000000000e+00  4.1907914263738205e-01 4.7594846287421466e-01 0.0000000000000000e+00  4.1513361806482857e-01 4.8557714234997368e-01 0.0000000000000000e+00  4.1872498801623986e-01 4.9629494773757904e-01 0.0000000000000000e+00  4.1501728613759753e-01 5.0716490852093754e-01 0.0000000000000000e+00  4.1809639205920912e-01 5.1644160576875930e-01 0.0000000000000000e+00  4.1483131339053536e-01 5.2887921596617404e-01 0.0000000000000000e+00  4.1783118389841245e-01 5.3721223725993927e-01 0.0000000000000000e+00  4.1426971124346662e-01 5.4819259711192592e-01 0.0000000000000000e+00  4.1782230187191211e-01 5.6081178923770769e-01 0.0000000000000000e+00  4.1343165815638627e-01 5.6725046446919891e-01 0.0000000000000000e+00  4.1766879708999499e-01 5.8203719706791290e-01 0.0000000000000000e+00  4.1351814243766477e-01 5.8953701765290867e-01 0.0000000000000000e+00  4.1625344782346518e-01 5.9944877786317752e-01 0.0000000000000000e+00  4.1415327567566729e-01 6.1634700845612245e-01 0.0000000000000000e+00  4.1517961387306684e-01 6.1582777257144050e-01 0.0000000000000000e+00  4.1380772802146110e-01 6.3641890420061309e-01 0.0000000000000000e+00  4.1579301954344461e-01 6.4415208463340834e-01 0.0000000000000000e+00  4.1102867680593286e-01 6.4697130817060688e-01 0.0000000000000000e+00  4.1801705537864547e-01 6.7562242692934082e-01 0.0000000000000000e+00  4.0939666654558510e-01 6.6107980954738033e-01 0.0000000000000000e+00  4.1622367469404525e-01 6.9403022676585280e-01 0.0000000000000000e+00  4.1252126465014072e-01 6.9995764601013022e-01 0.0000000000000000e+00  4.1072248719171556e-01 6.8642898974656452e-01 0.0000000000000000e+00  4.1716049989441878e-01 7.4651142777900281e-01 0.0000000000000000e+00  4.0751977680226881e-01 6.9971631858949457e-01 0.0000000000000000e+00  4.1369926863005257e-01 7.5078378952733238e-01 0.0000000000000000e+00  4.1651614734986414e-01 7.6227046448219826e-01 0.0000000000000000e+00  4.0003733469718394e-01 7.1242087777252638e-01 0.0000000000000000e+00  4.2665251456315834e-01 8.3941056982391626e-01 0.0000000000000000e+00  3.9645329090587672e-01 7.0987780387174848e-01 0.0000000000000000e+00  4.1765532230970071e-01 8.1998035825481286e-01 0.0000000000000000e+00  4.1562307169094992e-01 8.4021473737037577e-01 0.0000000000000000e+00  3.8850642881413605e-01 6.9559438055326395e-01 0.0000000000000000e+00  4.4115440156771885e-01 9.7408018282409636e-01 0.0000000000000000e+00  3.7716515028286457e-01 6.7564335285273225e-01 0.0000000000000000e+00  4.2067298273606235e-01 9.1166942784410421e-01 0.0000000000000000e+00  4.2382739153304472e-01 9.2014334565009115e-01 0.0000000000000000e+00  3.5273112287006964e-01 5.9708359053770754e-01 0.0000000000000000e+00  4.7905328968218819e-01 1.2138265332487725e+00 0.0000000000000000e+00  3.2536320477758729e-01 4.5570559090981017e-01 0.0000000000000000e+00  4.4108626444938243e-01 1.0577617321741457e+00 0.0000000000000000e+00  3.8093029742910606e-01 1.0166701122760744e+00 0.0000000000000000e+00  8.0124786091649192e-02 -1.9156430624964973e+00 0.0000000000000000e+00  1.0373360067432337e-01 -1.1336165576115893e+00 0.0000000000000000e+00  1.1067279126023262e-01 -1.5065432478352594e+00 0.0000000000000000e+00  9.7018994842300088e-02 -1.3403779318811966e+00 0.0000000000000000e+00  1.0716746423245328e-01 -1.4084763306727610e+00 0.0000000000000000e+00  9.8740434887567730e-02 -1.3790648322823189e+00 0.0000000000000000e+00  1.0412721260287258e-01 -1.3927294059415765e+00 0.0000000000000000e+00  9.8731338993908277e-02 -1.3725392044264502e+00 0.0000000000000000e+00  1.0230173959495205e-01 -1.3963592771512878e+00 0.0000000000000000e+00  9.8158890846959695e-02 -1.3594943311777530e+00 0.0000000000000000e+00  1.0067233159504579e-01 -1.4004515053796200e+00 0.0000000000000000e+00  9.7528784131297883e-02 -1.3484336834793700e+00 0.0000000000000000e+00  9.9089911378827153e-02 -1.4023215173380292e+00 0.0000000000000000e+00  9.6827032529878801e-02 -1.3395786670289989e+00 0.0000000000000000e+00  9.7605783863409679e-02 -1.4025482319140672e+00 0.0000000000000000e+00  9.6015746896230159e-02 -1.3322436276878920e+00 0.0000000000000000e+00  9.6231036159958094e-02 -1.4016754407174348e+00 0.0000000000000000e+00  9.5103848008753530e-02 -1.3260187379311885e+00 0.0000000000000000e+00  9.4944531645847582e-02 -1.4000182395237100e+00 0.0000000000000000e+00  9.4116588485524358e-02 -1.3206454191852677e+00 0.0000000000000000e+00  9.3720522472218903e-02 -1.3978111136570759e+00 0.0000000000000000e+00  9.3077429073237933e-02 -1.3159167434756691e+00 0.0000000000000000e+00  9.2538056056609003e-02 -1.3952488119556312e+00 0.0000000000000000e+00  9.2004143832081872e-02 -1.3116667838230911e+00 0.0000000000000000e+00  9.1381805297338206e-02 -1.3924837355921802e+00 0.0000000000000000e+00  9.0909291177468279e-02 -1.3077736135902065e+00 0.0000000000000000e+00  9.0241064293253848e-02 -1.3896263731197414e+00 0.0000000000000000e+00  8.9801328972381869e-02 -1.3041546987164372e+00 0.0000000000000000e+00  8.9108629877269252e-02 -1.3867527405714355e+00 0.0000000000000000e+00  8.8685674499969419e-02 -1.3007579378639229e+00 0.0000000000000000e+00  8.7979813091209294e-02 -1.3839136650457120e+00 0.0000000000000000e+00  8.7565609153440971e-02 -1.2975527756236331e+00 0.0000000000000000e+00  8.6851629785258455e-02 -1.3811429035796134e+00 0.0000000000000000e+00  8.6442989325838132e-02 -1.2945230917482042e+00 0.0000000000000000e+00  8.5722190827151851e-02 -1.3784632915004611e+00 0.0000000000000000e+00  8.5318759184743381e-02 -1.2916620729578459e+00 0.0000000000000000e+00  8.4590276397893280e-02 -1.3758910411412137e+00 0.0000000000000000e+00  8.4193295381604152e-02 -1.2889687458338235e+00 0.0000000000000000e+00  8.3455055389718716e-02 -1.3734385895979029e+00 0.0000000000000000e+00  8.3066625971579988e-02 -1.2864457499458612e+00 0.0000000000000000e+00  8.2315908937038176e-02 -1.3711163993461002e+00 0.0000000000000000e+00  8.1938562441007015e-02 -1.2840979772544319e+00 0.0000000000000000e+00  8.1172323278646263e-02 -1.3689340573909006e+00 0.0000000000000000e+00  8.0808776344006988e-02 -1.2819317749868588e+00 0.0000000000000000e+00  8.0023826208812848e-02 -1.3669009360652122e+00 0.0000000000000000e+00  7.9676842296025910e-02 -1.2799545038700144e+00 0.0000000000000000e+00  7.8869950756581167e-02 -1.3650265879597527e+00 0.0000000000000000e+00  7.8542261440068359e-02 -1.2781743178850558e+00 0.0000000000000000e+00  7.7710215367480059e-02 -1.3633209913300954e+00 0.0000000000000000e+00  7.7404474902385625e-02 -1.2766000738253565e+00 0.0000000000000000e+00  7.6544113956989443e-02 -1.3617947176495471e+00 0.0000000000000000e+00  7.6262872529240425e-02 -1.2752413166673209e+00 0.0000000000000000e+00  7.5371112494365497e-02 -1.3604590530927450e+00 0.0000000000000000e+00  7.5116799724962532e-02 -1.2741083057185476e+00 0.0000000000000000e+00  7.4190649920872362e-02 -1.3593260883395355e+00 0.0000000000000000e+00  7.3965564442733847e-02 -1.2732120484896772e+00 0.0000000000000000e+00  7.3002142132139972e-02 -1.3584087776373697e+00 0.0000000000000000e+00  7.2808445537044367e-02 -1.2725643155582047e+00 0.0000000000000000e+00  7.1804989186114970e-02 -1.3577209516906223e+00 0.0000000000000000e+00  7.1644703636394455e-02 -1.2721776111941383e+00 0.0000000000000000e+00  7.0598586734133176e-02 -1.3572772620193283e+00 0.0000000000000000e+00  7.0473596768977770e-02 -1.2720650656961305e+00 0.0000000000000000e+00  6.9382343663645221e-02 -1.3570930266687502e+00 0.0000000000000000e+00  6.9294404019142899e-02 -1.2722402065917344e+00 0.0000000000000000e+00  6.8155709758646904e-02 -1.3571839279090556e+00 0.0000000000000000e+00  6.8106461832537463e-02 -1.2727165509077742e+00 0.0000000000000000e+00  6.6918219167578202e-02 -1.3575654871195806e+00 0.0000000000000000e+00  6.6909220001251490e-02 -1.2735069286233036e+00 0.0000000000000000e+00  6.5669557851612964e-02 -1.3582522063905405e+00 0.0000000000000000e+00  6.5702327519206877e-02 -1.2746224007409337e+00 0.0000000000000000e+00  6.4409666771789845e-02 -1.3592562099604952e+00 0.0000000000000000e+00  6.4485762290727208e-02 -1.2760705748653789e+00 0.0000000000000000e+00  6.3138897154668125e-02 -1.3605851426955651e+00 0.0000000000000000e+00  6.3260023457765518e-02 -1.2778530417356753e+00 0.0000000000000000e+00  6.1858239002783227e-02 -1.3622389953306069e+00 0.0000000000000000e+00  6.2026409822945980e-02 -1.2799615696695812e+00 0.0000000000000000e+00  6.0569647250919290e-02 -1.3642054496668543e+00 0.0000000000000000e+00  6.0787408384549019e-02 -1.2823726518820122e+00 0.0000000000000000e+00  5.9276486055132138e-02 -1.3664533455115413e+00 0.0000000000000000e+00  5.9547205102929636e-02 -1.2850401157669413e+00 0.0000000000000000e+00  5.7984089144517387e-02 -1.3689241284643408e+00 0.0000000000000000e+00  5.8312291178278762e-02 -1.2878859817817263e+00 0.0000000000000000e+00  5.6700375529303133e-02 -1.3715219118375015e+00 0.0000000000000000e+00  5.7092054618950894e-02 -1.2907908823633354e+00 0.0000000000000000e+00  5.5436352798963646e-02 -1.3741043173473935e+00 0.0000000000000000e+00  5.5899119962040451e-02 -1.2935871844395430e+00 0.0000000000000000e+00  5.4206210495399629e-02 -1.3764782995148002e+00 0.0000000000000000e+00  5.4749091406791857e-02 -1.2960597444403419e+00 0.0000000000000000e+00  5.3026657051151775e-02 -1.3784063275363876e+00 0.0000000000000000e+00  5.3659405271509232e-02 -1.2979590411788331e+00 0.0000000000000000e+00  5.1915325641807016e-02 -1.3796264567041545e+00 0.0000000000000000e+00  5.2647294942777603e-02 -1.2990277581298355e+00 0.0000000000000000e+00  5.0888448358313056e-02 -1.3798847456230197e+00 0.0000000000000000e+00  5.1727266305103110e-02 -1.2990363089101511e+00 0.0000000000000000e+00  4.9958348283075167e-02 -1.3789729756914542e+00 0.0000000000000000e+00  5.0908759151197504e-02 -1.2978181830161775e+00 0.0000000000000000e+00  4.9131495683159894e-02 -1.3767607346277577e+00 0.0000000000000000e+00  5.0194767700212840e-02 -1.2952935986151375e+00 0.0000000000000000e+00  4.8407831597359945e-02 -1.3732104409853159e+00 0.0000000000000000e+00  4.9581946012090872e-02 -1.2914726437610511e+00 0.0000000000000000e+00  4.7781595617176965e-02 -1.3683701072657355e+00 0.0000000000000000e+00  4.9062080038428012e-02 -1.2864381001021186e+00 0.0000000000000000e+00  4.7243205934696220e-02 -1.3623490615673677e+00 0.0000000000000000e+00  4.8624212506887129e-02 -1.2803172658565394e+00 0.0000000000000000e+00  4.6781366386965187e-02 -1.3552883211644009e+00 0.0000000000000000e+00  4.8256610710627416e-02 -1.2732543707589110e+00 0.0000000000000000e+00  4.6384738406650007e-02 -1.3473358008855483e+00 0.0000000000000000e+00  4.7948119997045825e-02 -1.2653906936531134e+00 0.0000000000000000e+00  4.6042944810640841e-02 -1.3386305433896457e+00 0.0000000000000000e+00  4.7688861640516417e-02 -1.2568536027910140e+00 0.0000000000000000e+00  4.5747000298327761e-02 -1.3292951837670628e+00 0.0000000000000000e+00  4.7470452399568173e-02 -1.2477523981859246e+00 0.0000000000000000e+00  4.5489374713394509e-02 -1.3194339415634884e+00 0.0000000000000000e+00  4.7285951674497659e-02 -1.2381781967096519e+00 0.0000000000000000e+00  4.5263870059432186e-02 -1.3091335867825205e+00 0.0000000000000000e+00  4.7129687469452092e-02 -1.2282057402345383e+00 0.0000000000000000e+00  4.5065428294656242e-02 -1.2984656555137122e+00 0.0000000000000000e+00  4.6997049286151484e-02 -1.2178958473444803e+00 0.0000000000000000e+00  4.4889931971978582e-02 -1.2874889572701971e+00 0.0000000000000000e+00  4.6884291181941568e-02 -1.2072978561384995e+00 0.0000000000000000e+00  4.4734024429915399e-02 -1.2762519284948195e+00 0.0000000000000000e+00  4.6788362120078107e-02 -1.1964517831445987e+00 0.0000000000000000e+00  4.4594958359273296e-02 -1.2647946556182412e+00 0.0000000000000000e+00  4.6706765941628745e-02 -1.1853901428373399e+00 0.0000000000000000e+00  4.4470473177762607e-02 -1.2531505258775326e+00 0.0000000000000000e+00  4.6637450268790306e-02 -1.1741394198320194e+00 0.0000000000000000e+00  4.4358694147305172e-02 -1.2413475884283529e+00 0.0000000000000000e+00  4.6578721627613291e-02 -1.1627212154933833e+00 0.0000000000000000e+00  4.4258053433749507e-02 -1.2294096119708797e+00 0.0000000000000000e+00  4.6529173357675722e-02 -1.1511532447476458e+00 0.0000000000000000e+00  4.4167232164510135e-02 -1.2173568507988488e+00 0.0000000000000000e+00  4.6487634769871007e-02 -1.1394500443623718e+00 0.0000000000000000e+00  4.4085096562104589e-02 -1.2052069226356936e+00 0.0000000000000000e+00  4.6453149543661816e-02 -1.1276232645542161e+00 0.0000000000000000e+00  4.4010651165063655e-02 -1.1929754544570603e+00 0.0000000000000000e+00  4.6424922244967234e-02 -1.1156824182337446e+00 0.0000000000000000e+00  4.3943049270153023e-02 -1.1806758976120342e+00 0.0000000000000000e+00  4.6402265524236250e-02 -1.1036356093036410e+00 0.0000000000000000e+00  4.3881534892790279e-02 -1.1683203968556832e+00 0.0000000000000000e+00  4.6384682537050533e-02 -1.0914882893099633e+00 0.0000000000000000e+00  4.3825306928384912e-02 -1.1559218470884376e+00 0.0000000000000000e+00  4.6371877095102272e-02 -1.0792430495733871e+00 0.0000000000000000e+00  4.3773644332656576e-02 -1.1434920518133838e+00 0.0000000000000000e+00  4.6363464106839225e-02 -1.0669037501279870e+00 0.0000000000000000e+00  4.3726120363356540e-02 -1.1310385551305422e+00 0.0000000000000000e+00  4.6359021751653996e-02 -1.0544747124246856e+00 0.0000000000000000e+00  4.3682092365901405e-02 -1.1185723079688401e+00 0.0000000000000000e+00  4.6358907728529665e-02 -1.0419489035185874e+00 0.0000000000000000e+00  4.3639975711322596e-02 -1.1061184714130590e+00 0.0000000000000000e+00  4.6364319265311753e-02 -1.0293071808398007e+00 0.0000000000000000e+00  4.3598205215921962e-02 -1.0937018239531135e+00 0.0000000000000000e+00  4.6375388009172215e-02 -1.0165460489177962e+00 0.0000000000000000e+00  4.3557279762955883e-02 -1.0813159977360196e+00 0.0000000000000000e+00  4.6390116306780138e-02 -1.0036930921241476e+00 0.0000000000000000e+00  4.3518629133796075e-02 -1.0689405761423740e+00 0.0000000000000000e+00  4.6408252884427424e-02 -9.9075067594212363e-01 0.0000000000000000e+00  4.3478505139686298e-02 -1.0566328702319632e+00 0.0000000000000000e+00  4.6438218783783521e-02 -9.7759556236811318e-01 0.0000000000000000e+00  4.3422621455428266e-02 -1.0446082323745127e+00 0.0000000000000000e+00  4.6498873274276882e-02 -9.6395372581694372e-01 0.0000000000000000e+00  4.3329545229595909e-02 -1.0331890632249081e+00 0.0000000000000000e+00  4.6610910118896669e-02 -9.4952583362376619e-01 0.0000000000000000e+00  4.3183120489808810e-02 -1.0226188893936938e+00 0.0000000000000000e+00  4.6782900884631086e-02 -9.3418979163441018e-01 0.0000000000000000e+00  4.2984777062456341e-02 -1.0128781887884624e+00 0.0000000000000000e+00  4.7002897995456261e-02 -9.1812079889482323e-01 0.0000000000000000e+00  4.2755984898703907e-02 -1.0036467769122288e+00 0.0000000000000000e+00  4.7241920594922833e-02 -9.0173769913056767e-01 0.0000000000000000e+00  4.2529414228761421e-02 -9.9443498551695808e-01 0.0000000000000000e+00  4.7466113732116046e-02 -8.8552504200330406e-01 0.0000000000000000e+00  4.2335671688792334e-02 -9.8478279788437462e-01 0.0000000000000000e+00  4.7649094171981411e-02 -8.6985571897206837e-01 0.0000000000000000e+00  4.2193814119312778e-02 -9.7440422324220965e-01 0.0000000000000000e+00  4.7778085115967775e-02 -8.5490533698891724e-01 0.0000000000000000e+00  4.2109179675878142e-02 -9.6322175359616213e-01 0.0000000000000000e+00  4.7853002580249666e-02 -8.4066767506755735e-01 0.0000000000000000e+00  4.2076856028485911e-02 -9.5131462341459960e-01 0.0000000000000000e+00  4.7881617778067535e-02 -8.2702482726301740e-01 0.0000000000000000e+00  4.2087004128408823e-02 -9.3883810165896708e-01 0.0000000000000000e+00  4.7874416188143191e-02 -8.1382031842332181e-01 0.0000000000000000e+00  4.2129182858250798e-02 -9.2595779600922912e-01 0.0000000000000000e+00  4.7841153117612778e-02 -8.0090748378617871e-01 0.0000000000000000e+00  4.2194670249595244e-02 -9.1281446434461466e-01 0.0000000000000000e+00  4.7789388233477594e-02 -7.8816985350209423e-01 0.0000000000000000e+00  4.2277120044983657e-02 -8.9951395258420930e-01 0.0000000000000000e+00  4.7724341555298297e-02 -7.7552326184435105e-01 0.0000000000000000e+00  4.2372304129085721e-02 -8.8613069556068391e-01 0.0000000000000000e+00  4.7649367455212463e-02 -7.6290955437877106e-01 0.0000000000000000e+00  4.2477546796481282e-02 -8.7271580320775555e-01 0.0000000000000000e+00  4.7566510293485936e-02 -7.5028907566296177e-01 0.0000000000000000e+00  4.2591224331010771e-02 -8.5930448931505610e-01 0.0000000000000000e+00  4.7476962327537613e-02 -7.3763406221356009e-01 0.0000000000000000e+00  4.2712379924460600e-02 -8.4592225344668937e-01 0.0000000000000000e+00  4.7381358296127211e-02 -7