<?xml version="1.0"?>
<VTKFile type="UnstructuredGrid"  version="0.1"  >
<UnstructuredGrid>
<Piece  NumberOfPoints="801" NumberOfCells="800">
<Points>
<DataArray  type="Float64"  NumberOfComponents="3"  format="ascii">-5 0 0  -4.9875 0 0  -4.975 0 0  -4.9625 0 0  -4.95 0 0  -4.9375 0 0  -4.925 0 0  -4.9125 0 0  -4.9 0 0  -4.8875 0 0  -4.875 0 0  -4.8625 0 0  -4.85 0 0  -4.8375 0 0  -4.825 0 0  -4.8125 0 0  -4.8 0 0  -4.7875 0 0  -4.775 0 0  -4.7625 0 0  -4.75 0 0  -4.7375 0 0  -4.725 0 0  -4.7125 0 0  -4.7 0 0  -4.6875 0 0  -4.675 0 0  -4.6625 0 0  -4.65 0 0  -4.6375 0 0  -4.625 0 0  -4.6125 0 0  -4.6 0 0  -4.5875 0 0  -4.575 0 0  -4.5625 0 0  -4.55 0 0  -4.5375 0 0  -4.525 0 0  -4.5125 0 0  -4.5 0 0  -4.4875 0 0  -4.475 0 0  -4.4625 0 0  -4.45 0 0  -4.4375 0 0  -4.425 0 0  -4.4125 0 0  -4.4 0 0  -4.3875 0 0  -4.375 0 0  -4.3625 0 0  -4.35 0 0  -4.3375 0 0  -4.325 0 0  -4.3125 0 0  -4.3 0 0  -4.2875 0 0  -4.275 0 0  -4.2625 0 0  -4.25 0 0  -4.2375 0 0  -4.225 0 0  -4.2125 0 0  -4.2 0 0  -4.1875 0 0  -4.175 0 0  -4.1625 0 0  -4.15 0 0  -4.1375 0 0  -4.125 0 0  -4.1125 0 0  -4.1 0 0  -4.0875 0 0  -4.075 0 0  -4.0625 0 0  -4.05 0 0  -4.0375 0 0  -4.025 0 0  -4.0125 0 0  -4 0 0  -3.9875 0 0  -3.975 0 0  -3.9625 0 0  -3.95 0 0  -3.9375 0 0  -3.925 0 0  -3.9125 0 0  -3.9 0 0  -3.8875 0 0  -3.875 0 0  -3.8625 0 0  -3.85 0 0  -3.8375 0 0  -3.825 0 0  -3.8125 0 0  -3.8 0 0  -3.7875 0 0  -3.775 0 0  -3.7625 0 0  -3.75 0 0  -3.7375 0 0  -3.725 0 0  -3.7125 0 0  -3.7 0 0  -3.6875 0 0  -3.675 0 0  -3.6625 0 0  -3.65 0 0  -3.6375 0 0  -3.625 0 0  -3.6125 0 0  -3.6 0 0  -3.5875 0 0  -3.575 0 0  -3.5625 0 0  -3.55 0 0  -3.5375 0 0  -3.525 0 0  -3.5125 0 0  -3.5 0 0  -3.4875 0 0  -3.475 0 0  -3.4625 0 0  -3.45 0 0  -3.4375 0 0  -3.425 0 0  -3.4125 0 0  -3.4 0 0  -3.3875 0 0  -3.375 0 0  -3.3625 0 0  -3.35 0 0  -3.3375 0 0  -3.325 0 0  -3.3125 0 0  -3.3 0 0  -3.2875 0 0  -3.275 0 0  -3.2625 0 0  -3.25 0 0  -3.2375 0 0  -3.225 0 0  -3.2125 0 0  -3.2 0 0  -3.1875 0 0  -3.175 0 0  -3.1625 0 0  -3.15 0 0  -3.1375 0 0  -3.125 0 0  -3.1125 0 0  -3.1 0 0  -3.0875 0 0  -3.075 0 0  -3.0625 0 0  -3.05 0 0  -3.0375 0 0  -3.025 0 0  -3.0125 0 0  -3 0 0  -2.9875 0 0  -2.975 0 0  -2.9625 0 0  -2.95 0 0  -2.9375 0 0  -2.925 0 0  -2.9125 0 0  -2.9 0 0  -2.8875 0 0  -2.875 0 0  -2.8625 0 0  -2.85 0 0  -2.8375 0 0  -2.825 0 0  -2.8125 0 0  -2.8 0 0  -2.7875 0 0  -2.775 0 0  -2.7625 0 0  -2.75 0 0  -2.7375 0 0  -2.725 0 0  -2.7125 0 0  -2.7 0 0  -2.6875 0 0  -2.675 0 0  -2.6625 0 0  -2.65 0 0  -2.6375 0 0  -2.625 0 0  -2.6125 0 0  -2.6 0 0  -2.5875 0 0  -2.575 0 0  -2.5625 0 0  -2.55 0 0  -2.5375 0 0  -2.525 0 0  -2.5125 0 0  -2.5 0 0  -2.4875 0 0  -2.475 0 0  -2.4625 0 0  -2.45 0 0  -2.4375 0 0  -2.425 0 0  -2.4125 0 0  -2.4 0 0  -2.3875 0 0  -2.375 0 0  -2.3625 0 0  -2.35 0 0  -2.3375 0 0  -2.325 0 0  -2.3125 0 0  -2.3 0 0  -2.2875 0 0  -2.275 0 0  -2.2625 0 0  -2.25 0 0  -2.2375 0 0  -2.225 0 0  -2.2125 0 0  -2.2 0 0  -2.1875 0 0  -2.175 0 0  -2.1625 0 0  -2.15 0 0  -2.1375 0 0  -2.125 0 0  -2.1125 0 0  -2.1 0 0  -2.0875 0 0  -2.075 0 0  -2.0625 0 0  -2.05 0 0  -2.0375 0 0  -2.025 0 0  -2.0125 0 0  -2 0 0  -1.9875 0 0  -1.975 0 0  -1.9625 0 0  -1.95 0 0  -1.9375 0 0  -1.925 0 0  -1.9125 0 0  -1.9 0 0  -1.8875 0 0  -1.875 0 0  -1.8625 0 0  -1.85 0 0  -1.8375 0 0  -1.825 0 0  -1.8125 0 0  -1.8 0 0  -1.7875 0 0  -1.775 0 0  -1.7625 0 0  -1.75 0 0  -1.7375 0 0  -1.725 0 0  -1.7125 0 0  -1.7 0 0  -1.6875 0 0  -1.675 0 0  -1.6625 0 0  -1.65 0 0  -1.6375 0 0  -1.625 0 0  -1.6125 0 0  -1.6 0 0  -1.5875 0 0  -1.575 0 0  -1.5625 0 0  -1.55 0 0  -1.5375 0 0  -1.525 0 0  -1.5125 0 0  -1.5 0 0  -1.4875 0 0  -1.475 0 0  -1.4625 0 0  -1.45 0 0  -1.4375 0 0  -1.425 0 0  -1.4125 0 0  -1.4 0 0  -1.3875 0 0  -1.375 0 0  -1.3625 0 0  -1.35 0 0  -1.3375 0 0  -1.325 0 0  -1.3125 0 0  -1.3 0 0  -1.2875 0 0  -1.275 0 0  -1.2625 0 0  -1.25 0 0  -1.2375 0 0  -1.225 0 0  -1.2125 0 0  -1.2 0 0  -1.1875 0 0  -1.175 0 0  -1.1625 0 0  -1.15 0 0  -1.1375 0 0  -1.125 0 0  -1.1125 0 0  -1.1 0 0  -1.0875 0 0  -1.075 0 0  -1.0625 0 0  -1.05 0 0  -1.0375 0 0  -1.025 0 0  -1.0125 0 0  -1 0 0  -0.9874999999999998 0 0  -0.9749999999999996 0 0  -0.9625000000000004 0 0  -0.9500000000000002 0 0  -0.9375 0 0  -0.9249999999999998 0 0  -0.9124999999999996 0 0  -0.9000000000000004 0 0  -0.8875000000000002 0 0  -0.875 0 0  -0.8624999999999998 0 0  -0.8499999999999996 0 0  -0.8375000000000004 0 0  -0.8250000000000002 0 0  -0.8125 0 0  -0.7999999999999998 0 0  -0.7874999999999996 0 0  -0.7750000000000004 0 0  -0.7625000000000002 0 0  -0.75 0 0  -0.7374999999999998 0 0  -0.7249999999999996 0 0  -0.7125000000000004 0 0  -0.7000000000000002 0 0  -0.6875 0 0  -0.6749999999999998 0 0  -0.6624999999999996 0 0  -0.6500000000000004 0 0  -0.6375000000000002 0 0  -0.625 0 0  -0.6124999999999998 0 0  -0.5999999999999996 0 0  -0.5875000000000004 0 0  -0.5750000000000002 0 0  -0.5625 0 0  -0.5499999999999998 0 0  -0.5374999999999996 0 0  -0.5250000000000004 0 0  -0.5125000000000002 0 0  -0.5 0 0  -0.4874999999999998 0 0  -0.4749999999999996 0 0  -0.4625000000000004 0 0  -0.4500000000000002 0 0  -0.4375 0 0  -0.4249999999999998 0 0  -0.4124999999999996 0 0  -0.4000000000000004 0 0  -0.3875000000000002 0 0  -0.375 0 0  -0.3624999999999998 0 0  -0.3499999999999996 0 0  -0.3375000000000004 0 0  -0.3250000000000002 0 0  -0.3125 0 0  -0.2999999999999998 0 0  -0.2874999999999996 0 0  -0.2750000000000004 0 0  -0.2625000000000002 0 0  -0.25 0 0  -0.2374999999999998 0 0  -0.2249999999999996 0 0  -0.2125000000000004 0 0  -0.2000000000000002 0 0  -0.1875 0 0  -0.1749999999999998 0 0  -0.1624999999999996 0 0  -0.1500000000000004 0 0  -0.1375000000000002 0 0  -0.125 0 0  -0.1124999999999998 0 0  -0.09999999999999964 0 0  -0.08750000000000036 0 0  -0.07500000000000018 0 0  -0.0625 0 0  -0.04999999999999982 0 0  -0.03749999999999964 0 0  -0.02500000000000036 0 0  -0.01250000000000018 0 0  0 0 0  0.01250000000000018 0 0  0.02500000000000036 0 0  0.03749999999999964 0 0  0.04999999999999982 0 0  0.0625 0 0  0.07500000000000018 0 0  0.08750000000000036 0 0  0.09999999999999964 0 0  0.1124999999999998 0 0  0.125 0 0  0.1375000000000002 0 0  0.1500000000000004 0 0  0.1624999999999996 0 0  0.1749999999999998 0 0  0.1875 0 0  0.2000000000000002 0 0  0.2125000000000004 0 0  0.2249999999999996 0 0  0.2374999999999998 0 0  0.25 0 0  0.2625000000000002 0 0  0.2750000000000004 0 0  0.2874999999999996 0 0  0.2999999999999998 0 0  0.3125 0 0  0.3250000000000002 0 0  0.3375000000000004 0 0  0.3499999999999996 0 0  0.3624999999999998 0 0  0.375 0 0  0.3875000000000002 0 0  0.4000000000000004 0 0  0.4124999999999996 0 0  0.4249999999999998 0 0  0.4375 0 0  0.4500000000000002 0 0  0.4625000000000004 0 0  0.4749999999999996 0 0  0.4874999999999998 0 0  0.5 0 0  0.5125000000000002 0 0  0.5250000000000004 0 0  0.5374999999999996 0 0  0.5499999999999998 0 0  0.5625 0 0  0.5750000000000002 0 0  0.5875000000000004 0 0  0.5999999999999996 0 0  0.6124999999999998 0 0  0.625 0 0  0.6375000000000002 0 0  0.6500000000000004 0 0  0.6624999999999996 0 0  0.6749999999999998 0 0  0.6875 0 0  0.7000000000000002 0 0  0.7125000000000004 0 0  0.7249999999999996 0 0  0.7374999999999998 0 0  0.75 0 0  0.7625000000000002 0 0  0.7750000000000004 0 0  0.7874999999999996 0 0  0.7999999999999998 0 0  0.8125 0 0  0.8250000000000002 0 0  0.8375000000000004 0 0  0.8499999999999996 0 0  0.8624999999999998 0 0  0.875 0 0  0.8875000000000002 0 0  0.9000000000000004 0 0  0.9124999999999996 0 0  0.9249999999999998 0 0  0.9375 0 0  0.9500000000000002 0 0  0.9625000000000004 0 0  0.9749999999999996 0 0  0.9874999999999998 0 0  1 0 0  1.0125 0 0  1.025 0 0  1.0375 0 0  1.05 0 0  1.0625 0 0  1.075 0 0  1.0875 0 0  1.1 0 0  1.1125 0 0  1.125 0 0  1.1375 0 0  1.15 0 0  1.1625 0 0  1.175 0 0  1.1875 0 0  1.2 0 0  1.2125 0 0  1.225 0 0  1.2375 0 0  1.25 0 0  1.2625 0 0  1.275 0 0  1.2875 0 0  1.3 0 0  1.3125 0 0  1.325 0 0  1.3375 0 0  1.35 0 0  1.3625 0 0  1.375 0 0  1.3875 0 0  1.4 0 0  1.4125 0 0  1.425 0 0  1.4375 0 0  1.45 0 0  1.4625 0 0  1.475 0 0  1.4875 0 0  1.5 0 0  1.5125 0 0  1.525 0 0  1.5375 0 0  1.55 0 0  1.5625 0 0  1.575 0 0  1.5875 0 0  1.6 0 0  1.6125 0 0  1.625 0 0  1.6375 0 0  1.65 0 0  1.6625 0 0  1.675 0 0  1.6875 0 0  1.7 0 0  1.7125 0 0  1.725 0 0  1.7375 0 0  1.75 0 0  1.7625 0 0  1.775 0 0  1.7875 0 0  1.8 0 0  1.8125 0 0  1.825 0 0  1.8375 0 0  1.85 0 0  1.8625 0 0  1.875 0 0  1.8875 0 0  1.9 0 0  1.9125 0 0  1.925 0 0  1.9375 0 0  1.95 0 0  1.9625 0 0  1.975 0 0  1.9875 0 0  2 0 0  2.0125 0 0  2.025 0 0  2.0375 0 0  2.05 0 0  2.0625 0 0  2.075 0 0  2.0875 0 0  2.1 0 0  2.1125 0 0  2.125 0 0  2.1375 0 0  2.15 0 0  2.1625 0 0  2.175 0 0  2.1875 0 0  2.2 0 0  2.2125 0 0  2.225 0 0  2.2375 0 0  2.25 0 0  2.2625 0 0  2.275 0 0  2.2875 0 0  2.3 0 0  2.3125 0 0  2.325 0 0  2.3375 0 0  2.35 0 0  2.3625 0 0  2.375 0 0  2.3875 0 0  2.4 0 0  2.4125 0 0  2.425 0 0  2.4375 0 0  2.45 0 0  2.4625 0 0  2.475 0 0  2.4875 0 0  2.5 0 0  2.5125 0 0  2.525 0 0  2.5375 0 0  2.55 0 0  2.5625 0 0  2.575 0 0  2.5875 0 0  2.6 0 0  2.6125 0 0  2.625 0 0  2.6375 0 0  2.65 0 0  2.6625 0 0  2.675 0 0  2.6875 0 0  2.7 0 0  2.7125 0 0  2.725 0 0  2.7375 0 0  2.75 0 0  2.7625 0 0  2.775 0 0  2.7875 0 0  2.8 0 0  2.8125 0 0  2.825 0 0  2.8375 0 0  2.85 0 0  2.8625 0 0  2.875 0 0  2.8875 0 0  2.9 0 0  2.9125 0 0  2.925 0 0  2.9375 0 0  2.95 0 0  2.9625 0 0  2.975 0 0  2.9875 0 0  3 0 0  3.012499999999999 0 0  3.025 0 0  3.0375 0 0  3.050000000000001 0 0  3.0625 0 0  3.074999999999999 0 0  3.0875 0 0  3.1 0 0  3.112500000000001 0 0  3.125 0 0  3.137499999999999 0 0  3.15 0 0  3.1625 0 0  3.175000000000001 0 0  3.1875 0 0  3.199999999999999 0 0  3.2125 0 0  3.225 0 0  3.237500000000001 0 0  3.25 0 0  3.262499999999999 0 0  3.275 0 0  3.2875 0 0  3.300000000000001 0 0  3.3125 0 0  3.324999999999999 0 0  3.3375 0 0  3.35 0 0  3.362500000000001 0 0  3.375 0 0  3.387499999999999 0 0  3.4 0 0  3.4125 0 0  3.425000000000001 0 0  3.4375 0 0  3.449999999999999 0 0  3.4625 0 0  3.475 0 0  3.4875
[...]
<PointData  Vectors="(h, u)"> 
<DataArray  type="Float64"  Name="(h, u)"  NumberOfComponents="3" format="ascii">3.7385451544815185e-01 0.0000000000000000e+00 0.0000000000000000e+00  3.7398791103128903e-01 9.4623277071623942e-03 0.0000000000000000e+00  3.7384920571449454e-01 1.8943086967469842e-02 0.0000000000000000e+00  3.7397747424263805e-01 2.8387357092121531e-02 0.0000000000000000e+00  3.7383327471775890e-01 3.7886942528267763e-02 0.0000000000000000e+00  3.7395659680262050e-01 4.7313508112819744e-02 0.0000000000000000e+00  3.7380671703195117e-01 5.6832334601040674e-02 0.0000000000000000e+00  3.7392527086914479e-01 6.6241527662524030e-02 0.0000000000000000e+00  3.7376952337626979e-01 7.5780029983919028e-02 0.0000000000000000e+00  3.7388348430894902e-01 8.5172161744085456e-02 0.0000000000000000e+00  3.7372168029591929e-01 9.4730794158543269e-02 0.0000000000000000e+00  3.7383122043186645e-01 1.0410615533098795e-01 0.0000000000000000e+00  3.7366316994179621e-01 1.1368539112942709e-01 0.0000000000000000e+00  3.7376845773572903e-01 1.2304425293766223e-01 0.0000000000000000e+00  3.7359396976412312e-01 1.3264458468075771e-01 0.0000000000000000e+00  3.7369516965089328e-01 1.4198720045545724e-01 0.0000000000000000e+00  3.7351405247871194e-01 1.5160913979078852e-01 0.0000000000000000e+00  3.7361132473006903e-01 1.6093574647898473e-01 0.0000000000000000e+00  3.7342338628340177e-01 1.7057982459057841e-01 0.0000000000000000e+00  3.7351688668096367e-01 1.7989064617612874e-01 0.0000000000000000e+00  3.7332193484465481e-01 1.8955741502255680e-01 0.0000000000000000e+00  3.7341181467386086e-01 1.9885266497151824e-01 0.0000000000000000e+00  3.7320965806427514e-01 2.0854269632134284e-01 0.0000000000000000e+00  3.7329606405976878e-01 2.1782258043943384e-01 0.0000000000000000e+00  3.7308651214130079e-01 2.2753646781372827e-01 0.0000000000000000e+00  3.7316958591102323e-01 2.3680118928813765e-01 0.0000000000000000e+00  3.7295244960291840e-01 2.4653954629249847e-01 0.0000000000000000e+00  3.7303232802115721e-01 2.5578930471292993e-01 0.0000000000000000e+00  3.7280742019237723e-01 2.6555276240095127e-01 0.0000000000000000e+00  3.7288423404493604e-01 2.7478776035941227e-01 0.0000000000000000e+00  3.7265136869170995e-01 2.8457696968434376e-01 0.0000000000000000e+00  3.7272524260592638e-01 2.9379741146120891e-01 0.0000000000000000e+00  3.7248423664867125e-01 3.0361303099557613e-01 0.0000000000000000e+00  3.7255528867644361e-01 3.1281912218675018e-01 0.0000000000000000e+00  3.7230595962638868e-01 3.2266182645821279e-01 0.0000000000000000e+00  3.7237429844418868e-01 3.3185378581035974e-01 0.0000000000000000e+00  3.7211646655719477e-01 3.4172425097315701e-01 0.0000000000000000e+00  3.7218219485936727e-01 3.5090229144493318e-01 0.0000000000000000e+00  3.7191568271377867e-01 3.6080119537551292e-01 0.0000000000000000e+00  3.7197889028509978e-01 3.6996555993016439e-01 0.0000000000000000e+00  3.7170352050961025e-01 3.7989359341769718e-01 0.0000000000000000e+00  3.7176429142604511e-01 3.8904452034845516e-01 0.0000000000000000e+00  3.7147989496391548e-01 3.9900234603679807e-01 0.0000000000000000e+00  3.7153830006898736e-01 4.0814011131241390e-01 0.0000000000000000e+00  3.7124470235592943e-01 4.1812843752110473e-01 0.0000000000000000e+00  3.7130080242090829e-01 4.2725334234568285e-01 0.0000000000000000e+00  3.7099784654902729e-01 4.3727280799059309e-01 0.0000000000000000e+00  3.7105169606907507e-01 4.4638516192504796e-01 0.0000000000000000e+00  3.7073921334790200e-01 4.5643649134769820e-01 0.0000000000000000e+00  3.7079084200932161e-01 4.6553670887803283e-01 0.0000000000000000e+00  3.7046868910438951e-01 4.7562052155222106e-01 0.0000000000000000e+00  3.7051813912002873e-01 4.8470893226465206e-01 0.0000000000000000e+00  3.7018615819552658e-01 4.9482594330966584e-01 0.0000000000000000e+00  3.7023341763887030e-01 5.0390313815069032e-01 0.0000000000000000e+00  3.6989147420679447e-01 5.1405395630010742e-01 0.0000000000000000e+00  3.6993657990029921e-01 5.2312025771102177e-01 0.0000000000000000e+00  3.6958453438802402e-01 5.3330553304578387e-01 0.0000000000000000e+00  3.6962741654583409e-01 5.4236178148841019e-01 0.0000000000000000e+00  3.6926513717828524e-01 5.5258214990895649e-01 0.0000000000000000e+00  3.6930583607038270e-01 5.6162857834307267e-01 0.0000000000000000e+00  3.6893321574388227e-01 5.7188456542616461e-01 0.0000000000000000e+00  3.6897157917139906e-01 5.8092239380632704e-01 0.0000000000000000e+00  3.6858847409076329e-01 5.9121467014437590e-01 0.0000000000000000e+00  3.6862458573736362e-01 6.0024395190885882e-01 0.0000000000000000e+00  3.6823092100134636e-01 6.1057280863924934e-01 0.0000000000000000e+00  3.6826449447360143e-01 6.1959539605785585e-01 0.0000000000000000e+00  3.6786014800161759e-01 6.2996168977664602e-01 0.0000000000000000e+00  3.6789130427088318e-01 6.3897675678487798e-01 0.0000000000000000e+00  3.6747631646128648e-01 6.4938118397254629e-01 0.0000000000000000e+00  3.6750444570433100e-01 6.5839130070625906e-01 0.0000000000000000e+00  3.6707875828461345e-01 6.6883448785847410e-01 0.0000000000000000e+00  3.6710438154467223e-01 6.7783858539645059e-01 0.0000000000000000e+00  3.6666746133941119e-01 6.8831957030582036e-01 0.0000000000000000e+00  3.6669028093975270e-01 6.9732580333887317e-01 0.0000000000000000e+00  3.6624167648399825e-01 7.0783982826979841e-01 0.0000000000000000e+00  3.6626277941297974e-01 7.1684670802681150e-01 0.0000000000000000e+00  3.6580228884649291e-01 7.2740070891377917e-01 0.0000000000000000e+00  3.6581830219537814e-01 7.3640407332821922e-01 0.0000000000000000e+00  3.6535107393818023e-01 7.4701163188480713e-01 0.0000000000000000e+00  3.6535776141928716e-01 7.5598323082663976e-01 0.0000000000000000e+00  3.6488518287342614e-01 7.6667479451058229e-01 0.0000000000000000e+00  3.6488341415616760e-01 7.7562434594611773e-01 0.0000000000000000e+00  3.6439794637309625e-01 7.8632935083400646e-01 0.0000000000000000e+00  3.6440852178840966e-01 7.9538146328428094e-01 0.0000000000000000e+00  3.6387497988407308e-01 8.0595331023756345e-01 0.0000000000000000e+00  3.6393146777966645e-01 8.1524690320881354e-01 0.0000000000000000e+00  3.6334451736224388e-01 8.2563271771421187e-01 0.0000000000000000e+00  3.6339795258040569e-01 8.3498693352957920e-01 0.0000000000000000e+00  3.6287376380670044e-01 8.4577685189778806e-01 0.0000000000000000e+00  3.6274296676233203e-01 8.5416934870852368e-01 0.0000000000000000e+00  3.6249353676394092e-01 8.6655043628317074e-01 0.0000000000000000e+00  3.6202516653264638e-01 8.7323353482494959e-01 0.0000000000000000e+00  3.6198307065721208e-01 8.8670907750945116e-01 0.0000000000000000e+00  3.6165468231373088e-01 8.9423708865047902e-01 0.0000000000000000e+00  3.6081876145258790e-01 9.0373884002891591e-01 0.0000000000000000e+00  3.6204281811390404e-01 9.1925357735431890e-01 0.0000000000000000e+00  3.5903421868315383e-01 9.1758924025471700e-01 0.0000000000000000e+00  3.6234221180279813e-01 9.4419743313066906e-01 0.0000000000000000e+00  3.5851778524203076e-01 9.3810788477449703e-01 0.0000000000000000e+00  3.5968670029456185e-01 9.5380057314971911e-01 0.0000000000000000e+00  3.6241516600089624e-01 9.8221534534926291e-01 0.0000000000000000e+00  3.5199782573899441e-01 9.3670094617684563e-01 0.0000000000000000e+00  3.6949372639063438e-01 1.0426366963187783e+00 0.0000000000000000e+00  3.4588257471425826e-01 9.2837811833145667e-01 0.0000000000000000e+00  3.6581330189767719e-01 1.0493854881039593e+00 0.0000000000000000e+00  3.6046360274506362e-01 1.0285590660650894e+00 0.0000000000000000e+00  3.2824394903059223e-01 8.8631585266340718e-01 0.0000000000000000e+00  3.9457529583039858e-01 1.1979141269835438e+00 0.0000000000000000e+00  1.3214412551530474e-01 -3.1689954430830658e-01 0.0000000000000000e+00  7.7941894832260300e-02 -1.5521276877619472e+00 0.0000000000000000e+00  8.4008703780868499e-02 -1.1537802349858695e+00 0.0000000000000000e+00  8.3243215401720513e-02 -1.2793473756908911e+00 0.0000000000000000e+00  8.2580686193979486e-02 -1.2476322576251315e+00 0.0000000000000000e+00  8.1915962199477277e-02 -1.2461767981618084e+00 0.0000000000000000e+00  8.1592519196476074e-02 -1.2525019635466841e+00 0.0000000000000000e+00  8.1090443795554690e-02 -1.2433105092726384e+00 0.0000000000000000e+00  8.0354932448927788e-02 -1.2480039744980373e+00 0.0000000000000000e+00  8.0271526558737927e-02 -1.2423358313447863e+00 0.0000000000000000e+00  7.9211868714280681e-02 -1.2442259675982705e+00 0.0000000000000000e+00  7.9343477476261096e-02 -1.2404133774942439e+00 0.0000000000000000e+00  7.8152166252251701e-02 -1.2414372620328253e+00 0.0000000000000000e+00  7.8358098435109644e-02 -1.2380446303989863e+00 0.0000000000000000e+00  7.7123723310680473e-02 -1.2390852856625327e+00 0.0000000000000000e+00  7.7353272915015023e-02 -1.2356535960070703e+00 0.0000000000000000e+00  7.6102395801180889e-02 -1.2369139001486127e+00 0.0000000000000000e+00  7.6342042241311955e-02 -1.2333883845222577e+00 0.0000000000000000e+00  7.5081218743407799e-02 -1.2348609762677720e+00 0.0000000000000000e+00  7.5327163949306220e-02 -1.2312813244492815e+00 0.0000000000000000e+00  7.4058647380468356e-02 -1.2329266830260799e+00 0.0000000000000000e+00  7.4308831742939341e-02 -1.2293361820918567e+00 0.0000000000000000e+00  7.3034137349102218e-02 -1.2311230326346445e+00 0.0000000000000000e+00  7.3286913694040071e-02 -1.2275540751310290e+00 0.0000000000000000e+00  7.2007158200440624e-02 -1.2294621687947904e+00 0.0000000000000000e+00  7.2261300801515410e-02 -1.2259379126468910e+00 0.0000000000000000e+00  7.0977126780574329e-02 -1.2279552628061734e+00 0.0000000000000000e+00  7.1231872552832864e-02 -1.2244923015367355e+00 0.0000000000000000e+00  6.9943462791582228e-02 -1.2266129473312544e+00 0.0000000000000000e+00  7.0198451778806154e-02 -1.2232231802575222e+00 0.0000000000000000e+00  6.8905620747805318e-02 -1.2254455790507250e+00 0.0000000000000000e+00  6.9160789778940801e-02 -1.2221376647263313e+00 0.0000000000000000e+00  6.7863099663148019e-02 -1.2244633210981475e+00 0.0000000000000000e+00  6.8118569724622755e-02 -1.2212439622293776e+00 0.0000000000000000e+00  6.6815443557952742e-02 -1.2236761758524239e+00 0.0000000000000000e+00  6.7071419941637442e-02 -1.2205512448957976e+00 0.0000000000000000e+00  6.5762239676264808e-02 -1.2230940117782645e+00 0.0000000000000000e+00  6.6018934372143331e-02 -1.2200694437286070e+00 0.0000000000000000e+00  6.4703118304738752e-02 -1.2227265689637881e+00 0.0000000000000000e+00  6.4960699800286903e-02 -1.2198089503900866e+00 0.0000000000000000e+00  6.3637757851769838e-02 -1.2225834003145297e+00 0.0000000000000000e+00  6.3896330447484453e-02 -1.2197802131472324e+00 0.0000000000000000e+00  6.2565899496105332e-02 -1.2226736892411876e+00 0.0000000000000000e+00  6.2825511722720162e-02 -1.2199931982277659e+00 0.0000000000000000e+00  6.1487376582737105e-02 -1.2230058695043819e+00 0.0000000000000000e+00  6.1748056671495653e-02 -1.2204566622805442e+00 0.0000000000000000e+00  6.0402165046541563e-02 -1.2235869533891970e+00 0.0000000000000000e+00  6.0663981017533460e-02 -1.2211771464661569e+00 0.0000000000000000e+00  5.9310462650151906e-02 -1.2244214472735930e+00 0.0000000000000000e+00  5.9573605486032667e-02 -1.2221575588139859e+00 0.0000000000000000e+00  5.8212806748149111e-02 -1.2255096980117208e+00 0.0000000000000000e+00  5.8477696960465356e-02 -1.2233951626181008e+00 0.0000000000000000e+00  5.7110242199941597e-02 -1.2268454742996404e+00 0.0000000000000000e+00  5.7377662034429497e-02 -1.2248787462947843e+00 0.0000000000000000e+00  5.6004551613675790e-02 -1.2284125618490269e+00 0.0000000000000000e+00  5.6275805650625482e-02 -1.2265847420506664e+00 0.0000000000000000e+00  5.4898556457924776e-02 -1.2301801801230190e+00 0.0000000000000000e+00  5.5175659987944520e-02 -1.2284721421599030e+00 0.0000000000000000e+00  5.3796484895149377e-02 -1.2320971844677850e+00 0.0000000000000000e+00  5.4082369043808358e-02 -1.2304763192580039e+00 0.0000000000000000e+00  5.2704374667540375e-02 -1.2340853973031316e+00 0.0000000000000000e+00  5.3003077325059725e-02 -1.2325023843263667e+00 0.0000000000000000e+00  5.1630432737350969e-02 -1.2360331041972339e+00 0.0000000000000000e+00  5.1947212830165589e-02 -1.2344196005965495e+00 0.0000000000000000e+00  5.0585202800942926e-02 -1.2377908606744816e+00 0.0000000000000000e+00  5.0926470758032742e-02 -1.2360597118241543e+00 0.0000000000000000e+00  4.9581302152549897e-02 -1.2391732526129253e+00 0.0000000000000000e+00  4.9954227288065957e-02 -1.2372234156653805e+00 0.0000000000000000e+00  4.8632459342601714e-02 -1.2399710224415843e+00 0.0000000000000000e+00  4.9044171570894857e-02 -1.2376987251997600e+00 0.0000000000000000e+00  4.7751766945308555e-02 -1.2399756549379763e+00 0.0000000000000000e+00  4.8208262889528258e-02 -1.2372905527614331e+00 0.0000000000000000e+00  4.6949495712364765e-02 -1.2390121946175376e+00 0.0000000000000000e+00  4.7454606440635747e-02 -1.2358534542006225e+00 0.0000000000000000e+00  4.6231263236314886e-02 -1.2369688567542489e+00 0.0000000000000000e+00  4.6786132048402977e-02 -1.2333143142505849e+00 0.0000000000000000e+00  4.5597372858931895e-02 -1.2338106052334321e+00 0.0000000000000000e+00  4.6200652613807520e-02 -1.2296753132190661e+00 0.0000000000000000e+00  4.5043533608888096e-02 -1.2295721399159765e+00 0.0000000000000000e+00  4.5692109388448456e-02 -1.2249986357395122e+00 0.0000000000000000e+00  4.4562431236983537e-02 -1.2243370024352214e+00 0.0000000000000000e+00  4.5252275612947881e-02 -1.2193829506970670e+00 0.0000000000000000e+00  4.4145387050006861e-02 -1.2182138605034305e+00 0.0000000000000000e+00  4.4872253494893863e-02 -1.2129416040297618e+00 0.0000000000000000e+00  4.3783617458308631e-02 -1.2113176110741162e+00 0.0000000000000000e+00  4.4543475346775913e-02 -1.2057873276360633e+00 0.0000000000000000e+00  4.3468980736817431e-02 -1.2037575569572763e+00 0.0000000000000000e+00  4.4258226748316261e-02 -1.1980237022758971e+00 0.0000000000000000e+00  4.3194311318409749e-02 -1.1956315829319286e+00 0.0000000000000000e+00  4.4009833076098688e-02 -1.1897415908155597e+00 0.0000000000000000e+00  4.2953493122336296e-02 -1.1870242922698802e+00 0.0000000000000000e+00  4.3792652256155362e-02 -1.1810185609830484e+00 0.0000000000000000e+00  4.2741395899917246e-02 -1.1780073319102582e+00 0.0000000000000000e+00  4.3601975502232819e-02 -1.1719198220808791e+00 0.0000000000000000e+00  4.2553754382575713e-02 -1.1686407203520346e+00 0.0000000000000000e+00  4.3433896361886833e-02 -1.1624997680531002e+00 0.0000000000000000e+00  4.2387034282449304e-02 -1.1589744974469827e+00 0.0000000000000000e+00  4.3285179165773291e-02 -1.1528036384400027e+00 0.0000000000000000e+00  4.2238306276880258e-02 -1.1490503517588833e+00 0.0000000000000000e+00  4.3153140549567419e-02 -1.1428690672097463e+00 0.0000000000000000e+00  4.2105136229351997e-02 -1.1389030766666235e+00 0.0000000000000000e+00  4.3035548435230338e-02 -1.1327274319463863e+00 0.0000000000000000e+00  4.1985493375439296e-02 -1.1285618093487557e+00 0.0000000000000000e+00  4.2930538407055824e-02 -1.1224049873618498e+00 0.0000000000000000e+00  4.1877675266148370e-02 -1.1180510558912333e+00 0.0000000000000000e+00  4.2836545574537296e-02 -1.1119237991093687e+00 0.0000000000000000e+00  4.1780247187492923e-02 -1.1073915260000597e+00 0.0000000000000000e+00  4.2752249477558187e-02 -1.1013025054056351e+00 0.0000000000000000e+00  4.1691993594270435e-02 -1.0966008066252917e+00 0.0000000000000000e+00  4.2676529639758105e-02 -1.0905569358178970e+00 0.0000000000000000e+00  4.1611879314294713e-02 -1.0856939027696484e+00 0.0000000000000000e+00  4.2608429650632072e-02 -1.0797006143372809e+00 0.0000000000000000e+00  4.1539018608483143e-02 -1.0746836704056733e+00 0.0000000000000000e+00  4.2547128035772638e-02 -1.0687451695120609e+00 0.0000000000000000e+00  4.1472650494880373e-02 -1.0635811627028902e+00 0.0000000000000000e+00  4.2491914459730905e-02 -1.0577006710965706e+00 0.0000000000000000e+00  4.1412119208917575e-02 -1.0523959045327769e+00 0.0000000000000000e+00  4.2442169924689743e-02 -1.0465759115952638e+00 0.0000000000000000e+00  4.1356858903160078e-02 -1.0411361073095116e+00 0.0000000000000000e+00  4.2397350252534292e-02 -1.0353786421047417e+00 0.0000000000000000e+00  4.1306381365299238e-02 -1.0298088416453006e+00 0.0000000000000000e+00  4.2356972344377027e-02 -1.0241157691013500e+00 0.0000000000000000e+00  4.1260266880096236e-02 -1.0184201649645210e+00 0.0000000000000000e+00  4.2320600738627395e-02 -1.0127935491521971e+00 0.0000000000000000e+00  4.1218159752427166e-02 -1.0069751801430942e+00 0.0000000000000000e+00  4.2287834239745012e-02 -1.0014177843671821e+00 0.0000000000000000e+00  4.1179763837914947e-02 -9.9547809615046190e-01 0.0000000000000000e+00  4.2258299209272362e-02 -9.8999391762093414e-01 0.0000000000000000e+00  4.1144834199701427e-02 -9.8393234978553379e-01 0.0000000000000000e+00  4.2231641348924022e-02 -9.7852715206846963e-01 0.0000000000000000e+00  4.1113187076585733e-02 -9.7234044732586544e-01 0.0000000000000000e+00  4.2207488344041588e-02 -9.6702301614839647e-01 0.0000000000000000e+00  4.1084737012216786e-02 -9.6070339075215416e-01 0.0000000000000000e+00  4.2185417799483323e-02 -9.5548784708392887e-01 0.0000000000000000e+00  4.1059477706723337e-02 -9.4902097158626497e-01 0.0000000000000000e+00  4.2165027076377447e-02 -9.4392771820076893e-01 0.0000000000000000e+00  4.1037372075005650e-02 -9.3729345977845957e-01 0.0000000000000000e+00  4.2145994781641313e-02 -9.3234749826085384e-01 0.0000000000000000e+00  4.1018435546652791e-02 -9.2552031668975543e-01 0.0000000000000000e+00  4.2127754552584488e-02 -9.2075583736558908e-01 0.0000000000000000e+00  4.1003285838463986e-02 -9.1369174123071817e-01 0.0000000000000000e+00  4.2108873003029797e-02 -9.0917465944295162e-01 0.0000000000000000e+00  4.0993508314943049e-02 -9.0178308367563320e-01 0.0000000000000000e+00  4.2087329502128318e-02 -8.9763484588040099e-01 0.0000000000000000e+00  4.0990397662991389e-02 -8.8977425364302110e-01 0.0000000000000000e+00  4.2062832889209860e-02 -8.8614079119280698e-01 0.0000000000000000e+00  4.0991868484475252e-02 -8.7769721235016229e-01 0.0000000000000000e+00  4.2040022288788934e-02 -8.7462151746951622e-01 0.0000000000000000e+00  4.0990051342226962e-02 -8.6567272586853106e-01 0.0000000000000000e+00  4.2029173024094521e-02 -8.6292007021437511e-01 0.0000000000000000e+00  4.0972885843031104e-02 -8.5388555529504651e-01 0.0000000000000000e+00  4.2042211071870429e-02 -8.5085481369041693e-01 0.0000000000000000e+00  4.0929977099874434e-02 -8.4249432897480592e-01 0.0000000000000000e+00  4.2086029084579972e-02 -8.3832196035279249e-01 0.0000000000000000e+00  4.0858820563439299e-02 -8.3153607530825180e-01 0.0000000000000000e+00  4.2157966541225930e-02 -8.2536449750107310e-01 0.0000000000000000e+00  4.0766809067297918e-02 -8.2089558680986596e-01 0.0000000000000000e+00  4.2246530995318908e-02 -8.1216030242263815e-01 0.0000000000000000e+00  4.0668065835838110e-02 -8.1035413968777836e-01 0.0000000000000000e+00  4.2336259816913635e-02 -7.9894689762399962e-01 0.0000000000000000e+00  4.0577577401562676e-02 -7.9967980851872866e-01 0.0000000000000000e+00  4.2413762831348054e-02 -7.8592884729219903e-01 0.0000000000000000e+00  4.0505646590449230e-02 -7.8871312985348085e-01 0.0000000000000000e+00  4.2472072805108146e-02 -7.7321178972429927e-01 0.0000000000000000e+00  4.0455410914444989e-02 -7.7740556726309518e-01 0.0000000000000000e+00  4.2511032121108253e-02 -7.6079725995834413e-01 0.0000000000000000e+00  4.0424494028984848e-02 -7.6579395872429290e-01 0.0000000000000000e+00  4.2534319946819707e-02 -7.4862853054988732e-01 0.0000000000000000e+00  4.0408447173026156e-02 -7.5394714765767468e-01 0.0000000000000000e+00  4.2546353582951772e-02 -7.3663800798940970e-01 0.0000000000000000e+00  4.0403008643778576e-02 -7.4193091648633036e-01 0.0000000000000000e+00  4.2550908706166263e-02 -7.2476821874331798e-01 0.0000000000000000e+00  4.0404768820612370e-02 -7.2979766193166606e-01 0.0000000000000000e+00  4.2550867891775257e-02 -7.1297555721756678e-0