<?xml version="1.0"?>
<VTKFile type="UnstructuredGrid"  version="0.1"  >
<UnstructuredGrid>
<Piece  NumberOfPoints="801" NumberOfCells="800">
<Points>
<DataArray  type="Float64"  NumberOfComponents="3"  format="ascii">-5 0 0  -4.9875 0 0  -4.975 0 0  -4.9625 0 0  -4.95 0 0  -4.9375 0 0  -4.925 0 0  -4.9125 0 0  -4.9 0 0  -4.8875 0 0  -4.875 0 0  -4.8625 0 0  -4.85 0 0  -4.8375 0 0  -4.825 0 0  -4.8125 0 0  -4.8 0 0  -4.7875 0 0  -4.775 0 0  -4.7625 0 0  -4.75 0 0  -4.7375 0 0  -4.725 0 0  -4.7125 0 0  -4.7 0 0  -4.6875 0 0  -4.675 0 0  -4.6625 0 0  -4.65 0 0  -4.6375 0 0  -4.625 0 0  -4.6125 0 0  -4.6 0 0  -4.5875 0 0  -4.575 0 0  -4.5625 0 0  -4.55 0 0  -4.5375 0 0  -4.525 0 0  -4.5125 0 0  -4.5 0 0  -4.4875 0 0  -4.475 0 0  -4.4625 0 0  -4.45 0 0  -4.4375 0 0  -4.425 0 0  -4.4125 0 0  -4.4 0 0  -4.3875 0 0  -4.375 0 0  -4.3625 0 0  -4.35 0 0  -4.3375 0 0  -4.325 0 0  -4.3125 0 0  -4.3 0 0  -4.2875 0 0  -4.275 0 0  -4.2625 0 0  -4.25 0 0  -4.2375 0 0  -4.225 0 0  -4.2125 0 0  -4.2 0 0  -4.1875 0 0  -4.175 0 0  -4.1625 0 0  -4.15 0 0  -4.1375 0 0  -4.125 0 0  -4.1125 0 0  -4.1 0 0  -4.0875 0 0  -4.075 0 0  -4.0625 0 0  -4.05 0 0  -4.0375 0 0  -4.025 0 0  -4.0125 0 0  -4 0 0  -3.9875 0 0  -3.975 0 0  -3.9625 0 0  -3.95 0 0  -3.9375 0 0  -3.925 0 0  -3.9125 0 0  -3.9 0 0  -3.8875 0 0  -3.875 0 0  -3.8625 0 0  -3.85 0 0  -3.8375 0 0  -3.825 0 0  -3.8125 0 0  -3.8 0 0  -3.7875 0 0  -3.775 0 0  -3.7625 0 0  -3.75 0 0  -3.7375 0 0  -3.725 0 0  -3.7125 0 0  -3.7 0 0  -3.6875 0 0  -3.675 0 0  -3.6625 0 0  -3.65 0 0  -3.6375 0 0  -3.625 0 0  -3.6125 0 0  -3.6 0 0  -3.5875 0 0  -3.575 0 0  -3.5625 0 0  -3.55 0 0  -3.5375 0 0  -3.525 0 0  -3.5125 0 0  -3.5 0 0  -3.4875 0 0  -3.475 0 0  -3.4625 0 0  -3.45 0 0  -3.4375 0 0  -3.425 0 0  -3.4125 0 0  -3.4 0 0  -3.3875 0 0  -3.375 0 0  -3.3625 0 0  -3.35 0 0  -3.3375 0 0  -3.325 0 0  -3.3125 0 0  -3.3 0 0  -3.2875 0 0  -3.275 0 0  -3.2625 0 0  -3.25 0 0  -3.2375 0 0  -3.225 0 0  -3.2125 0 0  -3.2 0 0  -3.1875 0 0  -3.175 0 0  -3.1625 0 0  -3.15 0 0  -3.1375 0 0  -3.125 0 0  -3.1125 0 0  -3.1 0 0  -3.0875 0 0  -3.075 0 0  -3.0625 0 0  -3.05 0 0  -3.0375 0 0  -3.025 0 0  -3.0125 0 0  -3 0 0  -2.9875 0 0  -2.975 0 0  -2.9625 0 0  -2.95 0 0  -2.9375 0 0  -2.925 0 0  -2.9125 0 0  -2.9 0 0  -2.8875 0 0  -2.875 0 0  -2.8625 0 0  -2.85 0 0  -2.8375 0 0  -2.825 0 0  -2.8125 0 0  -2.8 0 0  -2.7875 0 0  -2.775 0 0  -2.7625 0 0  -2.75 0 0  -2.7375 0 0  -2.725 0 0  -2.7125 0 0  -2.7 0 0  -2.6875 0 0  -2.675 0 0  -2.6625 0 0  -2.65 0 0  -2.6375 0 0  -2.625 0 0  -2.6125 0 0  -2.6 0 0  -2.5875 0 0  -2.575 0 0  -2.5625 0 0  -2.55 0 0  -2.5375 0 0  -2.525 0 0  -2.5125 0 0  -2.5 0 0  -2.4875 0 0  -2.475 0 0  -2.4625 0 0  -2.45 0 0  -2.4375 0 0  -2.425 0 0  -2.4125 0 0  -2.4 0 0  -2.3875 0 0  -2.375 0 0  -2.3625 0 0  -2.35 0 0  -2.3375 0 0  -2.325 0 0  -2.3125 0 0  -2.3 0 0  -2.2875 0 0  -2.275 0 0  -2.2625 0 0  -2.25 0 0  -2.2375 0 0  -2.225 0 0  -2.2125 0 0  -2.2 0 0  -2.1875 0 0  -2.175 0 0  -2.1625 0 0  -2.15 0 0  -2.1375 0 0  -2.125 0 0  -2.1125 0 0  -2.1 0 0  -2.0875 0 0  -2.075 0 0  -2.0625 0 0  -2.05 0 0  -2.0375 0 0  -2.025 0 0  -2.0125 0 0  -2 0 0  -1.9875 0 0  -1.975 0 0  -1.9625 0 0  -1.95 0 0  -1.9375 0 0  -1.925 0 0  -1.9125 0 0  -1.9 0 0  -1.8875 0 0  -1.875 0 0  -1.8625 0 0  -1.85 0 0  -1.8375 0 0  -1.825 0 0  -1.8125 0 0  -1.8 0 0  -1.7875 0 0  -1.775 0 0  -1.7625 0 0  -1.75 0 0  -1.7375 0 0  -1.725 0 0  -1.7125 0 0  -1.7 0 0  -1.6875 0 0  -1.675 0 0  -1.6625 0 0  -1.65 0 0  -1.6375 0 0  -1.625 0 0  -1.6125 0 0  -1.6 0 0  -1.5875 0 0  -1.575 0 0  -1.5625 0 0  -1.55 0 0  -1.5375 0 0  -1.525 0 0  -1.5125 0 0  -1.5 0 0  -1.4875 0 0  -1.475 0 0  -1.4625 0 0  -1.45 0 0  -1.4375 0 0  -1.425 0 0  -1.4125 0 0  -1.4 0 0  -1.3875 0 0  -1.375 0 0  -1.3625 0 0  -1.35 0 0  -1.3375 0 0  -1.325 0 0  -1.3125 0 0  -1.3 0 0  -1.2875 0 0  -1.275 0 0  -1.2625 0 0  -1.25 0 0  -1.2375 0 0  -1.225 0 0  -1.2125 0 0  -1.2 0 0  -1.1875 0 0  -1.175 0 0  -1.1625 0 0  -1.15 0 0  -1.1375 0 0  -1.125 0 0  -1.1125 0 0  -1.1 0 0  -1.0875 0 0  -1.075 0 0  -1.0625 0 0  -1.05 0 0  -1.0375 0 0  -1.025 0 0  -1.0125 0 0  -1 0 0  -0.9874999999999998 0 0  -0.9749999999999996 0 0  -0.9625000000000004 0 0  -0.9500000000000002 0 0  -0.9375 0 0  -0.9249999999999998 0 0  -0.9124999999999996 0 0  -0.9000000000000004 0 0  -0.8875000000000002 0 0  -0.875 0 0  -0.8624999999999998 0 0  -0.8499999999999996 0 0  -0.8375000000000004 0 0  -0.8250000000000002 0 0  -0.8125 0 0  -0.7999999999999998 0 0  -0.7874999999999996 0 0  -0.7750000000000004 0 0  -0.7625000000000002 0 0  -0.75 0 0  -0.7374999999999998 0 0  -0.7249999999999996 0 0  -0.7125000000000004 0 0  -0.7000000000000002 0 0  -0.6875 0 0  -0.6749999999999998 0 0  -0.6624999999999996 0 0  -0.6500000000000004 0 0  -0.6375000000000002 0 0  -0.625 0 0  -0.6124999999999998 0 0  -0.5999999999999996 0 0  -0.5875000000000004 0 0  -0.5750000000000002 0 0  -0.5625 0 0  -0.5499999999999998 0 0  -0.5374999999999996 0 0  -0.5250000000000004 0 0  -0.5125000000000002 0 0  -0.5 0 0  -0.4874999999999998 0 0  -0.4749999999999996 0 0  -0.4625000000000004 0 0  -0.4500000000000002 0 0  -0.4375 0 0  -0.4249999999999998 0 0  -0.4124999999999996 0 0  -0.4000000000000004 0 0  -0.3875000000000002 0 0  -0.375 0 0  -0.3624999999999998 0 0  -0.3499999999999996 0 0  -0.3375000000000004 0 0  -0.3250000000000002 0 0  -0.3125 0 0  -0.2999999999999998 0 0  -0.2874999999999996 0 0  -0.2750000000000004 0 0  -0.2625000000000002 0 0  -0.25 0 0  -0.2374999999999998 0 0  -0.2249999999999996 0 0  -0.2125000000000004 0 0  -0.2000000000000002 0 0  -0.1875 0 0  -0.1749999999999998 0 0  -0.1624999999999996 0 0  -0.1500000000000004 0 0  -0.1375000000000002 0 0  -0.125 0 0  -0.1124999999999998 0 0  -0.09999999999999964 0 0  -0.08750000000000036 0 0  -0.07500000000000018 0 0  -0.0625 0 0  -0.04999999999999982 0 0  -0.03749999999999964 0 0  -0.02500000000000036 0 0  -0.01250000000000018 0 0  0 0 0  0.01250000000000018 0 0  0.02500000000000036 0 0  0.03749999999999964 0 0  0.04999999999999982 0 0  0.0625 0 0  0.07500000000000018 0 0  0.08750000000000036 0 0  0.09999999999999964 0 0  0.1124999999999998 0 0  0.125 0 0  0.1375000000000002 0 0  0.1500000000000004 0 0  0.1624999999999996 0 0  0.1749999999999998 0 0  0.1875 0 0  0.2000000000000002 0 0  0.2125000000000004 0 0  0.2249999999999996 0 0  0.2374999999999998 0 0  0.25 0 0  0.2625000000000002 0 0  0.2750000000000004 0 0  0.2874999999999996 0 0  0.2999999999999998 0 0  0.3125 0 0  0.3250000000000002 0 0  0.3375000000000004 0 0  0.3499999999999996 0 0  0.3624999999999998 0 0  0.375 0 0  0.3875000000000002 0 0  0.4000000000000004 0 0  0.4124999999999996 0 0  0.4249999999999998 0 0  0.4375 0 0  0.4500000000000002 0 0  0.4625000000000004 0 0  0.4749999999999996 0 0  0.4874999999999998 0 0  0.5 0 0  0.5125000000000002 0 0  0.5250000000000004 0 0  0.5374999999999996 0 0  0.5499999999999998 0 0  0.5625 0 0  0.5750000000000002 0 0  0.5875000000000004 0 0  0.5999999999999996 0 0  0.6124999999999998 0 0  0.625 0 0  0.6375000000000002 0 0  0.6500000000000004 0 0  0.6624999999999996 0 0  0.6749999999999998 0 0  0.6875 0 0  0.7000000000000002 0 0  0.7125000000000004 0 0  0.7249999999999996 0 0  0.7374999999999998 0 0  0.75 0 0  0.7625000000000002 0 0  0.7750000000000004 0 0  0.7874999999999996 0 0  0.7999999999999998 0 0  0.8125 0 0  0.8250000000000002 0 0  0.8375000000000004 0 0  0.8499999999999996 0 0  0.8624999999999998 0 0  0.875 0 0  0.8875000000000002 0 0  0.9000000000000004 0 0  0.9124999999999996 0 0  0.9249999999999998 0 0  0.9375 0 0  0.9500000000000002 0 0  0.9625000000000004 0 0  0.9749999999999996 0 0  0.9874999999999998 0 0  1 0 0  1.0125 0 0  1.025 0 0  1.0375 0 0  1.05 0 0  1.0625 0 0  1.075 0 0  1.0875 0 0  1.1 0 0  1.1125 0 0  1.125 0 0  1.1375 0 0  1.15 0 0  1.1625 0 0  1.175 0 0  1.1875 0 0  1.2 0 0  1.2125 0 0  1.225 0 0  1.2375 0 0  1.25 0 0  1.2625 0 0  1.275 0 0  1.2875 0 0  1.3 0 0  1.3125 0 0  1.325 0 0  1.3375 0 0  1.35 0 0  1.3625 0 0  1.375 0 0  1.3875 0 0  1.4 0 0  1.4125 0 0  1.425 0 0  1.4375 0 0  1.45 0 0  1.4625 0 0  1.475 0 0  1.4875 0 0  1.5 0 0  1.5125 0 0  1.525 0 0  1.5375 0 0  1.55 0 0  1.5625 0 0  1.575 0 0  1.5875 0 0  1.6 0 0  1.6125 0 0  1.625 0 0  1.6375 0 0  1.65 0 0  1.6625 0 0  1.675 0 0  1.6875 0 0  1.7 0 0  1.7125 0 0  1.725 0 0  1.7375 0 0  1.75 0 0  1.7625 0 0  1.775 0 0  1.7875 0 0  1.8 0 0  1.8125 0 0  1.825 0 0  1.8375 0 0  1.85 0 0  1.8625 0 0  1.875 0 0  1.8875 0 0  1.9 0 0  1.9125 0 0  1.925 0 0  1.9375 0 0  1.95 0 0  1.9625 0 0  1.975 0 0  1.9875 0 0  2 0 0  2.0125 0 0  2.025 0 0  2.0375 0 0  2.05 0 0  2.0625 0 0  2.075 0 0  2.0875 0 0  2.1 0 0  2.1125 0 0  2.125 0 0  2.1375 0 0  2.15 0 0  2.1625 0 0  2.175 0 0  2.1875 0 0  2.2 0 0  2.2125 0 0  2.225 0 0  2.2375 0 0  2.25 0 0  2.2625 0 0  2.275 0 0  2.2875 0 0  2.3 0 0  2.3125 0 0  2.325 0 0  2.3375 0 0  2.35 0 0  2.3625 0 0  2.375 0 0  2.3875 0 0  2.4 0 0  2.4125 0 0  2.425 0 0  2.4375 0 0  2.45 0 0  2.4625 0 0  2.475 0 0  2.4875 0 0  2.5 0 0  2.5125 0 0  2.525 0 0  2.5375 0 0  2.55 0 0  2.5625 0 0  2.575 0 0  2.5875 0 0  2.6 0 0  2.6125 0 0  2.625 0 0  2.6375 0 0  2.65 0 0  2.6625 0 0  2.675 0 0  2.6875 0 0  2.7 0 0  2.7125 0 0  2.725 0 0  2.7375 0 0  2.75 0 0  2.7625 0 0  2.775 0 0  2.7875 0 0  2.8 0 0  2.8125 0 0  2.825 0 0  2.8375 0 0  2.85 0 0  2.8625 0 0  2.875 0 0  2.8875 0 0  2.9 0 0  2.9125 0 0  2.925 0 0  2.9375 0 0  2.95 0 0  2.9625 0 0  2.975 0 0  2.9875 0 0  3 0 0  3.012499999999999 0 0  3.025 0 0  3.0375 0 0  3.050000000000001 0 0  3.0625 0 0  3.074999999999999 0 0  3.0875 0 0  3.1 0 0  3.112500000000001 0 0  3.125 0 0  3.137499999999999 0 0  3.15 0 0  3.1625 0 0  3.175000000000001 0 0  3.1875 0 0  3.199999999999999 0 0  3.2125 0 0  3.225 0 0  3.237500000000001 0 0  3.25 0 0  3.262499999999999 0 0  3.275 0 0  3.2875 0 0  3.300000000000001 0 0  3.3125 0 0  3.324999999999999 0 0  3.3375 0 0  3.35 0 0  3.362500000000001 0 0  3.375 0 0  3.387499999999999 0 0  3.4 0 0  3.4125 0 0  3.425000000000001 0 0  3.4375 0 0  3.449999999999999 0 0  3.4625 0 0  3.475 0 0  3.4875
[...]
<PointData  Vectors="(h, u)"> 
<DataArray  type="Float64"  Name="(h, u)"  NumberOfComponents="3" format="ascii">1.2674027423674239e-01 0.0000000000000000e+00 0.0000000000000000e+00  1.2643817633086335e-01 4.1414230267580480e-03 0.0000000000000000e+00  1.2672801216154411e-01 9.4021628725199057e-03 0.0000000000000000e+00  1.2645650854771676e-01 1.2400948309799296e-02 0.0000000000000000e+00  1.2669098849987548e-01 1.8850893942243121e-02 0.0000000000000000e+00  1.2649365736577969e-01 2.0593083812885982e-02 0.0000000000000000e+00  1.2662864593787665e-01 2.8387929308943408e-02 0.0000000000000000e+00  1.2655028146005062e-01 2.8681406789385185e-02 0.0000000000000000e+00  1.2654053700189166e-01 3.8045423406928007e-02 0.0000000000000000e+00  1.2662666462781624e-01 3.6641938976563197e-02 0.0000000000000000e+00  1.2642692983973089e-01 4.7841487021503738e-02 0.0000000000000000e+00  1.2672205481254464e-01 4.4467310646601310e-02 0.0000000000000000e+00  1.2628944800518740e-01 5.7776411604238007e-02 0.0000000000000000e+00  1.2683404841095747e-01 5.2169763167091633e-02 0.0000000000000000e+00  1.2613158769118199e-01 6.7830157825534754e-02 0.0000000000000000e+00  1.2695817424558001e-01 5.9782377107493394e-02 0.0000000000000000e+00  1.2595897346434920e-01 7.7961759440809783e-02 0.0000000000000000e+00  1.2708779698264230e-01 6.7357987534321234e-02 0.0000000000000000e+00  1.2577926011532323e-01 8.8111192551761433e-02 0.0000000000000000e+00  1.2721440040243975e-01 7.4965508316651400e-02 0.0000000000000000e+00  1.2560165485404567e-01 9.8203963935340158e-02 0.0000000000000000e+00  1.2732823875582885e-01 8.2683793681048376e-02 0.0000000000000000e+00  1.2543610776344424e-01 1.0815821729625691e-01 0.0000000000000000e+00  1.2741927369464195e-01 9.0593625494437391e-02 0.0000000000000000e+00  1.2529228455348598e-01 1.1789363546040320e-01 0.0000000000000000e+00  1.2747825852834502e-01 9.8768813959723617e-02 0.0000000000000000e+00  1.2517848081539512e-01 1.2734095878342674e-01 0.0000000000000000e+00  1.2749780117374232e-01 1.0726763697534972e-01 0.0000000000000000e+00  1.2510065176885729e-01 1.3645067809249226e-01 0.0000000000000000e+00  1.2747323740547034e-01 1.1612586125676334e-01 0.0000000000000000e+00  1.2506171281379178e-01 1.4519948908803459e-01 0.0000000000000000e+00  1.2740317635974302e-01 1.2535238144089822e-01 0.0000000000000000e+00  1.2506121831887543e-01 1.5359343410953744e-01 0.0000000000000000e+00  1.2728963476633456e-01 1.3492812280159430e-01 0.0000000000000000e+00  1.2509545992199661e-01 1.6166723594729815e-01 0.0000000000000000e+00  1.2713774496968674e-01 1.4480835018966065e-01 0.0000000000000000e+00  1.2515795584005932e-01 1.6948000496146959e-01 0.0000000000000000e+00  1.2695509178090686e-01 1.5492799766930399e-01 0.0000000000000000e+00  1.2524024340482881e-01 1.7710811061510984e-01 0.0000000000000000e+00  1.2675079138432671e-01 1.6520917258933998e-01 0.0000000000000000e+00  1.2533284808216688e-01 1.8463642020781806e-01 0.0000000000000000e+00  1.2653446072018812e-01 1.7556968008154239e-01 0.0000000000000000e+00  1.2542628745413587e-01 1.9214925912170569e-01 0.0000000000000000e+00  1.2631523142148338e-01 1.8593132128064510e-01 0.0000000000000000e+00  1.2551197654267168e-01 1.9972235037863598e-01 0.0000000000000000e+00  1.2610093857341712e-01 1.9622686021544325e-01 0.0000000000000000e+00  1.2558292682218775e-01 2.0741670821445657e-01 0.0000000000000000e+00  1.2589756891692860e-01 2.0640488972541726e-01 0.0000000000000000e+00  1.2563417029602300e-01 2.1527506328659318e-01 0.0000000000000000e+00  1.2570899942591787e-01 2.1643225618504089e-01 0.0000000000000000e+00  1.2566288737694831e-01 2.2332094884710763e-01 0.0000000000000000e+00  1.2553701005289611e-01 2.2629410671336384e-01 0.0000000000000000e+00  1.2566826619751040e-01 2.3156014407975004e-01 0.0000000000000000e+00  1.2538152219753287e-01 2.3599192275071851e-01 0.0000000000000000e+00  1.2565116103420484e-01 2.3998383681763311e-01 0.0000000000000000e+00  1.2524099697734684e-01 2.4554008804423980e-01 0.0000000000000000e+00  1.2561363870120412e-01 2.4857270824741898e-01 0.0000000000000000e+00  1.2511292037520741e-01 2.5496163038706393e-01 0.0000000000000000e+00  1.2555849966545712e-01 2.5730118355488313e-01 0.0000000000000000e+00  1.2499430178686415e-01 2.6428380068292168e-01 0.0000000000000000e+00  1.2548883819957168e-01 2.6614130246048601e-01 0.0000000000000000e+00  1.2488211728537690e-01 2.7353411735303201e-01 0.0000000000000000e+00  1.2540767444979359e-01 2.7506594209512925e-01 0.0000000000000000e+00  1.2477364441753677e-01 2.8273736445577213e-01 0.0000000000000000e+00  1.2531766945864736e-01 2.8405131103156739e-01 0.0000000000000000e+00  1.2466666838447830e-01 2.9191373288087630e-01 0.0000000000000000e+00  1.2522093240576407e-01 2.9307863974615561e-01 0.0000000000000000e+00  1.2455957974941774e-01 3.0107793074507966e-01 0.0000000000000000e+00  1.2511893304759505e-01 3.0213495202088975e-01 0.0000000000000000e+00  1.2445140322848817e-01 3.1023891262228676e-01 0.0000000000000000e+00  1.2501252014205627e-01 3.1121290530440038e-01 0.0000000000000000e+00  1.2434178451535931e-01 3.1939998677445547e-01 0.0000000000000000e+00  1.2490202368694280e-01 3.2030989036885810e-01 0.0000000000000000e+00  1.2423093745257667e-01 3.2855927809986002e-01 0.0000000000000000e+00  1.2478740275043126e-01 3.2942672410889884e-01 0.0000000000000000e+00  1.2411953403110275e-01 3.3771070208511128e-01 0.0000000000000000e+00  1.2466839409345817e-01 3.3856632995718450e-01 0.0000000000000000e+00  1.2400851605013190e-01 3.4684563951924863e-01 0.0000000000000000e+00  1.2454463513709900e-01 3.4773263954877442e-01 0.0000000000000000e+00  1.2389885109806080e-01 3.5595511427860232e-01 0.0000000000000000e+00  1.2441579493425121e-01 3.5692941618471813e-01 0.0000000000000000e+00  1.2379132602688576e-01 3.6503164993081139e-01 0.0000000000000000e+00  1.2428177280806853e-01 3.6615846885415715e-01 0.0000000000000000e+00  1.2368645102380188e-01 3.7407015536337684e-01 0.0000000000000000e+00  1.2414292692690214e-01 3.7541759070945863e-01 0.0000000000000000e+00  1.2358442879550496e-01 3.8306823887144414e-01 0.0000000000000000e+00  1.2400019650650547e-01 3.8469943383249189e-01 0.0000000000000000e+00  1.2348511820514183e-01 3.9202657302174593e-01 0.0000000000000000e+00  1.2385505097922918e-01 3.9399191542057332e-01 0.0000000000000000e+00  1.2338801716900835e-01 4.0094908547307107e-01 0.0000000000000000e+00  1.2370930400164572e-01 4.0327982345016228e-01 0.0000000000000000e+00  1.2329230215880790e-01 4.0984264061307407e-01 0.0000000000000000e+00  1.2356484687767270e-01 4.1254714356075728e-01 0.0000000000000000e+00  1.2319696078536548e-01 4.1871588558095590e-01 0.0000000000000000e+00  1.2342345814875803e-01 4.2177871828540758e-01 0.0000000000000000e+00  1.2310113444747034e-01 4.2757621758961939e-01 0.0000000000000000e+00  1.2328683478831316e-01 4.3095994695979006e-01 0.0000000000000000e+00  1.2300453048908709e-01 4.3642612286618965e-01 0.0000000000000000e+00  1.2315654428524318e-01 4.4007720945525791e-01 0.0000000000000000e+00  1.2290738850415711e-01 4.4526348129966720e-01 0.0000000000000000e+00  1.2303359178768029e-01 4.4912174176746206e-01 0.0000000000000000e+00  1.2281007454710469e-01 4.5408518243694568e-01 0.0000000000000000e+00  1.2291817685052318e-01 4.5809183173818291e-01 0.0000000000000000e+00  1.2271307563940910e-01 4.6288716165451493e-01 0.0000000000000000e+00  1.2281010751877666e-01 4.6698914989797458e-01 0.0000000000000000e+00  1.2261727813752020e-01 4.7166189369508665e-01 0.0000000000000000e+00  1.2270917028650563e-01 4.7581547292318521e-01 0.0000000000000000e+00  1.2252385154898648e-01 4.8039940498034112e-01 0.0000000000000000e+00  1.2261516552646841e-01 4.8457239239426736e-01 0.0000000000000000e+00  1.2243402131756820e-01 4.8908927860184997e-01 0.0000000000000000e+00  1.2252788954420338e-01 4.9326149689671850e-01 0.0000000000000000e+00  1.2234865391872006e-01 4.9772434330932197e-01 0.0000000000000000e+00  1.2244666547017846e-01 5.0188858473018894e-01 0.0000000000000000e+00  1.2226775688983704e-01 5.0630512895028090e-01 0.0000000000000000e+00  1.2237058144380501e-01 5.1046154126123289e-01 0.0000000000000000e+00  1.2219156700213284e-01 5.1483011746481466e-01 0.0000000000000000e+00  1.2229993794089782e-01 5.1897739149206090e-01 0.0000000000000000e+00  1.2212117710979349e-01 5.2329013218751197e-01 0.0000000000000000e+00  1.2223516513336471e-01 5.2743200169015847e-01 0.0000000000000000e+00  1.2205632276236400e-01 5.3168815765820820e-01 0.0000000000000000e+00  1.2217512121053632e-01 5.3583531359810432e-01 0.0000000000000000e+00  1.2199589247920339e-01 5.4003476133615891e-01 0.0000000000000000e+00  1.2211948650669051e-01 5.4418989034330367e-01 0.0000000000000000e+00  1.2194028855111616e-01 5.4832694787712877e-01 0.0000000000000000e+00  1.2206894284133386e-01 5.5248932065505063e-01 0.0000000000000000e+00  1.2188956622289200e-01 5.5656483996943729e-01 0.0000000000000000e+00  1.2202320310652622e-01 5.6073588015874087e-01 0.0000000000000000e+00  1.2184316249223325e-01 5.6475409810248278e-01 0.0000000000000000e+00  1.2198187935291693e-01 5.6893275057056014e-01 0.0000000000000000e+00  1.2180026287358223e-01 5.7290262417371596e-01 0.0000000000000000e+00  1.2194403248125721e-01 5.7708806412481817e-01 0.0000000000000000e+00  1.2176043038935197e-01 5.8101490443459958e-01 0.0000000000000000e+00  1.2191067439589308e-01 5.8519247692297993e-01 0.0000000000000000e+00  1.2172531278225132e-01 5.8907670263161305e-01 0.0000000000000000e+00  1.2188186668229613e-01 5.9324522460164664e-01 0.0000000000000000e+00  1.2169247134712663e-01 5.9711039925602538e-01 0.0000000000000000e+00  1.2185440061882899e-01 6.0127490547438001e-01 0.0000000000000000e+00  1.2166180224195904e-01 6.0511733801148360e-01 0.0000000000000000e+00  1.2183124067624207e-01 6.0925477954945861e-01 0.0000000000000000e+00  1.2163626351084537e-01 6.1307135556331538e-01 0.0000000000000000e+00  1.2181086542631313e-01 6.1719845264153084e-01 0.0000000000000000e+00  1.2161189165327231e-01 6.2100833000276812e-01 0.0000000000000000e+00  1.2179109131822259e-01 6.2512548664343015e-01 0.0000000000000000e+00  1.2159078721397930e-01 6.2890962547995488e-01 0.0000000000000000e+00  1.2177449880176733e-01 6.3301275550787550e-01 0.0000000000000000e+00  1.2157246730377647e-01 6.3677976900562860e-01 0.0000000000000000e+00  1.2175936858058026e-01 6.4087577214673086e-01 0.0000000000000000e+00  1.2155665620072867e-01 6.4462136732065767e-01 0.0000000000000000e+00  1.2174644195031689e-01 6.4870798903892557e-01 0.0000000000000000e+00  1.2154118830279342e-01 6.5245396479765039e-01 0.0000000000000000e+00  1.2173372811692294e-01 6.5652738701420932e-01 0.0000000000000000e+00  1.2152892543281055e-01 6.6025192955147471e-01 0.0000000000000000e+00  1.2172661608453257e-01 6.6428573686170223e-01 0.0000000000000000e+00  1.2151800098940692e-01 6.6803213064765066e-01 0.0000000000000000e+00  1.2171584690489970e-01 6.7206631118187388e-01 0.0000000000000000e+00  1.2150582133635891e-01 6.7581785842080111e-01 0.0000000000000000e+00  1.2171140876755011e-01 6.7977954311258726e-01 0.0000000000000000e+00  1.2150004683665870e-01 6.8354041703868496e-01 0.0000000000000000e+00  1.2170482849316110e-01 6.8750173658155045e-01 0.0000000000000000e+00  1.2148913224541473e-01 6.9130346594436642e-01 0.0000000000000000e+00  1.2170067553608986e-01 6.9519198860490672e-01 0.0000000000000000e+00  1.2148504181560804e-01 6.9899952559452849e-01 0.0000000000000000e+00  1.2169710219791921e-01 7.0286721369355054e-01 0.0000000000000000e+00  1.2147748660356633e-01 7.0672086597172756e-01 0.0000000000000000e+00  1.2169587664428622e-01 7.1051186836220970e-01 0.0000000000000000e+00  1.2147365610737797e-01 7.1440264562640032e-01 0.0000000000000000e+00  1.2169168344054454e-01 7.1817425902672949e-01 0.0000000000000000e+00  1.2146799924857989e-01 7.2209418070922993e-01 0.0000000000000000e+00  1.2169618007920427e-01 7.2575049516109602e-01 0.0000000000000000e+00  1.2146564931902697e-01 7.2974861447849837e-01 0.0000000000000000e+00  1.2168988297138340e-01 7.3341677508933456e-01 0.0000000000000000e+00  1.2145979137953752e-01 7.3742573655893817e-01 0.0000000000000000e+00  1.2170030427463498e-01 7.4092775279839584e-01 0.0000000000000000e+00  1.2145838206722605e-01 7.4505225697055155e-01 0.0000000000000000e+00  1.2169346895377538e-01 7.4859116513411139e-01 0.0000000000000000e+00  1.2145291828856207e-01 7.5270143346930529e-01 0.0000000000000000e+00  1.2170680620714427e-01 7.5607452433306988e-01 0.0000000000000000e+00  1.2144677899139537e-01 7.6033878802301469e-01 0.0000000000000000e+00  1.2170438313642168e-01 7.6370585964839488e-01 0.0000000000000000e+00  1.2144627364408241e-01 7.6790133833369789e-01 0.0000000000000000e+00  1.2171670165197032e-01 7.7121877558682039e-01 0.0000000000000000e+00  1.2143059165786796e-01 7.7556732796215400e-01 0.0000000000000000e+00  1.2172866041216741e-01 7.7875931528935693e-01 0.0000000000000000e+00  1.2143237001265861e-01 7.8303138402501804e-01 0.0000000000000000e+00  1.2173089725955609e-01 7.8642621715805694e-01 0.0000000000000000e+00  1.2141029232318906e-01 7.9064759593210687e-01 0.0000000000000000e+00  1.2176602872866836e-01 7.9385637908112172e-01 0.0000000000000000e+00  1.2139484155662261e-01 7.9811956896609004e-01 0.0000000000000000e+00  1.2176384471877180e-01 8.0170692712210756e-01 0.0000000000000000e+00  1.2138403493872711e-01 8.0543439629923552e-01 0.0000000000000000e+00  1.2181063924966834e-01 8.0923785769324674e-01 0.0000000000000000e+00  1.2133174913121761e-01 8.1296696475738406e-01 0.0000000000000000e+00  1.2184575772617963e-01 8.1703859220540653e-01 0.0000000000000000e+00  1.2131808613678305e-01 8.1994699337048171e-01 0.0000000000000000e+00  1.2187406727432820e-01 8.2512251996584041e-01 0.0000000000000000e+00  1.2126197892116335e-01 8.2703928086305378e-01 0.0000000000000000e+00  1.2196452240700462e-01 8.3294006172797819e-01 0.0000000000000000e+00  1.2117157771994050e-01 8.3409386874428659e-01 0.0000000000000000e+00  1.2203369256208944e-01 8.4132366122973534e-01 0.0000000000000000e+00  1.2112960141088518e-01 8.4027653992368656e-01 0.0000000000000000e+00  1.2210104230362305e-01 8.5019593730701082e-01 0.0000000000000000e+00  1.2100024168991082e-01 8.4670339113289450e-01 0.0000000000000000e+00  1.2228936521479351e-01 8.5856238317985589e-01 0.0000000000000000e+00  1.2081598662323123e-01 8.5296847067691550e-01 0.0000000000000000e+00  1.2243484108875652e-01 8.6800829280002079e-01 0.0000000000000000e+00  1.2069922008089594e-01 8.5785205768119033e-01 0.0000000000000000e+00  1.2258484741559574e-01 8.7822576424201271e-01 0.0000000000000000e+00  1.2047359647201469e-01 8.6282235397114548e-01 0.0000000000000000e+00  1.2289994488145192e-01 8.8788176098433680e-01 0.0000000000000000e+00  1.2010532641741514e-01 8.6807891110685720e-01 0.0000000000000000e+00  1.2327004701137480e-01 8.9804898909536635e-01 0.0000000000000000e+00  1.1978780257050034e-01 8.7180352062940836e-01 0.0000000000000000e+00  1.2353539663387259e-01 9.1021161678199547e-01 0.0000000000000000e+00  1.1952388558925985e-01 8.7393477731892588e-01 0.0000000000000000e+00  1.2388608840484594e-01 9.2266900270016505e-01 0.0000000000000000e+00  1.1902905396345555e-01 8.7705892384527684e-01 0.0000000000000000e+00  1.2452393235567179e-01 9.3354575506026538e-01 0.0000000000000000e+00  1.1831254766799852e-01 8.8119040801816795e-01 0.0000000000000000e+00  1.2524211615612502e-01 9.4454002377971291e-01 0.0000000000000000e+00  1.1766900269603113e-01 8.8386056827360238e-01 0.0000000000000000e+00  1.2577470450573436e-01 9.5779009797942805e-01 0.0000000000000000e+00  1.1726339064691678e-01 8.8387050303483550e-01 0.0000000000000000e+00  1.2608017179386705e-01 9.7333609927829456e-01 0.0000000000000000e+00  1.1700901486042643e-01 8.8239344858633784e-01 0.0000000000000000e+00  1.2633779135387913e-01 9.8915928013987031e-01 0.0000000000000000e+00  1.1669270821718411e-01 8.8183578678778118e-01 0.0000000000000000e+00  1.2672134254637038e-01 1.0032174648090455e+00 0.0000000000000000e+00  1.1624073935943403e-01 8.8340850609701382e-01 0.0000000000000000e+00  1.2721011627619389e-01 1.0151589453480698e+00 0.0000000000000000e+00  1.1573901732791475e-01 8.8690709557933556e-01 0.0000000000000000e+00  1.2769747360064937e-01 1.0253978338812446e+00 0.0000000000000000e+00  1.1528691205555323e-01 8.9198866910321561e-01 0.0000000000000000e+00  1.2809298845372469e-01 1.0342522282419191e+00 0.0000000000000000e+00  1.1496625303488897e-01 8.9839671924571884e-01 0.0000000000000000e+00  1.2832202960623354e-01 1.0419971062379481e+00 0.0000000000000000e+00  1.1483397982706504e-01 9.0596990738987959e-01 0.0000000000000000e+00  1.2835052993188026e-01 1.0486907917336314e+00 0.0000000000000000e+00  1.1489785627326907e-01 9.1481199899108723e-01 0.0000000000000000e+00  1.2818979437359979e-01 1.0541690941849173e+00 0.0000000000000000e+00  1.1513809102658457e-01 9.2506070070579327e-01 0.0000000000000000e+00  1.2786146121133021e-01 1.0583778104938932e+00 0.0000000000000000e+00  1.1553620747767714e-01 9.3661400027201824e-01 0.0000000000000000e+00  1.2738362301316389e-01 1.0614973466904192e+00 0.0000000000000000e+00  1.1607123271484425e-01 9.4918091716853403e-01 0.0000000000000000e+00  1.2678347740637141e-01 1.0638085811317088e+00 0.0000000000000000e+00  1.1670802026034134e-01 9.6243053193190864e-01 0.0000000000000000e+00  1.2610290099139232e-01 1.0655983405146361e+00 0.0000000000000000e+00  1.1740022303374054e-01 9.7602998694053578e-01 0.0000000000000000e+00  1.2539062303900109e-01 1.0671648562745377e+00 0.0000000000000000e+00  1.1809865187076583e-01 9.8964729678618657e-01 0.0000000000000000e+00  1.2469740473180470e-01 1.0687850107515207e+00 0.0000000000000000e+00  1.1875947733049187e-01 1.0029586722822843e+00 0.0000000000000000e+00  1.2405593662290920e-01 1.0708171876325452e+00 0.0000000000000000e+00  1.1941140820753884e-01 1.0151153786136793e+00 0.0000000000000000e+00  1.2338125441080862e-01 1.0745263362259023e+00 0.0000000000000000e+00  1.2026166136637666e-01 1.0238432946580704e+00 0.0000000000000000e+00  1.2243847190820389e-01 1.0823316875981106e+00 0.0000000000000000e+00  1.2142725137812430e-01 1.0278917942002170e+00 0.0000000000000000e+00  1.2126301017122539e-01 1.0940306978549563e+00 0.0000000000000000e+00  1.2229833352817075e-01 1.0327466888994303e+00 0.0000000000000000e+00  1.2064802199391608e-01 1.1024229208798642e+00 0.0000000000000000e+00  1.2218473696001410e-01 1.0447920251993692e+00 0.0000000000000000e+00  1.2097711277212843e-01 1.1038181731730072e+00 0.0000000000000000e+00  1.2177445327490523e-01 1.0581710103550808e+00 0.0000000000000000e+00  1.2127733874714565e-01 1.1066428163122999e+00 0.0000000000000000e+00  1.2161833020646513e-01 1.0683025576891554e+00 0.0000000000000000e+00  1.2150644958558104e-01 1.1109172431140562e+00 0.0000000000000000e+00  1.2111871204847333e-01 1.0809089446088038e+00 0.0000000000000000e+00  1.2222589808323304e-01 1.1112509513655549e+00 0.0000000000000000e+00  1.2013483598060955e-01 1.0975629501518467e+00 0.0000000000000000e+00  1.2355351379980305e-01 1.1063197759914261e+00 0.0000000000000000e+00  1.1842838074792554e-01 1.1206596789421355e+00 0.0000000000000000e+00  1.2597955786162499e-01 1.0915892824275699e+00 0.0000000000000000e+00  1.1587926495546226e-01 1.1514903270923715e+00 0.0000000000000000e+00  1.2937310150379744e-01 1.0682246914875553e+00 0.0000000000000000e+00  1.1307585457687375e-01 1.1848776817387623e+00 0.0000000000000000e+00  1.3274715805644705e-01 1.0450339808668918e+00 0.0000000000000000e+00  1.1089994779051117e-01 1.2128176340128638e+00 0.0000000000000000e+00  1.3364481994018002e-01 1.0437016629287095e+00 0.0000000000000000e+00  1.1184730364090553e-01 1.2123422478438226e+00 0.0000000000000000e+00  1.2777851933228640e-01 1.1023459577074688e+00 0.0000000000000000e+00  1.1978515623498445e-01 1.1485280824414870e+00 0.0000000000000000e+00  1.1824370067184577e-01 1.1943962470664262e+00 0.0000000000000000e+00  1.2852874403844422e-01 1.0783752791046401e+00 0.0000000000000000e+00  1.138044