<?xml version="1.0"?>
<VTKFile type="UnstructuredGrid"  version="0.1"  >
<UnstructuredGrid>
<Piece  NumberOfPoints="801" NumberOfCells="800">
<Points>
<DataArray  type="Float64"  NumberOfComponents="3"  format="ascii">-5 0 0  -4.9875 0 0  -4.975 0 0  -4.9625 0 0  -4.95 0 0  -4.9375 0 0  -4.925 0 0  -4.9125 0 0  -4.9 0 0  -4.8875 0 0  -4.875 0 0  -4.8625 0 0  -4.85 0 0  -4.8375 0 0  -4.825 0 0  -4.8125 0 0  -4.8 0 0  -4.7875 0 0  -4.775 0 0  -4.7625 0 0  -4.75 0 0  -4.7375 0 0  -4.725 0 0  -4.7125 0 0  -4.7 0 0  -4.6875 0 0  -4.675 0 0  -4.6625 0 0  -4.65 0 0  -4.6375 0 0  -4.625 0 0  -4.6125 0 0  -4.6 0 0  -4.5875 0 0  -4.575 0 0  -4.5625 0 0  -4.55 0 0  -4.5375 0 0  -4.525 0 0  -4.5125 0 0  -4.5 0 0  -4.4875 0 0  -4.475 0 0  -4.4625 0 0  -4.45 0 0  -4.4375 0 0  -4.425 0 0  -4.4125 0 0  -4.4 0 0  -4.3875 0 0  -4.375 0 0  -4.3625 0 0  -4.35 0 0  -4.3375 0 0  -4.325 0 0  -4.3125 0 0  -4.3 0 0  -4.2875 0 0  -4.275 0 0  -4.2625 0 0  -4.25 0 0  -4.2375 0 0  -4.225 0 0  -4.2125 0 0  -4.2 0 0  -4.1875 0 0  -4.175 0 0  -4.1625 0 0  -4.15 0 0  -4.1375 0 0  -4.125 0 0  -4.1125 0 0  -4.1 0 0  -4.0875 0 0  -4.075 0 0  -4.0625 0 0  -4.05 0 0  -4.0375 0 0  -4.025 0 0  -4.0125 0 0  -4 0 0  -3.9875 0 0  -3.975 0 0  -3.9625 0 0  -3.95 0 0  -3.9375 0 0  -3.925 0 0  -3.9125 0 0  -3.9 0 0  -3.8875 0 0  -3.875 0 0  -3.8625 0 0  -3.85 0 0  -3.8375 0 0  -3.825 0 0  -3.8125 0 0  -3.8 0 0  -3.7875 0 0  -3.775 0 0  -3.7625 0 0  -3.75 0 0  -3.7375 0 0  -3.725 0 0  -3.7125 0 0  -3.7 0 0  -3.6875 0 0  -3.675 0 0  -3.6625 0 0  -3.65 0 0  -3.6375 0 0  -3.625 0 0  -3.6125 0 0  -3.6 0 0  -3.5875 0 0  -3.575 0 0  -3.5625 0 0  -3.55 0 0  -3.5375 0 0  -3.525 0 0  -3.5125 0 0  -3.5 0 0  -3.4875 0 0  -3.475 0 0  -3.4625 0 0  -3.45 0 0  -3.4375 0 0  -3.425 0 0  -3.4125 0 0  -3.4 0 0  -3.3875 0 0  -3.375 0 0  -3.3625 0 0  -3.35 0 0  -3.3375 0 0  -3.325 0 0  -3.3125 0 0  -3.3 0 0  -3.2875 0 0  -3.275 0 0  -3.2625 0 0  -3.25 0 0  -3.2375 0 0  -3.225 0 0  -3.2125 0 0  -3.2 0 0  -3.1875 0 0  -3.175 0 0  -3.1625 0 0  -3.15 0 0  -3.1375 0 0  -3.125 0 0  -3.1125 0 0  -3.1 0 0  -3.0875 0 0  -3.075 0 0  -3.0625 0 0  -3.05 0 0  -3.0375 0 0  -3.025 0 0  -3.0125 0 0  -3 0 0  -2.9875 0 0  -2.975 0 0  -2.9625 0 0  -2.95 0 0  -2.9375 0 0  -2.925 0 0  -2.9125 0 0  -2.9 0 0  -2.8875 0 0  -2.875 0 0  -2.8625 0 0  -2.85 0 0  -2.8375 0 0  -2.825 0 0  -2.8125 0 0  -2.8 0 0  -2.7875 0 0  -2.775 0 0  -2.7625 0 0  -2.75 0 0  -2.7375 0 0  -2.725 0 0  -2.7125 0 0  -2.7 0 0  -2.6875 0 0  -2.675 0 0  -2.6625 0 0  -2.65 0 0  -2.6375 0 0  -2.625 0 0  -2.6125 0 0  -2.6 0 0  -2.5875 0 0  -2.575 0 0  -2.5625 0 0  -2.55 0 0  -2.5375 0 0  -2.525 0 0  -2.5125 0 0  -2.5 0 0  -2.4875 0 0  -2.475 0 0  -2.4625 0 0  -2.45 0 0  -2.4375 0 0  -2.425 0 0  -2.4125 0 0  -2.4 0 0  -2.3875 0 0  -2.375 0 0  -2.3625 0 0  -2.35 0 0  -2.3375 0 0  -2.325 0 0  -2.3125 0 0  -2.3 0 0  -2.2875 0 0  -2.275 0 0  -2.2625 0 0  -2.25 0 0  -2.2375 0 0  -2.225 0 0  -2.2125 0 0  -2.2 0 0  -2.1875 0 0  -2.175 0 0  -2.1625 0 0  -2.15 0 0  -2.1375 0 0  -2.125 0 0  -2.1125 0 0  -2.1 0 0  -2.0875 0 0  -2.075 0 0  -2.0625 0 0  -2.05 0 0  -2.0375 0 0  -2.025 0 0  -2.0125 0 0  -2 0 0  -1.9875 0 0  -1.975 0 0  -1.9625 0 0  -1.95 0 0  -1.9375 0 0  -1.925 0 0  -1.9125 0 0  -1.9 0 0  -1.8875 0 0  -1.875 0 0  -1.8625 0 0  -1.85 0 0  -1.8375 0 0  -1.825 0 0  -1.8125 0 0  -1.8 0 0  -1.7875 0 0  -1.775 0 0  -1.7625 0 0  -1.75 0 0  -1.7375 0 0  -1.725 0 0  -1.7125 0 0  -1.7 0 0  -1.6875 0 0  -1.675 0 0  -1.6625 0 0  -1.65 0 0  -1.6375 0 0  -1.625 0 0  -1.6125 0 0  -1.6 0 0  -1.5875 0 0  -1.575 0 0  -1.5625 0 0  -1.55 0 0  -1.5375 0 0  -1.525 0 0  -1.5125 0 0  -1.5 0 0  -1.4875 0 0  -1.475 0 0  -1.4625 0 0  -1.45 0 0  -1.4375 0 0  -1.425 0 0  -1.4125 0 0  -1.4 0 0  -1.3875 0 0  -1.375 0 0  -1.3625 0 0  -1.35 0 0  -1.3375 0 0  -1.325 0 0  -1.3125 0 0  -1.3 0 0  -1.2875 0 0  -1.275 0 0  -1.2625 0 0  -1.25 0 0  -1.2375 0 0  -1.225 0 0  -1.2125 0 0  -1.2 0 0  -1.1875 0 0  -1.175 0 0  -1.1625 0 0  -1.15 0 0  -1.1375 0 0  -1.125 0 0  -1.1125 0 0  -1.1 0 0  -1.0875 0 0  -1.075 0 0  -1.0625 0 0  -1.05 0 0  -1.0375 0 0  -1.025 0 0  -1.0125 0 0  -1 0 0  -0.9874999999999998 0 0  -0.9749999999999996 0 0  -0.9625000000000004 0 0  -0.9500000000000002 0 0  -0.9375 0 0  -0.9249999999999998 0 0  -0.9124999999999996 0 0  -0.9000000000000004 0 0  -0.8875000000000002 0 0  -0.875 0 0  -0.8624999999999998 0 0  -0.8499999999999996 0 0  -0.8375000000000004 0 0  -0.8250000000000002 0 0  -0.8125 0 0  -0.7999999999999998 0 0  -0.7874999999999996 0 0  -0.7750000000000004 0 0  -0.7625000000000002 0 0  -0.75 0 0  -0.7374999999999998 0 0  -0.7249999999999996 0 0  -0.7125000000000004 0 0  -0.7000000000000002 0 0  -0.6875 0 0  -0.6749999999999998 0 0  -0.6624999999999996 0 0  -0.6500000000000004 0 0  -0.6375000000000002 0 0  -0.625 0 0  -0.6124999999999998 0 0  -0.5999999999999996 0 0  -0.5875000000000004 0 0  -0.5750000000000002 0 0  -0.5625 0 0  -0.5499999999999998 0 0  -0.5374999999999996 0 0  -0.5250000000000004 0 0  -0.5125000000000002 0 0  -0.5 0 0  -0.4874999999999998 0 0  -0.4749999999999996 0 0  -0.4625000000000004 0 0  -0.4500000000000002 0 0  -0.4375 0 0  -0.4249999999999998 0 0  -0.4124999999999996 0 0  -0.4000000000000004 0 0  -0.3875000000000002 0 0  -0.375 0 0  -0.3624999999999998 0 0  -0.3499999999999996 0 0  -0.3375000000000004 0 0  -0.3250000000000002 0 0  -0.3125 0 0  -0.2999999999999998 0 0  -0.2874999999999996 0 0  -0.2750000000000004 0 0  -0.2625000000000002 0 0  -0.25 0 0  -0.2374999999999998 0 0  -0.2249999999999996 0 0  -0.2125000000000004 0 0  -0.2000000000000002 0 0  -0.1875 0 0  -0.1749999999999998 0 0  -0.1624999999999996 0 0  -0.1500000000000004 0 0  -0.1375000000000002 0 0  -0.125 0 0  -0.1124999999999998 0 0  -0.09999999999999964 0 0  -0.08750000000000036 0 0  -0.07500000000000018 0 0  -0.0625 0 0  -0.04999999999999982 0 0  -0.03749999999999964 0 0  -0.02500000000000036 0 0  -0.01250000000000018 0 0  0 0 0  0.01250000000000018 0 0  0.02500000000000036 0 0  0.03749999999999964 0 0  0.04999999999999982 0 0  0.0625 0 0  0.07500000000000018 0 0  0.08750000000000036 0 0  0.09999999999999964 0 0  0.1124999999999998 0 0  0.125 0 0  0.1375000000000002 0 0  0.1500000000000004 0 0  0.1624999999999996 0 0  0.1749999999999998 0 0  0.1875 0 0  0.2000000000000002 0 0  0.2125000000000004 0 0  0.2249999999999996 0 0  0.2374999999999998 0 0  0.25 0 0  0.2625000000000002 0 0  0.2750000000000004 0 0  0.2874999999999996 0 0  0.2999999999999998 0 0  0.3125 0 0  0.3250000000000002 0 0  0.3375000000000004 0 0  0.3499999999999996 0 0  0.3624999999999998 0 0  0.375 0 0  0.3875000000000002 0 0  0.4000000000000004 0 0  0.4124999999999996 0 0  0.4249999999999998 0 0  0.4375 0 0  0.4500000000000002 0 0  0.4625000000000004 0 0  0.4749999999999996 0 0  0.4874999999999998 0 0  0.5 0 0  0.5125000000000002 0 0  0.5250000000000004 0 0  0.5374999999999996 0 0  0.5499999999999998 0 0  0.5625 0 0  0.5750000000000002 0 0  0.5875000000000004 0 0  0.5999999999999996 0 0  0.6124999999999998 0 0  0.625 0 0  0.6375000000000002 0 0  0.6500000000000004 0 0  0.6624999999999996 0 0  0.6749999999999998 0 0  0.6875 0 0  0.7000000000000002 0 0  0.7125000000000004 0 0  0.7249999999999996 0 0  0.7374999999999998 0 0  0.75 0 0  0.7625000000000002 0 0  0.7750000000000004 0 0  0.7874999999999996 0 0  0.7999999999999998 0 0  0.8125 0 0  0.8250000000000002 0 0  0.8375000000000004 0 0  0.8499999999999996 0 0  0.8624999999999998 0 0  0.875 0 0  0.8875000000000002 0 0  0.9000000000000004 0 0  0.9124999999999996 0 0  0.9249999999999998 0 0  0.9375 0 0  0.9500000000000002 0 0  0.9625000000000004 0 0  0.9749999999999996 0 0  0.9874999999999998 0 0  1 0 0  1.0125 0 0  1.025 0 0  1.0375 0 0  1.05 0 0  1.0625 0 0  1.075 0 0  1.0875 0 0  1.1 0 0  1.1125 0 0  1.125 0 0  1.1375 0 0  1.15 0 0  1.1625 0 0  1.175 0 0  1.1875 0 0  1.2 0 0  1.2125 0 0  1.225 0 0  1.2375 0 0  1.25 0 0  1.2625 0 0  1.275 0 0  1.2875 0 0  1.3 0 0  1.3125 0 0  1.325 0 0  1.3375 0 0  1.35 0 0  1.3625 0 0  1.375 0 0  1.3875 0 0  1.4 0 0  1.4125 0 0  1.425 0 0  1.4375 0 0  1.45 0 0  1.4625 0 0  1.475 0 0  1.4875 0 0  1.5 0 0  1.5125 0 0  1.525 0 0  1.5375 0 0  1.55 0 0  1.5625 0 0  1.575 0 0  1.5875 0 0  1.6 0 0  1.6125 0 0  1.625 0 0  1.6375 0 0  1.65 0 0  1.6625 0 0  1.675 0 0  1.6875 0 0  1.7 0 0  1.7125 0 0  1.725 0 0  1.7375 0 0  1.75 0 0  1.7625 0 0  1.775 0 0  1.7875 0 0  1.8 0 0  1.8125 0 0  1.825 0 0  1.8375 0 0  1.85 0 0  1.8625 0 0  1.875 0 0  1.8875 0 0  1.9 0 0  1.9125 0 0  1.925 0 0  1.9375 0 0  1.95 0 0  1.9625 0 0  1.975 0 0  1.9875 0 0  2 0 0  2.0125 0 0  2.025 0 0  2.0375 0 0  2.05 0 0  2.0625 0 0  2.075 0 0  2.0875 0 0  2.1 0 0  2.1125 0 0  2.125 0 0  2.1375 0 0  2.15 0 0  2.1625 0 0  2.175 0 0  2.1875 0 0  2.2 0 0  2.2125 0 0  2.225 0 0  2.2375 0 0  2.25 0 0  2.2625 0 0  2.275 0 0  2.2875 0 0  2.3 0 0  2.3125 0 0  2.325 0 0  2.3375 0 0  2.35 0 0  2.3625 0 0  2.375 0 0  2.3875 0 0  2.4 0 0  2.4125 0 0  2.425 0 0  2.4375 0 0  2.45 0 0  2.4625 0 0  2.475 0 0  2.4875 0 0  2.5 0 0  2.5125 0 0  2.525 0 0  2.5375 0 0  2.55 0 0  2.5625 0 0  2.575 0 0  2.5875 0 0  2.6 0 0  2.6125 0 0  2.625 0 0  2.6375 0 0  2.65 0 0  2.6625 0 0  2.675 0 0  2.6875 0 0  2.7 0 0  2.7125 0 0  2.725 0 0  2.7375 0 0  2.75 0 0  2.7625 0 0  2.775 0 0  2.7875 0 0  2.8 0 0  2.8125 0 0  2.825 0 0  2.8375 0 0  2.85 0 0  2.8625 0 0  2.875 0 0  2.8875 0 0  2.9 0 0  2.9125 0 0  2.925 0 0  2.9375 0 0  2.95 0 0  2.9625 0 0  2.975 0 0  2.9875 0 0  3 0 0  3.012499999999999 0 0  3.025 0 0  3.0375 0 0  3.050000000000001 0 0  3.0625 0 0  3.074999999999999 0 0  3.0875 0 0  3.1 0 0  3.112500000000001 0 0  3.125 0 0  3.137499999999999 0 0  3.15 0 0  3.1625 0 0  3.175000000000001 0 0  3.1875 0 0  3.199999999999999 0 0  3.2125 0 0  3.225 0 0  3.237500000000001 0 0  3.25 0 0  3.262499999999999 0 0  3.275 0 0  3.2875 0 0  3.300000000000001 0 0  3.3125 0 0  3.324999999999999 0 0  3.3375 0 0  3.35 0 0  3.362500000000001 0 0  3.375 0 0  3.387499999999999 0 0  3.4 0 0  3.4125 0 0  3.425000000000001 0 0  3.4375 0 0  3.449999999999999 0 0  3.4625 0 0  3.475 0 0  3.4875
[...]
<PointData  Vectors="(h, u)"> 
<DataArray  type="Float64"  Name="(h, u)"  NumberOfComponents="3" format="ascii">2.3469329246433043e-01 0.0000000000000000e+00 0.0000000000000000e+00  2.3268589589163796e-01 6.7321295880609427e-03 0.0000000000000000e+00  2.3468985244274215e-01 1.3642501240830631e-02 0.0000000000000000e+00  2.3268198509415480e-01 2.0196354472417223e-02 0.0000000000000000e+00  2.3467952648009516e-01 2.7285651990518762e-02 0.0000000000000000e+00  2.3267415424282389e-01 3.3660947729463812e-02 0.0000000000000000e+00  2.3466229604308708e-01 4.0930593468883614e-02 0.0000000000000000e+00  2.3266240169886535e-01 4.7126334452852435e-02 0.0000000000000000e+00  2.3463816593765563e-01 5.4577989458972367e-02 0.0000000000000000e+00  2.3264675210707039e-01 6.0592409034307002e-02 0.0000000000000000e+00  2.3460712876473777e-01 6.8228465145223474e-02 0.0000000000000000e+00  2.3262718171378829e-01 7.4059583297154216e-02 0.0000000000000000e+00  2.3456912830043905e-01 8.1883234443604735e-02 0.0000000000000000e+00  2.3260367638344026e-01 8.7528312255136631e-02 0.0000000000000000e+00  2.3452417698319414e-01 9.5542912708244887e-02 0.0000000000000000e+00  2.3257628605670336e-01 1.0099839650082468e-01 0.0000000000000000e+00  2.3447226928183149e-01 1.0920809531559994e-01 0.0000000000000000e+00  2.3254495668419217e-01 1.1447037385078715e-01 0.0000000000000000e+00  2.3441331285516165e-01 1.2288010722438952e-01 0.0000000000000000e+00  2.3250965809995611e-01 1.2794473858358330e-01 0.0000000000000000e+00  2.3434735363920986e-01 1.3655933722395375e-01 0.0000000000000000e+00  2.3247045990435672e-01 1.4142119696041858e-01 0.0000000000000000e+00  2.3427438989983393e-01 1.5024635916293380e-01 0.0000000000000000e+00  2.3242724025835154e-01 1.5490067203621363e-01 0.0000000000000000e+00  2.3419430573053485e-01 1.6394256863877321e-01 0.0000000000000000e+00  2.3237995678195059e-01 1.6838365931459798e-01 0.0000000000000000e+00  2.3410722832248623e-01 1.7764780972082433e-01 0.0000000000000000e+00  2.3232867449799044e-01 1.8186989390603100e-01 0.0000000000000000e+00  2.3401314159705111e-01 1.9136276852975487e-01 0.0000000000000000e+00  2.3227314806085464e-01 1.9536105931702777e-01 0.0000000000000000e+00  2.3391194314509139e-01 2.0508870713788929e-01 0.0000000000000000e+00  2.3221336000585352e-01 2.0885740962648436e-01 0.0000000000000000e+00  2.3380388855128234e-01 2.1882460956436517e-01 0.0000000000000000e+00  2.3214930751319246e-01 2.2235909451030558e-01 0.0000000000000000e+00  2.3368887635541649e-01 2.3257173176426243e-01 0.0000000000000000e+00  2.3208059277075826e-01 2.3586876291084730e-01 0.0000000000000000e+00  2.3356690438213235e-01 2.4633066128975328e-01 0.0000000000000000e+00  2.3200731411083120e-01 2.4938585445852177e-01 0.0000000000000000e+00  2.3343832483792482e-01 2.6009971907683282e-01 0.0000000000000000e+00  2.3192926395206054e-01 2.6291180859353541e-01 0.0000000000000000e+00  2.3330283860489257e-01 2.7388144402495901e-01 0.0000000000000000e+00  2.3184599770644018e-01 2.7644956106930318e-01 0.0000000000000000e+00  2.3316070760396385e-01 2.8767470086804670e-01 0.0000000000000000e+00  2.3175779337501948e-01 2.8999734005750921e-01 0.0000000000000000e+00  2.3301213965094447e-01 3.0147871638216311e-01 0.0000000000000000e+00  2.3166404041733923e-01 3.0355915708936160e-01 0.0000000000000000e+00  2.3285666324105156e-01 3.1529713284749161e-01 0.0000000000000000e+00  2.3156460713056420e-01 3.1713589639881445e-01 0.0000000000000000e+00  2.3269493873721020e-01 3.2912622087702043e-01 0.0000000000000000e+00  2.3145971287603390e-01 3.3072614431316510e-01 0.0000000000000000e+00  2.3252655495208990e-01 3.4296919976509327e-01 0.0000000000000000e+00  2.3134836582922502e-01 3.4433636013288349e-01 0.0000000000000000e+00  2.3235135928941725e-01 3.5682760880251330e-01 0.0000000000000000e+00  2.3123118125057476e-01 3.5796255188529930e-01 0.0000000000000000e+00  2.3217004719291587e-01 3.7069747359166194e-01 0.0000000000000000e+00  2.3110758131824224e-01 3.7160848517939288e-01 0.0000000000000000e+00  2.3198142514631606e-01 3.8458707583062629e-01 0.0000000000000000e+00  2.3097702231650061e-01 3.8527768667702500e-01 0.0000000000000000e+00  2.3178643265721427e-01 3.9849082616098314e-01 0.0000000000000000e+00  2.3084043132124404e-01 3.9896411588764558e-01 0.0000000000000000e+00  2.3158455198416139e-01 4.1241261244664973e-01 0.0000000000000000e+00  2.3069608726766111e-01 4.1267898483019078e-01 0.0000000000000000e+00  2.3137510489307711e-01 4.2635734502013839e-01 0.0000000000000000e+00  2.3054518277511757e-01 4.2641450394913410e-01 0.0000000000000000e+00  2.3115947532856221e-01 4.4031651224983026e-01 0.0000000000000000e+00  2.3038693897739432e-01 4.4017575519832985e-01 0.0000000000000000e+00  2.3093543205098371e-01 4.5430511642437132e-01 0.0000000000000000e+00  2.3022054329627031e-01 4.5396803367289357e-01 0.0000000000000000e+00  2.3070479325071905e-01 4.6831178865045769e-01 0.0000000000000000e+00  2.3004767513109964e-01 4.6778038297752400e-01 0.0000000000000000e+00  2.3046629978556915e-01 4.8234519708401691e-01 0.0000000000000000e+00  2.2986537090650250e-01 4.8163216298492229e-01 0.0000000000000000e+00  2.3021942944159157e-01 4.9640918745582480e-01 0.0000000000000000e+00  2.2967628830334455e-01 4.9550600390951299e-01 0.0000000000000000e+00  2.2996602585096759e-01 5.1049219661345180e-01 0.0000000000000000e+00  2.2947806159792647e-01 5.0941739411154874e-01 0.0000000000000000e+00  2.2970249393119732e-01 5.2461810494952743e-01 0.0000000000000000e+00  2.2927097739259589e-01 5.2336445723182812e-01 0.0000000000000000e+00  2.2943275841473851e-01 5.3876173388511905e-01 0.0000000000000000e+00  2.2905626573472063e-01 5.3733917364174311e-01 0.0000000000000000e+00  2.2915279936465380e-01 5.5294974849723555e-01 0.0000000000000000e+00  2.2882998444793032e-01 5.5136738202011892e-01 0.0000000000000000e+00  2.2886487225218655e-01 5.6716781132252514e-01 0.0000000000000000e+00  2.2859707406726087e-01 5.6541675228536303e-01 0.0000000000000000e+00  2.2856856295343936e-01 5.8141903726303168e-01 0.0000000000000000e+00  2.2835111424605767e-01 5.7952944117208183e-01 0.0000000000000000e+00  2.2826098167166889e-01 5.9572268580057530e-01 0.0000000000000000e+00  2.2809731831068805e-01 5.9367129420425535e-01 0.0000000000000000e+00  2.2794748879953242e-01 6.1004407611589229e-01 0.0000000000000000e+00  2.2783133289980603e-01 6.0787098190986955e-01 0.0000000000000000e+00  2.2761962787282156e-01 6.2443893187507382e-01 0.0000000000000000e+00  2.2755362390428241e-01 6.2212549461760713e-01 0.0000000000000000e+00  2.2728702193089126e-01 6.3884458567155844e-01 0.0000000000000000e+00  2.2726663966058253e-01 6.3641884454363462e-01 0.0000000000000000e+00  2.2693893296104811e-01 6.5333181077309022e-01 0.0000000000000000e+00  2.2696216405094366e-01 6.5080514143058465e-01 0.0000000000000000e+00  2.2658448904588269e-01 6.6784106828884671e-01 0.0000000000000000e+00  2.2665212134129836e-01 6.6520601050769890e-01 0.0000000000000000e+00  2.2621641137203502e-01 6.8242054447717082e-01 0.0000000000000000e+00  2.2631827287958170e-01 6.7974170884348317e-01 0.0000000000000000e+00  2.2583700926833369e-01 6.9705535864853341e-01 0.0000000000000000e+00  2.2598199856621243e-01 6.9427143171074257e-01 0.0000000000000000e+00  2.2544894030690554e-01 7.1172844847468442e-01 0.0000000000000000e+00  2.2561605780245467e-01 7.0897508632148087e-01 0.0000000000000000e+00  2.2504123941807896e-01 7.2651220694192598e-01 0.0000000000000000e+00  2.2524954188704308e-01 7.2366074800894853e-01 0.0000000000000000e+00  2.2463278863555011e-01 7.4128269650211465e-01 0.0000000000000000e+00  2.2484801284724978e-01 7.3855626474158720e-01 0.0000000000000000e+00  2.2419308245265057e-01 7.5624122269897454e-01 0.0000000000000000e+00  2.2444686228581498e-01 7.5342771576992151e-01 0.0000000000000000e+00  2.2376359725909339e-01 7.7111456676164059e-01 0.0000000000000000e+00  2.2400453305526016e-01 7.6855055988298138e-01 0.0000000000000000e+00  2.2328748395817447e-01 7.8627841819469735e-01 0.0000000000000000e+00  2.2356468092765924e-01 7.8363567018665625e-01 0.0000000000000000e+00  2.2283619248744674e-01 8.0126089165913872e-01 0.0000000000000000e+00  2.2307322047613465e-01 7.9904222701982197e-01 0.0000000000000000e+00  2.2231850268913514e-01 8.1666595639510287e-01 0.0000000000000000e+00  2.2259220696488699e-01 8.1435836197889866e-01 0.0000000000000000e+00  2.2184401975454038e-01 8.3176794757184824e-01 0.0000000000000000e+00  2.2203802490777144e-01 8.3014042231956942e-01 0.0000000000000000e+00  2.2128010131169049e-01 8.4744694653853336e-01 0.0000000000000000e+00  2.2151707391438497e-01 8.4568063943622906e-01 0.0000000000000000e+00  2.2077782067659060e-01 8.6270025661828642e-01 0.0000000000000000e+00  2.2087885019294601e-01 8.6198238629879498e-01 0.0000000000000000e+00  2.2016851357636424e-01 8.7864952090664417e-01 0.0000000000000000e+00  2.2032459174163291e-01 8.7770386228802821e-01 0.0000000000000000e+00  2.1962338841497453e-01 8.9415567155263853e-01 0.0000000000000000e+00  2.1957390771402571e-01 8.9471842465170248e-01 0.0000000000000000e+00  2.1898687377062848e-01 9.1025557974000049e-01 0.0000000000000000e+00  2.1899411338879304e-01 9.1057070042896238e-01 0.0000000000000000e+00  2.1836060789467626e-01 9.2627240520219856e-01 0.0000000000000000e+00  2.1811002072220054e-01 9.2844330499530137e-01 0.0000000000000000e+00  2.1774964428099125e-01 9.4217047730427828e-01 0.0000000000000000e+00  2.1748986796591305e-01 9.4452747128572778e-01 0.0000000000000000e+00  2.1697443975008576e-01 9.5915650637213545e-01 0.0000000000000000e+00  2.1650628538612307e-01 9.6303638064803776e-01 0.0000000000000000e+00  2.1647484113978246e-01 9.7427447609568485e-01 0.0000000000000000e+00  2.1575381954960307e-01 9.7997410493772819e-01 0.0000000000000000e+00  2.1550351544183702e-01 9.9255493119921745e-01 0.0000000000000000e+00  2.1483646091973621e-01 9.9800646706511187e-01 0.0000000000000000e+00  2.1514289695416108e-01 1.0067014720065111e+00 0.0000000000000000e+00  2.1375043543840994e-01 1.0171646118798319e+00 0.0000000000000000e+00  2.1413847917551412e-01 1.0251838952542702e+00 0.0000000000000000e+00  2.1316357912354733e-01 1.0329289620469748e+00 0.0000000000000000e+00  2.1365417995520322e-01 1.0401324391957067e+00 0.0000000000000000e+00  2.1167494641948140e-01 1.0547939076638984e+00 0.0000000000000000e+00  2.1319825262199901e-01 1.0548673552510364e+00 0.0000000000000000e+00  2.1126922238172197e-01 1.0692936791717145e+00 0.0000000000000000e+00  2.1209670125869873e-01 1.0739807540262603e+00 0.0000000000000000e+00  2.1017502769542568e-01 1.0884589120439470e+00 0.0000000000000000e+00  2.1243732458132272e-01 1.0832553615985949e+00 0.0000000000000000e+00  2.0883033680024921e-01 1.1093218579782864e+00 0.0000000000000000e+00  2.1155481630137615e-01 1.1008538238290566e+00 0.0000000000000000e+00  2.0905990389950901e-01 1.1194267630560775e+00 0.0000000000000000e+00  2.1078885726555868e-01 1.1176476845651504e+00 0.0000000000000000e+00  2.0761476492599285e-01 1.1409580595160300e+00 0.0000000000000000e+00  2.1183688883604845e-01 1.1220094293306211e+00 0.0000000000000000e+00  2.0617928934197285e-01 1.1624177378322613e+00 0.0000000000000000e+00  2.1109272326724210e-01 1.1386256532284991e+00 0.0000000000000000e+00  2.0714797567222540e-01 1.1673995447960555e+00 0.0000000000000000e+00  2.0946918251471844e-01 1.1612641878220371e+00 0.0000000000000000e+00  2.0694958038544414e-01 1.1803493471589941e+00 0.0000000000000000e+00  2.1046378116507422e-01 1.1659346153876580e+00 0.0000000000000000e+00  2.0435682535219232e-01 1.2097242982615164e+00 0.0000000000000000e+00  2.1228604661230868e-01 1.1648790543218166e+00 0.0000000000000000e+00  2.0303331807146868e-01 1.2303926243390451e+00 0.0000000000000000e+00  2.1140918328424216e-01 1.1823596804455461e+00 0.0000000000000000e+00  2.0513707411607754e-01 1.2274992083678682e+00 0.0000000000000000e+00  2.0768645136659850e-01 1.2194093885409920e+00 0.0000000000000000e+00  2.0907373742167576e-01 1.2119389677905261e+00 0.0000000000000000e+00  2.0325626857629767e-01 1.2613339408191371e+00 0.0000000000000000e+00  2.1255951341525189e-01 1.1994209909428573e+00 0.0000000000000000e+00  1.9981848219138224e-01 1.2964462515949451e+00 0.0000000000000000e+00  2.1470077256605244e-01 1.1961601429158524e+00 0.0000000000000000e+00  1.9776258486521395e-01 1.3220375973626064e+00 0.0000000000000000e+00  2.1566553972982436e-01 1.2009955963614742e+00 0.0000000000000000e+00  1.9677711414096252e-01 1.3402980055038496e+00 0.0000000000000000e+00  2.1585972941310397e-01 1.2110407434835746e+00 0.0000000000000000e+00  1.9648271803587533e-01 1.3538711936091152e+00 0.0000000000000000e+00  2.1559101595156985e-01 1.2242357387887441e+00 0.0000000000000000e+00  1.9661050473265265e-01 1.3644080657742395e+00 0.0000000000000000e+00  2.1505662253810609e-01 1.2394790563415783e+00 0.0000000000000000e+00  1.9699236538458909e-01 1.3729001471397493e+00 0.0000000000000000e+00  2.1435945315532173e-01 1.2559524948559713e+00 0.0000000000000000e+00  1.9755512238933062e-01 1.3803201966304346e+00 0.0000000000000000e+00  2.1352801187722281e-01 1.2727647984611026e+00 0.0000000000000000e+00  1.9825718907561293e-01 1.3875035780173455e+00 0.0000000000000000e+00  2.1262855829495847e-01 1.2895502027444206e+00 0.0000000000000000e+00  1.9896148471137468e-01 1.3943640551960630e+00 0.0000000000000000e+00  2.1183523502765134e-01 1.3069021082075896e+00 0.0000000000000000e+00  1.9949995884688571e-01 1.4003629780980011e+00 0.0000000000000000e+00  2.1120383570004594e-01 1.3247834013481501e+00 0.0000000000000000e+00  1.9999124151090636e-01 1.4067244984887113e+00 0.0000000000000000e+00  2.1043647641190810e-01 1.3408678376447127e+00 0.0000000000000000e+00  2.0077995935776080e-01 1.4160612819367244e+00 0.0000000000000000e+00  2.0936347514509562e-01 1.3538411968944348e+00 0.0000000000000000e+00  2.0162750927099382e-01 1.4268279287640211e+00 0.0000000000000000e+00  2.0870436812822851e-01 1.3686550819377326e+00 0.0000000000000000e+00  2.0154434803594826e-01 1.4322016493739780e+00 0.0000000000000000e+00  2.0919696069396590e-01 1.3904709452964918e+00 0.0000000000000000e+00  2.0068365135410143e-01 1.4331248268854544e+00 0.0000000000000000e+00  2.0939439072478858e-01 1.4093555048615105e+00 0.0000000000000000e+00  2.0154502801480256e-01 1.4468233834900288e+00 0.0000000000000000e+00  2.0680903088294178e-01 1.4082083403747652e+00 0.0000000000000000e+00  2.0494598760617866e-01 1.4787432251035002e+00 0.0000000000000000e+00  2.0374485238249090e-01 1.4028467370837490e+00 0.0000000000000000e+00  2.0522240937687417e-01 1.4898904210676305e+00 0.0000000000000000e+00  2.0734552995932753e-01 1.4435613903789186e+00 0.0000000000000000e+00  1.9748643562896476e-01 1.4460070737115673e+00 0.0000000000000000e+00  2.1575650646621808e-01 1.5161300916791831e+00 0.0000000000000000e+00  1.9274486855155831e-01 1.4226536230861961e+00 0.0000000000000000e+00  2.1061273038132827e-01 1.4970927024881533e+00 0.0000000000000000e+00  2.0867977753169797e-01 1.5455853055856024e+00 0.0000000000000000e+00  1.8577666605733520e-01 1.3359602651194862e+00 0.0000000000000000e+00  2.2917141189632281e-01 1.6901252427756721e+00 0.0000000000000000e+00  1.8031195725532759e-01 1.3237584311171020e+00 0.0000000000000000e+00  2.0197814010904219e-01 1.4998276454125457e+00 0.0000000000000000e+00  2.1560974576173836e-01 1.7075660991304999e+00 0.0000000000000000e+00  2.6096165038054543e-02 -5.8249249086916444e-01 0.0000000000000000e+00  3.3455765995615450e-02 -8.1092972744842295e-01 0.0000000000000000e+00  2.9851853440605727e-02 -8.2351206689412315e-01 0.0000000000000000e+00  3.1993321172130794e-02 -7.9662685289973822e-01 0.0000000000000000e+00  2.9722699981918902e-02 -7.9890465025563429e-01 0.0000000000000000e+00  3.2351164433582151e-02 -8.0191509117909432e-01 0.0000000000000000e+00  2.9425556058323116e-02 -7.8165901621406553e-01 0.0000000000000000e+00  3.2549648725203113e-02 -7.9772969257031412e-01 0.0000000000000000e+00  2.9277391973935578e-02 -7.7011981983356437e-01 0.0000000000000000e+00  3.2672544301847253e-02 -7.9085873919134009e-01 0.0000000000000000e+00  2.9153654892530433e-02 -7.5971671785046668e-01 0.0000000000000000e+00  3.2799655464044022e-02 -7.8356994256880441e-01 0.0000000000000000e+00  2.9014002605432500e-02 -7.4940880365808937e-01 0.0000000000000000e+00  3.2948847528511523e-02 -7.7626062133795626e-01 0.0000000000000000e+00  2.8850915863796678e-02 -7.3903911149001078e-01 0.0000000000000000e+00  3.3123241627669678e-02 -7.6898672848113891e-01 0.0000000000000000e+00  2.8662544450383236e-02 -7.2858194599032888e-01 0.0000000000000000e+00  3.3324240097059400e-02 -7.6175680400745638e-01 0.0000000000000000e+00  2.8447899019687146e-02 -7.1802312633622856e-01 0.0000000000000000e+00  3.3551959566417960e-02 -7.5458940112351724e-01 0.0000000000000000e+00  2.8207137515244986e-02 -7.0733820912564660e-01 0.0000000000000000e+00  3.3806371943021267e-02 -7.4749362776737260e-01 0.0000000000000000e+00  2.7940383008425749e-02 -6.9651701449534364e-01 0.0000000000000000e+00  3.4085981494303079e-02 -7.4048909624568970e-01 0.0000000000000000e+00  2.7650377742083267e-02 -6.8551862353428339e-01 0.0000000000000000e+00  3.4388111368167530e-02 -7.3359881896849100e-01 0.0000000000000000e+00  2.7338613142956165e-02 -6.7434334748405700e-01 0.0000000000000000e+00  3.4710657124260899e-02 -7.2681780417704833e-01 0.0000000000000000e+00  2.7009826419042916e-02 -6.6295203986450257e-01 0.0000000000000000e+00  3.5047007016618739e-02 -7.2020162979073588e-01 0.0000000000000000e+00  2.6668434575816528e-02 -6.5133091290308476e-01 0.0000000000000000e+00  3.5395891307122437e-02 -7.1369614094337641e-01 0.0000000000000000e+00  2.6316462745097632e-02 -6.3952798926212095e-01 0.0000000000000000e+00  3.5749450651232494e-02 -7.0734681111335029e-01 0.0000000000000000e+00  2.5964918098543309e-02 -6.2744404836697953e-01 0.0000000000000000e+00  3.6101833905953444e-02 -7.0115195399777064e-01 0.0000000000000000e+00  2.5609976924157472e-02 -6.1526501021414293e-01 0.0000000000000000e+00  3.6456718356690378e-02 -6.9493673706736070e-01 0.0000000000000000e+00  2.5260006512541195e-02 -6.0296464066336464e-01 0.0000000000000000e+00  3.6794125151404802e-02 -6.8892890253945682e-01 0.0000000000000000e+00  2.4927878258381508e-02 -5.9044244399096157e-01 0.0000000000000000e+00  3.7123547395702047e-02 -6.8284662430276610e-01 0.0000000000000000e+00  2.4588594387693560e-02 -5.7829702151309381e-01 0.0000000000000000e+00  3.7451859635498741e-02 -6.7645595114228096e-01 0.0000000000000000e+00  2.4271480645217905e-02 -5.6612762367797598e-01 0.0000000000000000e+00  3.7730391443697844e-02 -6.7047893455728680e-01 0.0000000000000000e+00  2.3995145714748797e-02 -5.5372720049664048e-01 0.0000000000000000e+00  3.8002484495317949e-02 -6.6406873597236493e-01 0.0000000000000000e+00  2.3677841825758487e-02 -5.4273076927502473e-01 0.0000000000000000e+00  3.8310780466194849e-02 -6.5640508950929299e-01 0.0000000000000000e+00  2.3367170110796073e-02 -5.3237541454797099e-01 0.0000000000000000e+00  3.8511190822051657e-02 -6.4986492544807761e-01 0.0000000000000000e+00  2.3197777554333512e-02 -5.2027794207590528e-01 0.0000000000000000e+00  3.8586440865710392e-02 -6.4467085677703984e-01 0.0000000000000000e+00  2.3004498480512683e-02 -5.0959447227607280e-01 0.0000000000000000e+00  3.8880186361962409e-02 -6.3492124980323639e-01 0.0000000000000000e+00  2.2423636021724078e-02 -5.0716356861894174e-01 0.0000000000000000e+00  3.9663417922881014e-02 -6.1601159850892129e-01 0.0000000000000000e+00  2.1489257481791535e-02 -5.1247143409721663e-01 0.0000000000000000e+00  4.0683319583542127e-02 -5.9227003952764490e-01 0.0000000000000000e+00  2.0741378569903258e-02 -5.1546513982400599e-01 0.0000000000000000e+00  4.1398072467119781e-02 -5.7283706643179988e-01 0.0000000000000000e+00  2.0512063633753665e-02 -5.0982605235502831e-01 0.0000000000000000e+00  4.1616770434006169e-02 -5.6089605675258702e-01 0.0000000000000000e+00  2.0628643266201615e-02 -4.9875451781538216e-01 0.0000000000000000e+00  4.15336920525