<?xml version="1.0"?>
<VTKFile type="UnstructuredGrid"  version="0.1"  >
<UnstructuredGrid>
<Piece  NumberOfPoints="801" NumberOfCells="800">
<Points>
<DataArray  type="Float64"  NumberOfComponents="3"  format="ascii">-5 0 0  -4.9875 0 0  -4.975 0 0  -4.9625 0 0  -4.95 0 0  -4.9375 0 0  -4.925 0 0  -4.9125 0 0  -4.9 0 0  -4.8875 0 0  -4.875 0 0  -4.8625 0 0  -4.85 0 0  -4.8375 0 0  -4.825 0 0  -4.8125 0 0  -4.8 0 0  -4.7875 0 0  -4.775 0 0  -4.7625 0 0  -4.75 0 0  -4.7375 0 0  -4.725 0 0  -4.7125 0 0  -4.7 0 0  -4.6875 0 0  -4.675 0 0  -4.6625 0 0  -4.65 0 0  -4.6375 0 0  -4.625 0 0  -4.6125 0 0  -4.6 0 0  -4.5875 0 0  -4.575 0 0  -4.5625 0 0  -4.55 0 0  -4.5375 0 0  -4.525 0 0  -4.5125 0 0  -4.5 0 0  -4.4875 0 0  -4.475 0 0  -4.4625 0 0  -4.45 0 0  -4.4375 0 0  -4.425 0 0  -4.4125 0 0  -4.4 0 0  -4.3875 0 0  -4.375 0 0  -4.3625 0 0  -4.35 0 0  -4.3375 0 0  -4.325 0 0  -4.3125 0 0  -4.3 0 0  -4.2875 0 0  -4.275 0 0  -4.2625 0 0  -4.25 0 0  -4.2375 0 0  -4.225 0 0  -4.2125 0 0  -4.2 0 0  -4.1875 0 0  -4.175 0 0  -4.1625 0 0  -4.15 0 0  -4.1375 0 0  -4.125 0 0  -4.1125 0 0  -4.1 0 0  -4.0875 0 0  -4.075 0 0  -4.0625 0 0  -4.05 0 0  -4.0375 0 0  -4.025 0 0  -4.0125 0 0  -4 0 0  -3.9875 0 0  -3.975 0 0  -3.9625 0 0  -3.95 0 0  -3.9375 0 0  -3.925 0 0  -3.9125 0 0  -3.9 0 0  -3.8875 0 0  -3.875 0 0  -3.8625 0 0  -3.85 0 0  -3.8375 0 0  -3.825 0 0  -3.8125 0 0  -3.8 0 0  -3.7875 0 0  -3.775 0 0  -3.7625 0 0  -3.75 0 0  -3.7375 0 0  -3.725 0 0  -3.7125 0 0  -3.7 0 0  -3.6875 0 0  -3.675 0 0  -3.6625 0 0  -3.65 0 0  -3.6375 0 0  -3.625 0 0  -3.6125 0 0  -3.6 0 0  -3.5875 0 0  -3.575 0 0  -3.5625 0 0  -3.55 0 0  -3.5375 0 0  -3.525 0 0  -3.5125 0 0  -3.5 0 0  -3.4875 0 0  -3.475 0 0  -3.4625 0 0  -3.45 0 0  -3.4375 0 0  -3.425 0 0  -3.4125 0 0  -3.4 0 0  -3.3875 0 0  -3.375 0 0  -3.3625 0 0  -3.35 0 0  -3.3375 0 0  -3.325 0 0  -3.3125 0 0  -3.3 0 0  -3.2875 0 0  -3.275 0 0  -3.2625 0 0  -3.25 0 0  -3.2375 0 0  -3.225 0 0  -3.2125 0 0  -3.2 0 0  -3.1875 0 0  -3.175 0 0  -3.1625 0 0  -3.15 0 0  -3.1375 0 0  -3.125 0 0  -3.1125 0 0  -3.1 0 0  -3.0875 0 0  -3.075 0 0  -3.0625 0 0  -3.05 0 0  -3.0375 0 0  -3.025 0 0  -3.0125 0 0  -3 0 0  -2.9875 0 0  -2.975 0 0  -2.9625 0 0  -2.95 0 0  -2.9375 0 0  -2.925 0 0  -2.9125 0 0  -2.9 0 0  -2.8875 0 0  -2.875 0 0  -2.8625 0 0  -2.85 0 0  -2.8375 0 0  -2.825 0 0  -2.8125 0 0  -2.8 0 0  -2.7875 0 0  -2.775 0 0  -2.7625 0 0  -2.75 0 0  -2.7375 0 0  -2.725 0 0  -2.7125 0 0  -2.7 0 0  -2.6875 0 0  -2.675 0 0  -2.6625 0 0  -2.65 0 0  -2.6375 0 0  -2.625 0 0  -2.6125 0 0  -2.6 0 0  -2.5875 0 0  -2.575 0 0  -2.5625 0 0  -2.55 0 0  -2.5375 0 0  -2.525 0 0  -2.5125 0 0  -2.5 0 0  -2.4875 0 0  -2.475 0 0  -2.4625 0 0  -2.45 0 0  -2.4375 0 0  -2.425 0 0  -2.4125 0 0  -2.4 0 0  -2.3875 0 0  -2.375 0 0  -2.3625 0 0  -2.35 0 0  -2.3375 0 0  -2.325 0 0  -2.3125 0 0  -2.3 0 0  -2.2875 0 0  -2.275 0 0  -2.2625 0 0  -2.25 0 0  -2.2375 0 0  -2.225 0 0  -2.2125 0 0  -2.2 0 0  -2.1875 0 0  -2.175 0 0  -2.1625 0 0  -2.15 0 0  -2.1375 0 0  -2.125 0 0  -2.1125 0 0  -2.1 0 0  -2.0875 0 0  -2.075 0 0  -2.0625 0 0  -2.05 0 0  -2.0375 0 0  -2.025 0 0  -2.0125 0 0  -2 0 0  -1.9875 0 0  -1.975 0 0  -1.9625 0 0  -1.95 0 0  -1.9375 0 0  -1.925 0 0  -1.9125 0 0  -1.9 0 0  -1.8875 0 0  -1.875 0 0  -1.8625 0 0  -1.85 0 0  -1.8375 0 0  -1.825 0 0  -1.8125 0 0  -1.8 0 0  -1.7875 0 0  -1.775 0 0  -1.7625 0 0  -1.75 0 0  -1.7375 0 0  -1.725 0 0  -1.7125 0 0  -1.7 0 0  -1.6875 0 0  -1.675 0 0  -1.6625 0 0  -1.65 0 0  -1.6375 0 0  -1.625 0 0  -1.6125 0 0  -1.6 0 0  -1.5875 0 0  -1.575 0 0  -1.5625 0 0  -1.55 0 0  -1.5375 0 0  -1.525 0 0  -1.5125 0 0  -1.5 0 0  -1.4875 0 0  -1.475 0 0  -1.4625 0 0  -1.45 0 0  -1.4375 0 0  -1.425 0 0  -1.4125 0 0  -1.4 0 0  -1.3875 0 0  -1.375 0 0  -1.3625 0 0  -1.35 0 0  -1.3375 0 0  -1.325 0 0  -1.3125 0 0  -1.3 0 0  -1.2875 0 0  -1.275 0 0  -1.2625 0 0  -1.25 0 0  -1.2375 0 0  -1.225 0 0  -1.2125 0 0  -1.2 0 0  -1.1875 0 0  -1.175 0 0  -1.1625 0 0  -1.15 0 0  -1.1375 0 0  -1.125 0 0  -1.1125 0 0  -1.1 0 0  -1.0875 0 0  -1.075 0 0  -1.0625 0 0  -1.05 0 0  -1.0375 0 0  -1.025 0 0  -1.0125 0 0  -1 0 0  -0.9874999999999998 0 0  -0.9749999999999996 0 0  -0.9625000000000004 0 0  -0.9500000000000002 0 0  -0.9375 0 0  -0.9249999999999998 0 0  -0.9124999999999996 0 0  -0.9000000000000004 0 0  -0.8875000000000002 0 0  -0.875 0 0  -0.8624999999999998 0 0  -0.8499999999999996 0 0  -0.8375000000000004 0 0  -0.8250000000000002 0 0  -0.8125 0 0  -0.7999999999999998 0 0  -0.7874999999999996 0 0  -0.7750000000000004 0 0  -0.7625000000000002 0 0  -0.75 0 0  -0.7374999999999998 0 0  -0.7249999999999996 0 0  -0.7125000000000004 0 0  -0.7000000000000002 0 0  -0.6875 0 0  -0.6749999999999998 0 0  -0.6624999999999996 0 0  -0.6500000000000004 0 0  -0.6375000000000002 0 0  -0.625 0 0  -0.6124999999999998 0 0  -0.5999999999999996 0 0  -0.5875000000000004 0 0  -0.5750000000000002 0 0  -0.5625 0 0  -0.5499999999999998 0 0  -0.5374999999999996 0 0  -0.5250000000000004 0 0  -0.5125000000000002 0 0  -0.5 0 0  -0.4874999999999998 0 0  -0.4749999999999996 0 0  -0.4625000000000004 0 0  -0.4500000000000002 0 0  -0.4375 0 0  -0.4249999999999998 0 0  -0.4124999999999996 0 0  -0.4000000000000004 0 0  -0.3875000000000002 0 0  -0.375 0 0  -0.3624999999999998 0 0  -0.3499999999999996 0 0  -0.3375000000000004 0 0  -0.3250000000000002 0 0  -0.3125 0 0  -0.2999999999999998 0 0  -0.2874999999999996 0 0  -0.2750000000000004 0 0  -0.2625000000000002 0 0  -0.25 0 0  -0.2374999999999998 0 0  -0.2249999999999996 0 0  -0.2125000000000004 0 0  -0.2000000000000002 0 0  -0.1875 0 0  -0.1749999999999998 0 0  -0.1624999999999996 0 0  -0.1500000000000004 0 0  -0.1375000000000002 0 0  -0.125 0 0  -0.1124999999999998 0 0  -0.09999999999999964 0 0  -0.08750000000000036 0 0  -0.07500000000000018 0 0  -0.0625 0 0  -0.04999999999999982 0 0  -0.03749999999999964 0 0  -0.02500000000000036 0 0  -0.01250000000000018 0 0  0 0 0  0.01250000000000018 0 0  0.02500000000000036 0 0  0.03749999999999964 0 0  0.04999999999999982 0 0  0.0625 0 0  0.07500000000000018 0 0  0.08750000000000036 0 0  0.09999999999999964 0 0  0.1124999999999998 0 0  0.125 0 0  0.1375000000000002 0 0  0.1500000000000004 0 0  0.1624999999999996 0 0  0.1749999999999998 0 0  0.1875 0 0  0.2000000000000002 0 0  0.2125000000000004 0 0  0.2249999999999996 0 0  0.2374999999999998 0 0  0.25 0 0  0.2625000000000002 0 0  0.2750000000000004 0 0  0.2874999999999996 0 0  0.2999999999999998 0 0  0.3125 0 0  0.3250000000000002 0 0  0.3375000000000004 0 0  0.3499999999999996 0 0  0.3624999999999998 0 0  0.375 0 0  0.3875000000000002 0 0  0.4000000000000004 0 0  0.4124999999999996 0 0  0.4249999999999998 0 0  0.4375 0 0  0.4500000000000002 0 0  0.4625000000000004 0 0  0.4749999999999996 0 0  0.4874999999999998 0 0  0.5 0 0  0.5125000000000002 0 0  0.5250000000000004 0 0  0.5374999999999996 0 0  0.5499999999999998 0 0  0.5625 0 0  0.5750000000000002 0 0  0.5875000000000004 0 0  0.5999999999999996 0 0  0.6124999999999998 0 0  0.625 0 0  0.6375000000000002 0 0  0.6500000000000004 0 0  0.6624999999999996 0 0  0.6749999999999998 0 0  0.6875 0 0  0.7000000000000002 0 0  0.7125000000000004 0 0  0.7249999999999996 0 0  0.7374999999999998 0 0  0.75 0 0  0.7625000000000002 0 0  0.7750000000000004 0 0  0.7874999999999996 0 0  0.7999999999999998 0 0  0.8125 0 0  0.8250000000000002 0 0  0.8375000000000004 0 0  0.8499999999999996 0 0  0.8624999999999998 0 0  0.875 0 0  0.8875000000000002 0 0  0.9000000000000004 0 0  0.9124999999999996 0 0  0.9249999999999998 0 0  0.9375 0 0  0.9500000000000002 0 0  0.9625000000000004 0 0  0.9749999999999996 0 0  0.9874999999999998 0 0  1 0 0  1.0125 0 0  1.025 0 0  1.0375 0 0  1.05 0 0  1.0625 0 0  1.075 0 0  1.0875 0 0  1.1 0 0  1.1125 0 0  1.125 0 0  1.1375 0 0  1.15 0 0  1.1625 0 0  1.175 0 0  1.1875 0 0  1.2 0 0  1.2125 0 0  1.225 0 0  1.2375 0 0  1.25 0 0  1.2625 0 0  1.275 0 0  1.2875 0 0  1.3 0 0  1.3125 0 0  1.325 0 0  1.3375 0 0  1.35 0 0  1.3625 0 0  1.375 0 0  1.3875 0 0  1.4 0 0  1.4125 0 0  1.425 0 0  1.4375 0 0  1.45 0 0  1.4625 0 0  1.475 0 0  1.4875 0 0  1.5 0 0  1.5125 0 0  1.525 0 0  1.5375 0 0  1.55 0 0  1.5625 0 0  1.575 0 0  1.5875 0 0  1.6 0 0  1.6125 0 0  1.625 0 0  1.6375 0 0  1.65 0 0  1.6625 0 0  1.675 0 0  1.6875 0 0  1.7 0 0  1.7125 0 0  1.725 0 0  1.7375 0 0  1.75 0 0  1.7625 0 0  1.775 0 0  1.7875 0 0  1.8 0 0  1.8125 0 0  1.825 0 0  1.8375 0 0  1.85 0 0  1.8625 0 0  1.875 0 0  1.8875 0 0  1.9 0 0  1.9125 0 0  1.925 0 0  1.9375 0 0  1.95 0 0  1.9625 0 0  1.975 0 0  1.9875 0 0  2 0 0  2.0125 0 0  2.025 0 0  2.0375 0 0  2.05 0 0  2.0625 0 0  2.075 0 0  2.0875 0 0  2.1 0 0  2.1125 0 0  2.125 0 0  2.1375 0 0  2.15 0 0  2.1625 0 0  2.175 0 0  2.1875 0 0  2.2 0 0  2.2125 0 0  2.225 0 0  2.2375 0 0  2.25 0 0  2.2625 0 0  2.275 0 0  2.2875 0 0  2.3 0 0  2.3125 0 0  2.325 0 0  2.3375 0 0  2.35 0 0  2.3625 0 0  2.375 0 0  2.3875 0 0  2.4 0 0  2.4125 0 0  2.425 0 0  2.4375 0 0  2.45 0 0  2.4625 0 0  2.475 0 0  2.4875 0 0  2.5 0 0  2.5125 0 0  2.525 0 0  2.5375 0 0  2.55 0 0  2.5625 0 0  2.575 0 0  2.5875 0 0  2.6 0 0  2.6125 0 0  2.625 0 0  2.6375 0 0  2.65 0 0  2.6625 0 0  2.675 0 0  2.6875 0 0  2.7 0 0  2.7125 0 0  2.725 0 0  2.7375 0 0  2.75 0 0  2.7625 0 0  2.775 0 0  2.7875 0 0  2.8 0 0  2.8125 0 0  2.825 0 0  2.8375 0 0  2.85 0 0  2.8625 0 0  2.875 0 0  2.8875 0 0  2.9 0 0  2.9125 0 0  2.925 0 0  2.9375 0 0  2.95 0 0  2.9625 0 0  2.975 0 0  2.9875 0 0  3 0 0  3.012499999999999 0 0  3.025 0 0  3.0375 0 0  3.050000000000001 0 0  3.0625 0 0  3.074999999999999 0 0  3.0875 0 0  3.1 0 0  3.112500000000001 0 0  3.125 0 0  3.137499999999999 0 0  3.15 0 0  3.1625 0 0  3.175000000000001 0 0  3.1875 0 0  3.199999999999999 0 0  3.2125 0 0  3.225 0 0  3.237500000000001 0 0  3.25 0 0  3.262499999999999 0 0  3.275 0 0  3.2875 0 0  3.300000000000001 0 0  3.3125 0 0  3.324999999999999 0 0  3.3375 0 0  3.35 0 0  3.362500000000001 0 0  3.375 0 0  3.387499999999999 0 0  3.4 0 0  3.4125 0 0  3.425000000000001 0 0  3.4375 0 0  3.449999999999999 0 0  3.4625 0 0  3.475 0 0  3.4875
[...]
<PointData  Vectors="(h, u)"> 
<DataArray  type="Float64"  Name="(h, u)"  NumberOfComponents="3" format="ascii">3.5173236743103459e-01 0.0000000000000000e+00 0.0000000000000000e+00  3.5182898248082878e-01 9.0624875064631745e-03 0.0000000000000000e+00  3.5172755770364644e-01 1.8131596594007246e-02 0.0000000000000000e+00  3.5181948972054006e-01 2.7187798648080099e-02 0.0000000000000000e+00  3.5171312666461091e-01 3.6263908203446361e-02 0.0000000000000000e+00  3.5180050075133318e-01 4.5314118813436700e-02 0.0000000000000000e+00  3.5168906875094780e-01 5.4397651226264020e-02 0.0000000000000000e+00  3.5177200867698155e-01 6.3442122896440467e-02 0.0000000000000000e+00  3.5165537469122482e-01 7.2533544874339523e-02 0.0000000000000000e+00  3.5173400314226971e-01 8.1572489067033654e-02 0.0000000000000000e+00  3.5161203151219056e-01 9.0672312319296178e-02 0.0000000000000000e+00  3.5168647033017164e-01 9.9705899763948891e-02 0.0000000000000000e+00  3.5155902252498272e-01 1.0881468167688457e-01 0.0000000000000000e+00  3.5162939289239520e-01 1.1784304274948784e-01 0.0000000000000000e+00  3.5149632724507024e-01 1.2696138693381129e-01 0.0000000000000000e+00  3.5156274986411573e-01 1.3598461180564100e-01 0.0000000000000000e+00  3.5142392134156741e-01 1.4511316820117473e-01 0.0000000000000000e+00  3.5148651656422203e-01 1.5413130703999250e-01 0.0000000000000000e+00  3.5134177646561360e-01 1.6327077212166599e-01 0.0000000000000000e+00  3.5140066433565043e-01 1.7228383563282318e-01 0.0000000000000000e+00  3.5124986004137770e-01 1.8143495207942373e-01 0.0000000000000000e+00  3.5130516041841242e-01 1.9044291160696483e-01 0.0000000000000000e+00  3.5114813517489840e-01 1.9960646759547457e-01 0.0000000000000000e+00  3.5119996769450545e-01 2.0860925625172341e-01 0.0000000000000000e+00  3.5103656026531477e-01 2.1778608542362735e-01 0.0000000000000000e+00  3.5108504436149440e-01 2.2678359922397845e-01 0.0000000000000000e+00  3.5091508900533669e-01 2.3597457907572880e-01 0.0000000000000000e+00  3.5096034406200205e-01 2.4496667786716839e-01 0.0000000000000000e+00  3.5078367026513335e-01 2.5417272977479205e-01 0.0000000000000000e+00  3.5082581535778640e-01 2.6315924088565157e-01 0.0000000000000000e+00  3.5064224775460645e-01 2.7238132959479522e-01 0.0000000000000000e+00  3.5068140208240950e-01 2.8136204838690737e-01 0.0000000000000000e+00  3.5049076077966823e-01 2.9060117984315981e-01 0.0000000000000000e+00  3.5052704335613005e-01 2.9957587461435853e-01 0.0000000000000000e+00  3.5032914332556636e-01 3.0883309906543482e-01 0.0000000000000000e+00  3.5036267300823581e-01 3.1780151433031251e-01 0.0000000000000000e+00  3.5015732517725423e-01 3.2707792061182595e-01 0.0000000000000000e+00  3.5018822118917214e-01 3.3603977754222869e-01 0.0000000000000000e+00  3.4997523156265420e-01 3.4533649776292019e-01 0.0000000000000000e+00  3.5000361185913470e-01 3.5429150525279279e-01 0.0000000000000000e+00  3.4978278226088416e-01 3.6360971075714510e-01 0.0000000000000000e+00  3.4980876558153995e-01 3.7255755579523925e-01 0.0000000000000000e+00  3.4957989434480646e-01 3.8189845310541937e-01 0.0000000000000000e+00  3.4960359663835261e-01 3.9083881967576112e-01 0.0000000000000000e+00  3.4936647643439250e-01 4.0020366092946213e-01 0.0000000000000000e+00  3.4938801344498893e-01 4.0913621555544000e-01 0.0000000000000000e+00  3.4914243628428221e-01 4.1852626996633102e-01 0.0000000000000000e+00  3.4916192078924108e-01 4.2745067568685607e-01 0.0000000000000000e+00  3.4890767033903358e-01 4.3686726708035306e-01 0.0000000000000000e+00  3.4892521123081965e-01 4.4578318821262802e-01 0.0000000000000000e+00  3.4866207382262748e-01 4.5522763340818467e-01 0.0000000000000000e+00  3.4867778030886287e-01 4.6413471327422162e-01 0.0000000000000000e+00  3.4840553203454294e-01 4.7360838898999497e-01 0.0000000000000000e+00  3.4841950129976879e-01 4.8250631400900496e-01 0.0000000000000000e+00  3.4813792349051442e-01 4.9201057682439059e-01 0.0000000000000000e+00  3.4815026039866104e-01 5.0089896900531461e-01 0.0000000000000000e+00  3.4785912640781003e-01 5.1043523075505759e-01 0.0000000000000000e+00  3.4786990908569571e-01 5.1931382745815680e-01 0.0000000000000000e+00  3.4756899622221821e-01 5.2888349616118158e-01 0.0000000000000000e+00  3.4757832346785272e-01 5.3775190071623813e-01 0.0000000000000000e+00  3.4726740814978241e-01 5.4735640424060072e-01 0.0000000000000000e+00  3.4727533021591189e-01 5.5621446455492407e-01 0.0000000000000000e+00  3.4695418124628741e-01 5.6585527432745886e-01 0.0000000000000000e+00  3.4696079321331735e-01 5.7470260546285745e-01 0.0000000000000000e+00  3.4662919050693031e-01 5.8438112119118957e-01 0.0000000000000000e+00  3.4663450459281225e-01 5.9321779906822680e-01 0.0000000000000000e+00  3.4629219957799112e-01 6.0293555235572927e-01 0.0000000000000000e+00  3.4629631488124174e-01 6.1176120571739945e-01 0.0000000000000000e+00  3.4594309539093759e-01 6.2151953698311924e-01 0.0000000000000000e+00  3.4594595939749406e-01 6.3033457566816697e-01 0.0000000000000000e+00  3.4558157393312683e-01 6.4013508841941646e-01 0.0000000000000000e+00  3.4558329977999114e-01 6.4893895701657101e-01 0.0000000000000000e+00  3.4520756215497539e-01 6.5878300219755670e-01 0.0000000000000000e+00  3.4520798425693366e-01 6.6757654325197291e-01 0.0000000000000000e+00  3.4482068579726638e-01 6.7746562318829906e-01 0.0000000000000000e+00  3.4481998763078470e-01 6.8624786076480615e-01 0.0000000000000000e+00  3.4442090544531473e-01 6.9618342030894009e-01 0.0000000000000000e+00  3.4441879149861360e-01 7.0495610240529272e-01 0.0000000000000000e+00  3.4400783035712595e-01 7.1493878986266091e-01 0.0000000000000000e+00  3.4400458818023189e-01 7.2370045143650930e-01 0.0000000000000000e+00  3.4358134605892010e-01 7.3373298014996613e-01 0.0000000000000000e+00  3.4357643628231671e-01 7.4248585148678037e-01 0.0000000000000000e+00  3.4314128089291729e-01 7.5256748489663572e-01 0.0000000000000000e+00  3.4313484061934735e-01 7.6131027699489418e-01 0.0000000000000000e+00  3.4268672064980477e-01 7.7144608424248184e-01 0.0000000000000000e+00  3.4267879976756443e-01 7.8018211864377840e-01 0.0000000000000000e+00  3.4221796409290528e-01 7.9036406043842766e-01 0.0000000000000000e+00  3.4220881028258332e-01 7.9910146385665226e-01 0.0000000000000000e+00  3.4173312284086127e-01 8.0933344910537686e-01 0.0000000000000000e+00  3.4172370058001855e-01 8.1806580845796117e-01 0.0000000000000000e+00  3.4123581732328212e-01 8.2835375626220109e-01 0.0000000000000000e+00  3.4121934622588224e-01 8.3707202266733161e-01 0.0000000000000000e+00  3.4072587422976813e-01 8.4744882992592829e-01 0.0000000000000000e+00  3.4069861812858110e-01 8.5610392010502334e-01 0.0000000000000000e+00  3.4019915671938961e-01 8.6659717244668921e-01 0.0000000000000000e+00  3.4016643086329873e-01 8.7524298009936019e-01 0.0000000000000000e+00  3.3964286679447775e-01 8.8570112891367692e-01 0.0000000000000000e+00  3.3964234664435961e-01 8.9456292724180220e-01 0.0000000000000000e+00  3.3904082686413095e-01 9.0476088477377781e-01 0.0000000000000000e+00  3.3911299533275302e-01 9.1398216802224486e-01 0.0000000000000000e+00  3.3845124990905517e-01 9.2400537862322918e-01 0.0000000000000000e+00  3.3847636582861246e-01 9.3306914193298962e-01 0.0000000000000000e+00  3.3798849552255433e-01 9.4406865011088059e-01 0.0000000000000000e+00  3.3765330354167267e-01 9.5123422555734016e-01 0.0000000000000000e+00  3.3763069470586149e-01 9.6499713921318586e-01 0.0000000000000000e+00  3.3684118680702285e-01 9.6959371448318032e-01 0.0000000000000000e+00  3.3693386666202740e-01 9.8413727909818183e-01 0.0000000000000000e+00  3.3672800315956730e-01 9.9213139249356896e-01 0.0000000000000000e+00  3.3511507074319441e-01 9.9731925216089390e-01 0.0000000000000000e+00  3.3779385014101071e-01 1.0210414473636691e+00 0.0000000000000000e+00  3.3258188677967654e-01 1.0071561639677888e+00 0.0000000000000000e+00  3.3809015415745597e-01 1.0458146214468984e+00 0.0000000000000000e+00  3.3309472383506228e-01 1.0336526892368110e+00 0.0000000000000000e+00  3.3241793068734421e-01 1.0391816711756372e+00 0.0000000000000000e+00  3.4152589803233913e-01 1.1024874510328153e+00 0.0000000000000000e+00  3.1889694279106234e-01 9.8900617817157499e-01 0.0000000000000000e+00  3.5245980478394912e-01 1.1849138924342377e+00 0.0000000000000000e+00  3.1214267198907436e-01 9.7828649463140183e-01 0.0000000000000000e+00  3.3586941998298159e-01 1.1159190179389067e+00 0.0000000000000000e+00  3.1160166204566986e-01 1.0640793314057204e+00 0.0000000000000000e+00  6.6418149949669755e-02 -1.1735194362584045e+00 0.0000000000000000e+00  7.6245724987980712e-02 -1.1485161422675212e+00 0.0000000000000000e+00  7.3186022354711597e-02 -1.2380224092966308e+00 0.0000000000000000e+00  7.1712616275617327e-02 -1.1678118507626223e+00 0.0000000000000000e+00  7.2605177648090630e-02 -1.2130782006175413e+00 0.0000000000000000e+00  7.1265165719511345e-02 -1.1851019317311235e+00 0.0000000000000000e+00  7.0988717492222922e-02 -1.1993111017161275e+00 0.0000000000000000e+00  7.0749624607613526e-02 -1.1907465675784139e+00 0.0000000000000000e+00  6.9721359736022545e-02 -1.1940413525098166e+00 0.0000000000000000e+00  6.9912930252815725e-02 -1.1911740231981234e+00 0.0000000000000000e+00  6.8662564583997179e-02 -1.1919913546841876e+00 0.0000000000000000e+00  6.8951557781798373e-02 -1.1901713899260840e+00 0.0000000000000000e+00  6.7660048012054858e-02 -1.1908630895097532e+00 0.0000000000000000e+00  6.7959003196312151e-02 -1.1890399370943776e+00 0.0000000000000000e+00  6.6662975349683865e-02 -1.1900085452768192e+00 0.0000000000000000e+00  6.6958682962729082e-02 -1.1880876517902146e+00 0.0000000000000000e+00  6.5661173256619770e-02 -1.1893206125460472e+00 0.0000000000000000e+00  6.5953282265600086e-02 -1.1873573969172115e+00 0.0000000000000000e+00  6.4653675672984648e-02 -1.1888095944793449e+00 0.0000000000000000e+00  6.4942051118227706e-02 -1.1868498180316247e+00 0.0000000000000000e+00  6.3640357383332430e-02 -1.1884968246705392e+00 0.0000000000000000e+00  6.3924311537100070e-02 -1.1865675401644848e+00 0.0000000000000000e+00  6.2620789219203901e-02 -1.1883996508633909e+00 0.0000000000000000e+00  6.2899647673898745e-02 -1.1865177223831338e+00 0.0000000000000000e+00  6.1594393052936118e-02 -1.1885326938291882e+00 0.0000000000000000e+00  6.1867737473833513e-02 -1.1867097421732156e+00 0.0000000000000000e+00  6.0560610358427545e-02 -1.1889092810528166e+00 0.0000000000000000e+00  6.0828289976794840e-02 -1.1871537447369354e+00 0.0000000000000000e+00  5.9518986594280822e-02 -1.1895416492183171e+00 0.0000000000000000e+00  5.9781067335074080e-02 -1.1878597377263249e+00 0.0000000000000000e+00  5.8469230393815956e-02 -1.1904404397772064e+00 0.0000000000000000e+00  5.8725952845487706e-02 -1.1888365974431014e+00 0.0000000000000000e+00  5.7411286468679851e-02 -1.1916137147002464e+00 0.0000000000000000e+00  5.7663056607441157e-02 -1.1900906366213382e+00 0.0000000000000000e+00  5.6345443398624573e-02 -1.1930654101145441e+00 0.0000000000000000e+00  5.6592866832102996e-02 -1.1916234881653158e+00 0.0000000000000000e+00  5.5272493770202165e-02 -1.1947929926194227e+00 0.0000000000000000e+00  5.5516461599248342e-02 -1.1934290416430675e+00 0.0000000000000000e+00  5.4193964982575518e-02 -1.1967840087823161e+00 0.0000000000000000e+00  5.4435797542248671e-02 -1.1954891368744387e+00 0.0000000000000000e+00  5.3112437003228180e-02 -1.1990112142545468e+00 0.0000000000000000e+00  5.3354086369483779e-02 -1.1977677673638683e+00 0.0000000000000000e+00  5.2031951116308241e-02 -1.2014261110396727e+00 0.0000000000000000e+00  5.2276249968816683e-02 -1.2002038028150004e+00 0.0000000000000000e+00  5.0958482129025234e-02 -1.2039511511288374e+00 0.0000000000000000e+00  5.1209400838309480e-02 -1.2027028628274885e+00 0.0000000000000000e+00  4.9900387502741526e-02 -1.2064717348378868e+00 0.0000000000000000e+00  5.0163220603032875e-02 -1.2051300970962666e+00 0.0000000000000000e+00  4.8868656764776884e-02 -1.2088305521491904e+00 0.0000000000000000e+00  4.9150005312644143e-02 -1.2073073106241490e+00 0.0000000000000000e+00  4.7876673810035665e-02 -1.2108286913901674e+00 0.0000000000000000e+00  4.8184049938492596e-02 -1.2090196138630234e+00 0.0000000000000000e+00  4.6939161705119997e-02 -1.2122389984274975e+00 0.0000000000000000e+00  4.7280107980856037e-02 -1.2100363109220664e+00 0.0000000000000000e+00  4.6070198749598584e-02 -1.2128343745384003e+00 0.0000000000000000e+00  4.6451057700813439e-02 -1.2101451925736468e+00 0.0000000000000000e+00  4.5280735994830332e-02 -1.2124256538589837e+00 0.0000000000000000e+00  4.5705507848693712e-02 -1.2091900919156349e+00 0.0000000000000000e+00  4.4576575847898113e-02 -1.2108949550308437e+00 0.0000000000000000e+00  4.5046384589842677e-02 -1.2070958022358891e+00 0.0000000000000000e+00  4.3957736334147908e-02 -1.2082096065611139e+00 0.0000000000000000e+00  4.4471112276079652e-02 -1.2038697125839766e+00 0.0000000000000000e+00  4.3419368571667595e-02 -1.2044123823071702e+00 0.0000000000000000e+00  4.3973088007604466e-02 -1.1995830348637100e+00 0.0000000000000000e+00  4.2953557246300518e-02 -1.1995968717180587e+00 0.0000000000000000e+00  4.3543582218109868e-02 -1.1943439020024027e+00 0.0000000000000000e+00  4.2551131410629203e-02 -1.1938809603845233e+00 0.0000000000000000e+00  4.3173334649446081e-02 -1.1882735546155698e+00 0.0000000000000000e+00  4.2202977407784580e-02 -1.1873866434328118e+00 0.0000000000000000e+00  4.2853569639177830e-02 -1.1814904202986589e+00 0.0000000000000000e+00  4.1900774023378329e-02 -1.1802280424601428e+00 0.0000000000000000e+00  4.2576489742446329e-02 -1.1741017622222105e+00 0.0000000000000000e+00  4.1637289621821318e-02 -1.1725059620758311e+00 0.0000000000000000e+00  4.2335421766640395e-02 -1.1662005961002635e+00 0.0000000000000000e+00  4.1406416956153408e-02 -1.1643065384156837e+00 0.0000000000000000e+00  4.2124774240047111e-02 -1.1578656044009146e+00 0.0000000000000000e+00  4.1203079123768693e-02 -1.1557020181805480e+00 0.0000000000000000e+00  4.1939912710380653e-02 -1.1491624626626726e+00 0.0000000000000000e+00  4.1023087767465063e-02 -1.1467524290406508e+00 0.0000000000000000e+00  4.1777012494055389e-02 -1.1401456549524225e+00 0.0000000000000000e+00  4.0862995784482818e-02 -1.1375074677594854e+00 0.0000000000000000e+00  4.1632917691634921e-02 -1.1308603099176753e+00 0.0000000000000000e+00  4.0719963347691249e-02 -1.1280082865806462e+00 0.0000000000000000e+00  4.1505017903025715e-02 -1.1213438540914000e+00 0.0000000000000000e+00  4.0591643559322051e-02 -1.1182890536324996e+00 0.0000000000000000e+00  4.1391145314227266e-02 -1.1116274179218952e+00 0.0000000000000000e+00  4.0476088108260595e-02 -1.1083782603893220e+00 0.0000000000000000e+00  4.1289490910291153e-02 -1.1017369955628722e+00 0.0000000000000000e+00  4.0371670851489849e-02 -1.0982997924355751e+00 0.0000000000000000e+00  4.1198537141038195e-02 -1.0916943861796806e+00 0.0000000000000000e+00  4.0277026512834595e-02 -1.0880737954004502e+00 0.0000000000000000e+00  4.1117004112974823e-02 -1.0815179521560203e+00 0.0000000000000000e+00  4.0191001738357372e-02 -1.0777173705193790e+00 0.0000000000000000e+00  4.1043806623597662e-02 -1.0712232286147416e+00 0.0000000000000000e+00  4.0112616086805435e-02 -1.0672451314334825e+00 0.0000000000000000e+00  4.0978019766308826e-02 -1.0608234143115680e+00 0.0000000000000000e+00  4.0041030944969754e-02 -1.0566696491791836e+00 0.0000000000000000e+00  4.0918851253804560e-02 -1.0503297689090754e+00 0.0000000000000000e+00  3.9975524755804959e-02 -1.0460018073652320e+00 0.0000000000000000e+00  4.0865618988597009e-02 -1.0397519367670938e+00 0.0000000000000000e+00  3.9915473261127668e-02 -1.0352510855253156e+00 0.0000000000000000e+00  4.0817732751549068e-02 -1.0290982128122101e+00 0.0000000000000000e+00  3.9860333745380616e-02 -1.0244257848238760e+00 0.0000000000000000e+00  4.0774679057680500e-02 -1.0183757638044870e+00 0.0000000000000000e+00  3.9809632570699770e-02 -1.0135332060028388e+00 0.0000000000000000e+00  4.0736008466604912e-02 -1.0075908149967625e+00 0.0000000000000000e+00  3.9762955227509868e-02 -1.0025797908153988e+00 0.0000000000000000e+00  4.0701325040856759e-02 -9.9674880615091943e-01 0.0000000000000000e+00  3.9719938414652128e-02 -9.9157123389331980e-01 0.0000000000000000e+00  4.0670276970404130e-02 -9.8585453156471681e-01 0.0000000000000000e+00  3.9680264659031787e-02 -9.8051255659682746e-01 0.0000000000000000e+00  4.0642547738397573e-02 -9.7491227333635799e-01 0.0000000000000000e+00  3.9643657845485347e-02 -9.6940816801760177e-01 0.0000000000000000e+00  4.0617850126718660e-02 -9.6392589174290944e-01 0.0000000000000000e+00  3.9609878199903817e-02 -9.5826193563076889e-01 0.0000000000000000e+00  4.0595919392291853e-02 -9.5289892961298983e-01 0.0000000000000000e+00  3.9578724880377274e-02 -9.4707713766288326e-01 0.0000000000000000e+00  4.0576498219278327e-02 -9.4183484541524232e-01 0.0000000000000000e+00  3.9550041921985524e-02 -9.3585636399469707e-01 0.0000000000000000e+00  4.0559334025225061e-02 -9.3073705416303198e-01 0.0000000000000000e+00  3.9523700411607632e-02 -9.2460179039553125e-01 0.0000000000000000e+00  4.0544194953086463e-02 -9.1960867809968294e-01 0.0000000000000000e+00  3.9499597772190503e-02 -9.1331518416460800e-01 0.0000000000000000e+00  4.0530818729628049e-02 -9.0845334439814684e-01 0.0000000000000000e+00  3.9477752159912172e-02 -9.0199641965755095e-01 0.0000000000000000e+00  4.0518809771233552e-02 -8.9727678662691401e-01 0.0000000000000000e+00  3.9458322530953216e-02 -8.9064316477103256e-01 0.0000000000000000e+00  4.0507768401469801e-02 -8.8608482483158191e-01 0.0000000000000000e+00  3.9441328949112391e-02 -8.7925526832850509e-01 0.0000000000000000e+00  4.0497576465553936e-02 -8.7487891621080760e-01 0.0000000000000000e+00  3.9426610446913472e-02 -8.6783540624521083e-01 0.0000000000000000e+00  4.0487933612616253e-02 -8.6366340179605816e-01 0.0000000000000000e+00  3.9414869423334428e-02 -8.5637268479458917e-01 0.0000000000000000e+00  4.0476979061603899e-02 -8.5246698939158583e-01 0.0000000000000000e+00  3.9408753326529503e-02 -8.4482571950754504e-01 0.0000000000000000e+00  4.0461324457508073e-02 -8.4134217173532366e-01 0.0000000000000000e+00  3.9411007554318450e-02 -8.3315172340237020e-01 0.0000000000000000e+00  4.0439901292583673e-02 -8.3030515574934693e-01 0.0000000000000000e+00  3.9419213713922978e-02 -8.2138904613741059e-01 0.0000000000000000e+00  4.0419330433481122e-02 -8.1925217374568893e-01 0.0000000000000000e+00  3.9422052042216146e-02 -8.0971546219688217e-01 0.0000000000000000e+00  4.0414433457083371e-02 -8.0795178876616491e-01 0.0000000000000000e+00  3.9402877926803338e-02 -7.9839161848631124e-01 0.0000000000000000e+00  4.0440810080333851e-02 -7.9616122150111357e-01 0.0000000000000000e+00  3.9349596156592274e-02 -7.8760619214074934e-01 0.0000000000000000e+00  4.0504683966691650e-02 -7.8378515302412133e-01 0.0000000000000000e+00  3.9262948975946808e-02 -7.7734633792674335e-01 0.0000000000000000e+00  4.0598151455355370e-02 -7.7094930855026444e-01 0.0000000000000000e+00  3.9157031694648681e-02 -7.6738974900394408e-01 0.0000000000000000e+00  4.0702715574315741e-02 -7.5794393489188983e-01 0.0000000000000000e+00  3.9052312354614371e-02 -7.5741403422933562e-01 0.0000000000000000e+00  4.0798368919574286e-02 -7.4508115650650220e-01 0.0000000000000000e+00  3.8965782908891800e-02 -7.4715150504274042e-01 0.0000000000000000e+00  4.0872384300003131e-02 -7.3255823871000458e-01 0.0000000000000000e+00  3.8904822079834957e-02 -7.3648602860501156e-01 0.0000000000000000e+00  4.0921972281423843e-02 -7.2041723171323302e-01 0.0000000000000000e+00  3.8868167135807465e-02 -7.2543785970258068e-01 0.0000000000000000e+00  4.0950816913948286e-02 -7.0859970418825335e-01 0.0000000000000000e+00  3.8850579837686708e-02 -7.1408996326434238e-01 0.0000000000000000e+00  4.0964563563127845e-02 -6.9701720344821905e-01 0.0000000000000000e+00  3.8846411577534018e-02 -7.0253161699583766e-01 0.0000000000000000e+00  4.0968376982223255e-02 -6.8558918133752367e-01 0.00000000