<?xml version="1.0"?>
<VTKFile type="UnstructuredGrid"  version="0.1"  >
<UnstructuredGrid>
<Piece  NumberOfPoints="801" NumberOfCells="800">
<Points>
<DataArray  type="Float64"  NumberOfComponents="3"  format="ascii">-5 0 0  -4.9875 0 0  -4.975 0 0  -4.9625 0 0  -4.95 0 0  -4.9375 0 0  -4.925 0 0  -4.9125 0 0  -4.9 0 0  -4.8875 0 0  -4.875 0 0  -4.8625 0 0  -4.85 0 0  -4.8375 0 0  -4.825 0 0  -4.8125 0 0  -4.8 0 0  -4.7875 0 0  -4.775 0 0  -4.7625 0 0  -4.75 0 0  -4.7375 0 0  -4.725 0 0  -4.7125 0 0  -4.7 0 0  -4.6875 0 0  -4.675 0 0  -4.6625 0 0  -4.65 0 0  -4.6375 0 0  -4.625 0 0  -4.6125 0 0  -4.6 0 0  -4.5875 0 0  -4.575 0 0  -4.5625 0 0  -4.55 0 0  -4.5375 0 0  -4.525 0 0  -4.5125 0 0  -4.5 0 0  -4.4875 0 0  -4.475 0 0  -4.4625 0 0  -4.45 0 0  -4.4375 0 0  -4.425 0 0  -4.4125 0 0  -4.4 0 0  -4.3875 0 0  -4.375 0 0  -4.3625 0 0  -4.35 0 0  -4.3375 0 0  -4.325 0 0  -4.3125 0 0  -4.3 0 0  -4.2875 0 0  -4.275 0 0  -4.2625 0 0  -4.25 0 0  -4.2375 0 0  -4.225 0 0  -4.2125 0 0  -4.2 0 0  -4.1875 0 0  -4.175 0 0  -4.1625 0 0  -4.15 0 0  -4.1375 0 0  -4.125 0 0  -4.1125 0 0  -4.1 0 0  -4.0875 0 0  -4.075 0 0  -4.0625 0 0  -4.05 0 0  -4.0375 0 0  -4.025 0 0  -4.0125 0 0  -4 0 0  -3.9875 0 0  -3.975 0 0  -3.9625 0 0  -3.95 0 0  -3.9375 0 0  -3.925 0 0  -3.9125 0 0  -3.9 0 0  -3.8875 0 0  -3.875 0 0  -3.8625 0 0  -3.85 0 0  -3.8375 0 0  -3.825 0 0  -3.8125 0 0  -3.8 0 0  -3.7875 0 0  -3.775 0 0  -3.7625 0 0  -3.75 0 0  -3.7375 0 0  -3.725 0 0  -3.7125 0 0  -3.7 0 0  -3.6875 0 0  -3.675 0 0  -3.6625 0 0  -3.65 0 0  -3.6375 0 0  -3.625 0 0  -3.6125 0 0  -3.6 0 0  -3.5875 0 0  -3.575 0 0  -3.5625 0 0  -3.55 0 0  -3.5375 0 0  -3.525 0 0  -3.5125 0 0  -3.5 0 0  -3.4875 0 0  -3.475 0 0  -3.4625 0 0  -3.45 0 0  -3.4375 0 0  -3.425 0 0  -3.4125 0 0  -3.4 0 0  -3.3875 0 0  -3.375 0 0  -3.3625 0 0  -3.35 0 0  -3.3375 0 0  -3.325 0 0  -3.3125 0 0  -3.3 0 0  -3.2875 0 0  -3.275 0 0  -3.2625 0 0  -3.25 0 0  -3.2375 0 0  -3.225 0 0  -3.2125 0 0  -3.2 0 0  -3.1875 0 0  -3.175 0 0  -3.1625 0 0  -3.15 0 0  -3.1375 0 0  -3.125 0 0  -3.1125 0 0  -3.1 0 0  -3.0875 0 0  -3.075 0 0  -3.0625 0 0  -3.05 0 0  -3.0375 0 0  -3.025 0 0  -3.0125 0 0  -3 0 0  -2.9875 0 0  -2.975 0 0  -2.9625 0 0  -2.95 0 0  -2.9375 0 0  -2.925 0 0  -2.9125 0 0  -2.9 0 0  -2.8875 0 0  -2.875 0 0  -2.8625 0 0  -2.85 0 0  -2.8375 0 0  -2.825 0 0  -2.8125 0 0  -2.8 0 0  -2.7875 0 0  -2.775 0 0  -2.7625 0 0  -2.75 0 0  -2.7375 0 0  -2.725 0 0  -2.7125 0 0  -2.7 0 0  -2.6875 0 0  -2.675 0 0  -2.6625 0 0  -2.65 0 0  -2.6375 0 0  -2.625 0 0  -2.6125 0 0  -2.6 0 0  -2.5875 0 0  -2.575 0 0  -2.5625 0 0  -2.55 0 0  -2.5375 0 0  -2.525 0 0  -2.5125 0 0  -2.5 0 0  -2.4875 0 0  -2.475 0 0  -2.4625 0 0  -2.45 0 0  -2.4375 0 0  -2.425 0 0  -2.4125 0 0  -2.4 0 0  -2.3875 0 0  -2.375 0 0  -2.3625 0 0  -2.35 0 0  -2.3375 0 0  -2.325 0 0  -2.3125 0 0  -2.3 0 0  -2.2875 0 0  -2.275 0 0  -2.2625 0 0  -2.25 0 0  -2.2375 0 0  -2.225 0 0  -2.2125 0 0  -2.2 0 0  -2.1875 0 0  -2.175 0 0  -2.1625 0 0  -2.15 0 0  -2.1375 0 0  -2.125 0 0  -2.1125 0 0  -2.1 0 0  -2.0875 0 0  -2.075 0 0  -2.0625 0 0  -2.05 0 0  -2.0375 0 0  -2.025 0 0  -2.0125 0 0  -2 0 0  -1.9875 0 0  -1.975 0 0  -1.9625 0 0  -1.95 0 0  -1.9375 0 0  -1.925 0 0  -1.9125 0 0  -1.9 0 0  -1.8875 0 0  -1.875 0 0  -1.8625 0 0  -1.85 0 0  -1.8375 0 0  -1.825 0 0  -1.8125 0 0  -1.8 0 0  -1.7875 0 0  -1.775 0 0  -1.7625 0 0  -1.75 0 0  -1.7375 0 0  -1.725 0 0  -1.7125 0 0  -1.7 0 0  -1.6875 0 0  -1.675 0 0  -1.6625 0 0  -1.65 0 0  -1.6375 0 0  -1.625 0 0  -1.6125 0 0  -1.6 0 0  -1.5875 0 0  -1.575 0 0  -1.5625 0 0  -1.55 0 0  -1.5375 0 0  -1.525 0 0  -1.5125 0 0  -1.5 0 0  -1.4875 0 0  -1.475 0 0  -1.4625 0 0  -1.45 0 0  -1.4375 0 0  -1.425 0 0  -1.4125 0 0  -1.4 0 0  -1.3875 0 0  -1.375 0 0  -1.3625 0 0  -1.35 0 0  -1.3375 0 0  -1.325 0 0  -1.3125 0 0  -1.3 0 0  -1.2875 0 0  -1.275 0 0  -1.2625 0 0  -1.25 0 0  -1.2375 0 0  -1.225 0 0  -1.2125 0 0  -1.2 0 0  -1.1875 0 0  -1.175 0 0  -1.1625 0 0  -1.15 0 0  -1.1375 0 0  -1.125 0 0  -1.1125 0 0  -1.1 0 0  -1.0875 0 0  -1.075 0 0  -1.0625 0 0  -1.05 0 0  -1.0375 0 0  -1.025 0 0  -1.0125 0 0  -1 0 0  -0.9874999999999998 0 0  -0.9749999999999996 0 0  -0.9625000000000004 0 0  -0.9500000000000002 0 0  -0.9375 0 0  -0.9249999999999998 0 0  -0.9124999999999996 0 0  -0.9000000000000004 0 0  -0.8875000000000002 0 0  -0.875 0 0  -0.8624999999999998 0 0  -0.8499999999999996 0 0  -0.8375000000000004 0 0  -0.8250000000000002 0 0  -0.8125 0 0  -0.7999999999999998 0 0  -0.7874999999999996 0 0  -0.7750000000000004 0 0  -0.7625000000000002 0 0  -0.75 0 0  -0.7374999999999998 0 0  -0.7249999999999996 0 0  -0.7125000000000004 0 0  -0.7000000000000002 0 0  -0.6875 0 0  -0.6749999999999998 0 0  -0.6624999999999996 0 0  -0.6500000000000004 0 0  -0.6375000000000002 0 0  -0.625 0 0  -0.6124999999999998 0 0  -0.5999999999999996 0 0  -0.5875000000000004 0 0  -0.5750000000000002 0 0  -0.5625 0 0  -0.5499999999999998 0 0  -0.5374999999999996 0 0  -0.5250000000000004 0 0  -0.5125000000000002 0 0  -0.5 0 0  -0.4874999999999998 0 0  -0.4749999999999996 0 0  -0.4625000000000004 0 0  -0.4500000000000002 0 0  -0.4375 0 0  -0.4249999999999998 0 0  -0.4124999999999996 0 0  -0.4000000000000004 0 0  -0.3875000000000002 0 0  -0.375 0 0  -0.3624999999999998 0 0  -0.3499999999999996 0 0  -0.3375000000000004 0 0  -0.3250000000000002 0 0  -0.3125 0 0  -0.2999999999999998 0 0  -0.2874999999999996 0 0  -0.2750000000000004 0 0  -0.2625000000000002 0 0  -0.25 0 0  -0.2374999999999998 0 0  -0.2249999999999996 0 0  -0.2125000000000004 0 0  -0.2000000000000002 0 0  -0.1875 0 0  -0.1749999999999998 0 0  -0.1624999999999996 0 0  -0.1500000000000004 0 0  -0.1375000000000002 0 0  -0.125 0 0  -0.1124999999999998 0 0  -0.09999999999999964 0 0  -0.08750000000000036 0 0  -0.07500000000000018 0 0  -0.0625 0 0  -0.04999999999999982 0 0  -0.03749999999999964 0 0  -0.02500000000000036 0 0  -0.01250000000000018 0 0  0 0 0  0.01250000000000018 0 0  0.02500000000000036 0 0  0.03749999999999964 0 0  0.04999999999999982 0 0  0.0625 0 0  0.07500000000000018 0 0  0.08750000000000036 0 0  0.09999999999999964 0 0  0.1124999999999998 0 0  0.125 0 0  0.1375000000000002 0 0  0.1500000000000004 0 0  0.1624999999999996 0 0  0.1749999999999998 0 0  0.1875 0 0  0.2000000000000002 0 0  0.2125000000000004 0 0  0.2249999999999996 0 0  0.2374999999999998 0 0  0.25 0 0  0.2625000000000002 0 0  0.2750000000000004 0 0  0.2874999999999996 0 0  0.2999999999999998 0 0  0.3125 0 0  0.3250000000000002 0 0  0.3375000000000004 0 0  0.3499999999999996 0 0  0.3624999999999998 0 0  0.375 0 0  0.3875000000000002 0 0  0.4000000000000004 0 0  0.4124999999999996 0 0  0.4249999999999998 0 0  0.4375 0 0  0.4500000000000002 0 0  0.4625000000000004 0 0  0.4749999999999996 0 0  0.4874999999999998 0 0  0.5 0 0  0.5125000000000002 0 0  0.5250000000000004 0 0  0.5374999999999996 0 0  0.5499999999999998 0 0  0.5625 0 0  0.5750000000000002 0 0  0.5875000000000004 0 0  0.5999999999999996 0 0  0.6124999999999998 0 0  0.625 0 0  0.6375000000000002 0 0  0.6500000000000004 0 0  0.6624999999999996 0 0  0.6749999999999998 0 0  0.6875 0 0  0.7000000000000002 0 0  0.7125000000000004 0 0  0.7249999999999996 0 0  0.7374999999999998 0 0  0.75 0 0  0.7625000000000002 0 0  0.7750000000000004 0 0  0.7874999999999996 0 0  0.7999999999999998 0 0  0.8125 0 0  0.8250000000000002 0 0  0.8375000000000004 0 0  0.8499999999999996 0 0  0.8624999999999998 0 0  0.875 0 0  0.8875000000000002 0 0  0.9000000000000004 0 0  0.9124999999999996 0 0  0.9249999999999998 0 0  0.9375 0 0  0.9500000000000002 0 0  0.9625000000000004 0 0  0.9749999999999996 0 0  0.9874999999999998 0 0  1 0 0  1.0125 0 0  1.025 0 0  1.0375 0 0  1.05 0 0  1.0625 0 0  1.075 0 0  1.0875 0 0  1.1 0 0  1.1125 0 0  1.125 0 0  1.1375 0 0  1.15 0 0  1.1625 0 0  1.175 0 0  1.1875 0 0  1.2 0 0  1.2125 0 0  1.225 0 0  1.2375 0 0  1.25 0 0  1.2625 0 0  1.275 0 0  1.2875 0 0  1.3 0 0  1.3125 0 0  1.325 0 0  1.3375 0 0  1.35 0 0  1.3625 0 0  1.375 0 0  1.3875 0 0  1.4 0 0  1.4125 0 0  1.425 0 0  1.4375 0 0  1.45 0 0  1.4625 0 0  1.475 0 0  1.4875 0 0  1.5 0 0  1.5125 0 0  1.525 0 0  1.5375 0 0  1.55 0 0  1.5625 0 0  1.575 0 0  1.5875 0 0  1.6 0 0  1.6125 0 0  1.625 0 0  1.6375 0 0  1.65 0 0  1.6625 0 0  1.675 0 0  1.6875 0 0  1.7 0 0  1.7125 0 0  1.725 0 0  1.7375 0 0  1.75 0 0  1.7625 0 0  1.775 0 0  1.7875 0 0  1.8 0 0  1.8125 0 0  1.825 0 0  1.8375 0 0  1.85 0 0  1.8625 0 0  1.875 0 0  1.8875 0 0  1.9 0 0  1.9125 0 0  1.925 0 0  1.9375 0 0  1.95 0 0  1.9625 0 0  1.975 0 0  1.9875 0 0  2 0 0  2.0125 0 0  2.025 0 0  2.0375 0 0  2.05 0 0  2.0625 0 0  2.075 0 0  2.0875 0 0  2.1 0 0  2.1125 0 0  2.125 0 0  2.1375 0 0  2.15 0 0  2.1625 0 0  2.175 0 0  2.1875 0 0  2.2 0 0  2.2125 0 0  2.225 0 0  2.2375 0 0  2.25 0 0  2.2625 0 0  2.275 0 0  2.2875 0 0  2.3 0 0  2.3125 0 0  2.325 0 0  2.3375 0 0  2.35 0 0  2.3625 0 0  2.375 0 0  2.3875 0 0  2.4 0 0  2.4125 0 0  2.425 0 0  2.4375 0 0  2.45 0 0  2.4625 0 0  2.475 0 0  2.4875 0 0  2.5 0 0  2.5125 0 0  2.525 0 0  2.5375 0 0  2.55 0 0  2.5625 0 0  2.575 0 0  2.5875 0 0  2.6 0 0  2.6125 0 0  2.625 0 0  2.6375 0 0  2.65 0 0  2.6625 0 0  2.675 0 0  2.6875 0 0  2.7 0 0  2.7125 0 0  2.725 0 0  2.7375 0 0  2.75 0 0  2.7625 0 0  2.775 0 0  2.7875 0 0  2.8 0 0  2.8125 0 0  2.825 0 0  2.8375 0 0  2.85 0 0  2.8625 0 0  2.875 0 0  2.8875 0 0  2.9 0 0  2.9125 0 0  2.925 0 0  2.9375 0 0  2.95 0 0  2.9625 0 0  2.975 0 0  2.9875 0 0  3 0 0  3.012499999999999 0 0  3.025 0 0  3.0375 0 0  3.050000000000001 0 0  3.0625 0 0  3.074999999999999 0 0  3.0875 0 0  3.1 0 0  3.112500000000001 0 0  3.125 0 0  3.137499999999999 0 0  3.15 0 0  3.1625 0 0  3.175000000000001 0 0  3.1875 0 0  3.199999999999999 0 0  3.2125 0 0  3.225 0 0  3.237500000000001 0 0  3.25 0 0  3.262499999999999 0 0  3.275 0 0  3.2875 0 0  3.300000000000001 0 0  3.3125 0 0  3.324999999999999 0 0  3.3375 0 0  3.35 0 0  3.362500000000001 0 0  3.375 0 0  3.387499999999999 0 0  3.4 0 0  3.4125 0 0  3.425000000000001 0 0  3.4375 0 0  3.449999999999999 0 0  3.4625 0 0  3.475 0 0  3.4875
[...]
<PointData  Vectors="(h, u)"> 
<DataArray  type="Float64"  Name="(h, u)"  NumberOfComponents="3" format="ascii">1.3271701866578978e-01 0.0000000000000000e+00 0.0000000000000000e+00  1.2203249364668675e-01 8.5439736841150006e-03 0.0000000000000000e+00  1.3271137360581164e-01 1.3599657434507459e-03 0.0000000000000000e+00  1.2203725456090041e-01 2.5368314009873442e-02 0.0000000000000000e+00  1.3268306888258694e-01 3.2294290775865646e-03 0.0000000000000000e+00  1.2206925909256229e-01 4.1421170728953516e-02 0.0000000000000000e+00  1.3260258188027194e-01 6.0726700640333043e-03 0.0000000000000000e+00  1.2216411674041372e-01 5.6256920474288936e-02 0.0000000000000000e+00  1.3243409938523806e-01 1.0263315607448765e-02 0.0000000000000000e+00  1.2235608255611946e-01 6.9542811331260224e-02 0.0000000000000000e+00  1.3214976530703912e-01 1.6039739525373235e-02 0.0000000000000000e+00  1.2266464278259223e-01 8.1110306142784666e-02 0.0000000000000000e+00  1.3174055938613333e-01 2.3467239055423288e-02 0.0000000000000000e+00  1.2308723365463260e-01 9.0992284352154493e-02 0.0000000000000000e+00  1.3121983803650358e-01 3.2418982949926720e-02 0.0000000000000000e+00  1.2359998688935947e-01 9.9429265688103924e-02 0.0000000000000000e+00  1.3061916518568967e-01 4.2588385312758929e-02 0.0000000000000000e+00  1.2416500170233988e-01 1.0683238631181585e-01 0.0000000000000000e+00  1.2997941066088006e-01 5.3538939040236259e-02 0.0000000000000000e+00  1.2474035138700147e-01 1.1370359497623005e-01 0.0000000000000000e+00  1.2934130260081991e-01 6.4787458672643169e-02 0.0000000000000000e+00  1.2528857840968805e-01 1.2053128416445043e-01 0.0000000000000000e+00  1.2873859623364584e-01 7.5904856487379768e-02 0.0000000000000000e+00  1.2578109909404139e-01 1.2769102160334200e-01 0.0000000000000000e+00  1.2819518174324557e-01 8.6605896076438996e-02 0.0000000000000000e+00  1.2619871369119437e-01 1.3537908379957478e-01 0.0000000000000000e+00  1.2772576189334892e-01 9.6795548272898199e-02 0.0000000000000000e+00  1.2653009790872380e-01 1.4359692616354452e-01 0.0000000000000000e+00  1.2733828011110934e-01 1.0655552876212493e-01 0.0000000000000000e+00  1.2676983726637270e-01 1.5219261304352213e-01 0.0000000000000000e+00  1.2703581691414573e-01 1.1608135205061119e-01 0.0000000000000000e+00  1.2691685332001360e-01 1.6094535345301730e-01 0.0000000000000000e+00  1.2681704671665711e-01 1.2559617889056424e-01 0.0000000000000000e+00  1.2697408519242059e-01 1.6965624948551708e-01 0.0000000000000000e+00  1.2667605114524483e-01 1.3527017674591890e-01 0.0000000000000000e+00  1.2694963849869628e-01 1.7820631899720735e-01 0.0000000000000000e+00  1.2660203553221580e-01 1.4517489809734480e-01 0.0000000000000000e+00  1.2685787827619346e-01 1.8656856979218941e-01 0.0000000000000000e+00  1.2657858854238627e-01 1.5529263486262809e-01 0.0000000000000000e+00  1.2671886911060343e-01 1.9478364973293621e-01 0.0000000000000000e+00  1.2658331557782848e-01 1.6556694423878629e-01 0.0000000000000000e+00  1.2655672577181190e-01 2.0291127877371398e-01 0.0000000000000000e+00  1.2658996304556272e-01 1.7595231342526041e-01 0.0000000000000000e+00  1.2639767165007038e-01 2.1097811949241085e-01 0.0000000000000000e+00  1.2657290344281888e-01 1.8643732242805675e-01 0.0000000000000000e+00  1.2626627753026526e-01 2.1895981300583642e-01 0.0000000000000000e+00  1.2651130863545829e-01 1.9704636354361912e-01 0.0000000000000000e+00  1.2617936975136287e-01 2.2681377547280715e-01 0.0000000000000000e+00  1.2639250156135912e-01 2.0781902153370263e-01 0.0000000000000000e+00  1.2614158366438119e-01 2.3452594469680613e-01 0.0000000000000000e+00  1.2621602808298227e-01 2.1875945866151880e-01 0.0000000000000000e+00  1.2614563228569306e-01 2.4213299597414911e-01 0.0000000000000000e+00  1.2599587486148256e-01 2.2979001935453894e-01 0.0000000000000000e+00  1.2617425603707488e-01 2.4973326606633317e-01 0.0000000000000000e+00  1.2575610463423731e-01 2.4076184969551048e-01 0.0000000000000000e+00  1.2620180308946469e-01 2.5749547999984940e-01 0.0000000000000000e+00  1.2552287579919824e-01 2.5150352155180866e-01 0.0000000000000000e+00  1.2619991137582892e-01 2.6562319679510177e-01 0.0000000000000000e+00  1.2532032250493488e-01 2.6184455998959555e-01 0.0000000000000000e+00  1.2614740301890082e-01 2.7427488373898318e-01 0.0000000000000000e+00  1.2516834702940985e-01 2.7163089638518134e-01 0.0000000000000000e+00  1.2603451079287972e-01 2.8352810924580435e-01 0.0000000000000000e+00  1.2507601416434852e-01 2.8078605048909738e-01 0.0000000000000000e+00  1.2585899659219396e-01 2.9341010243552124e-01 0.0000000000000000e+00  1.2503739645053563e-01 2.8935519676756638e-01 0.0000000000000000e+00  1.2562606645310534e-01 3.0389010228773783e-01 0.0000000000000000e+00  1.2503903945199876e-01 2.9744891717324767e-01 0.0000000000000000e+00  1.2535351953267881e-01 3.1482231664214333e-01 0.0000000000000000e+00  1.2506731150704203e-01 3.0518813017358304e-01 0.0000000000000000e+00  1.2506645238231345e-01 3.2598115811491907e-01 0.0000000000000000e+00  1.2510290204269103e-01 3.1276031753791939e-01 0.0000000000000000e+00  1.2478388434237424e-01 3.3717207054285930e-01 0.0000000000000000e+00  1.2511916668860704e-01 3.2043641733421607e-01 0.0000000000000000e+00  1.2452059609165163e-01 3.4821581783509120e-01 0.0000000000000000e+00  1.2509785589029107e-01 3.2842661894126279e-01 0.0000000000000000e+00  1.2429762211645511e-01 3.5886493121156510e-01 0.0000000000000000e+00  1.2503565502187752e-01 3.3681236567889294e-01 0.0000000000000000e+00  1.2413043985211132e-01 3.6892248091936342e-01 0.0000000000000000e+00  1.2492757179628194e-01 3.4568275332829357e-01 0.0000000000000000e+00  1.2401162994975695e-01 3.7840992498574028e-01 0.0000000000000000e+00  1.2476640792638452e-01 3.5512953184950818e-01 0.0000000000000000e+00  1.2392859452118726e-01 3.8742079189710243e-01 0.0000000000000000e+00  1.2456734005310746e-01 3.6502263727323958e-01 0.0000000000000000e+00  1.2388283792204452e-01 3.9595214522719413e-01 0.0000000000000000e+00  1.2435923572288535e-01 3.7508886207589848e-01 0.0000000000000000e+00  1.2386372827345747e-01 4.0412965946118917e-01 0.0000000000000000e+00  1.2414795520189065e-01 3.8524600597653025e-01 0.0000000000000000e+00  1.2383824545918951e-01 4.1228725630174962e-01 0.0000000000000000e+00  1.2393354070455471e-01 3.9545788092029843e-01 0.0000000000000000e+00  1.2379884789753752e-01 4.2053287721922988e-01 0.0000000000000000e+00  1.2374527476620563e-01 4.0542925382710215e-01 0.0000000000000000e+00  1.2376365279012351e-01 4.2873930243053088e-01 0.0000000000000000e+00  1.2359601006374374e-01 4.1501928588051284e-01 0.0000000000000000e+00  1.2371596647324133e-01 4.3707716653797246e-01 0.0000000000000000e+00  1.2345517888634748e-01 4.2448407091216894e-01 0.0000000000000000e+00  1.2363727859226956e-01 4.4572333257293517e-01 0.0000000000000000e+00  1.2332658184483311e-01 4.3378010600608097e-01 0.0000000000000000e+00  1.2356667144385265e-01 4.5433659165152318e-01 0.0000000000000000e+00  1.2323876985408956e-01 4.4264793107724038e-01 0.0000000000000000e+00  1.2351336985896900e-01 4.6283701858715159e-01 0.0000000000000000e+00  1.2315257693212905e-01 4.5143706528622712e-01 0.0000000000000000e+00  1.2343677512629665e-01 4.7158347912425436e-01 0.0000000000000000e+00  1.2304881076175121e-01 4.6032314660387985e-01 0.0000000000000000e+00  1.2337379340617373e-01 4.8023911675656800e-01 0.0000000000000000e+00  1.2298048883442567e-01 4.6884514332680494e-01 0.0000000000000000e+00  1.2335142483193974e-01 4.8854469241373299e-01 0.0000000000000000e+00  1.2291338232611732e-01 4.7733622767047296e-01 0.0000000000000000e+00  1.2330186642679949e-01 4.9706888727575860e-01 0.0000000000000000e+00  1.2281532969198748e-01 4.8612767346491859e-01 0.0000000000000000e+00  1.2326099537764261e-01 5.0544019038470767e-01 0.0000000000000000e+00  1.2276730281506583e-01 4.9455477617424554e-01 0.0000000000000000e+00  1.2326186867373054e-01 5.1330003910609012e-01 0.0000000000000000e+00  1.2272344147342644e-01 5.0309704648175091e-01 0.0000000000000000e+00  1.2320815528381929e-01 5.2143843267105572e-01 0.0000000000000000e+00  1.2265548568415420e-01 5.1207242963716071e-01 0.0000000000000000e+00  1.2316680024670484e-01 5.2920084821036839e-01 0.0000000000000000e+00  1.2266797089668038e-01 5.2059318451462666e-01 0.0000000000000000e+00  1.2314845475043322e-01 5.3645966341086304e-01 0.0000000000000000e+00  1.2266133937501499e-01 5.2956841165897606e-01 0.0000000000000000e+00  1.2304844222138799e-01 5.4414804154689789e-01 0.0000000000000000e+00  1.2265971664574528e-01 5.3876293150357391e-01 0.0000000000000000e+00  1.2300340669099928e-01 5.5108300298741164e-01 0.0000000000000000e+00  1.2274191192892223e-01 5.4742110843138025e-01 0.0000000000000000e+00  1.2293002945601508e-01 5.5807265897349811e-01 0.0000000000000000e+00  1.2274803193546932e-01 5.5689865474059996e-01 0.0000000000000000e+00  1.2281016196477199e-01 5.6535884231567501e-01 0.0000000000000000e+00  1.2283044501471012e-01 5.6574954737959282e-01 0.0000000000000000e+00  1.2278286958065789e-01 5.7178131999363169e-01 0.0000000000000000e+00  1.2290396149488156e-01 5.7466061644467159e-01 0.0000000000000000e+00  1.2264763968937697e-01 5.7920122516197003e-01 0.0000000000000000e+00  1.2292339369414450e-01 5.8397203275662091e-01 0.0000000000000000e+00  1.2260617681780012e-01 5.8586904960468489e-01 0.0000000000000000e+00  1.2305250085842705e-01 5.9217862276822952e-01 0.0000000000000000e+00  1.2253689570962262e-01 5.9290776611160034e-01 0.0000000000000000e+00  1.2303653441715195e-01 6.0152732513339269e-01 0.0000000000000000e+00  1.2243973416250470e-01 6.0034052352466871e-01 0.0000000000000000e+00  1.2315254835239778e-01 6.0952431441210331e-01 0.0000000000000000e+00  1.2245571310437653e-01 6.0692323584105645e-01 0.0000000000000000e+00  1.2316054291174097e-01 6.1830067748253048e-01 0.0000000000000000e+00  1.2232123873073729e-01 6.1502598076462034e-01 0.0000000000000000e+00  1.2320596439925956e-01 6.2654391092495276e-01 0.0000000000000000e+00  1.2238833658609838e-01 6.2151009627333975e-01 0.0000000000000000e+00  1.2326756207858948e-01 6.3443934573995497e-01 0.0000000000000000e+00  1.2226320130092931e-01 6.2990329402705258e-01 0.0000000000000000e+00  1.2322686922126509e-01 6.4304186959906096e-01 0.0000000000000000e+00  1.2233903239758324e-01 6.3668174510521525e-01 0.0000000000000000e+00  1.2333799481434568e-01 6.5009686841941283e-01 0.0000000000000000e+00  1.2225631266632540e-01 6.4504691166686667e-01 0.0000000000000000e+00  1.2322529160439048e-01 6.5897761544939770e-01 0.0000000000000000e+00  1.2231415860186239e-01 6.5229302846856541e-01 0.0000000000000000e+00  1.2337372425614689e-01 6.6538848214454027e-01 0.0000000000000000e+00  1.2227927057615699e-01 6.6047645399209132e-01 0.0000000000000000e+00  1.2320920967754921e-01 6.7448672281829014e-01 0.0000000000000000e+00  1.2231084996245369e-01 6.6813616484505922e-01 0.0000000000000000e+00  1.2339358911904405e-01 6.8039665131168825e-01 0.0000000000000000e+00  1.2231191796029982e-01 6.7611635646038237e-01 0.0000000000000000e+00  1.2318783984409479e-01 6.8973665753320745e-01 0.0000000000000000e+00  1.2232081282690489e-01 6.8405311290260573e-01 0.0000000000000000e+00  1.2340762395359356e-01 6.9523757735366121e-01 0.0000000000000000e+00  1.2233041891583964e-01 6.9200757304544591e-01 0.0000000000000000e+00  1.2316795708987541e-01 7.0480291685658802e-01 0.0000000000000000e+00  1.2235714203849836e-01 6.9982736990763383e-01 0.0000000000000000e+00  1.2343438789317160e-01 7.0981388113419686e-01 0.0000000000000000e+00  1.2232410856066969e-01 7.0820283354739733e-01 0.0000000000000000e+00  1.2315474155780018e-01 7.1966867633479248e-01 0.0000000000000000e+00  1.2241942786571937e-01 7.1543675847282440e-01 0.0000000000000000e+00  1.2345785785517904e-01 7.2430607423011550e-01 0.0000000000000000e+00  1.2225971525943524e-01 7.2494024040863270e-01 0.0000000000000000e+00  1.2316899798750100e-01 7.3424101579401357e-01 0.0000000000000000e+00  1.2249208408134736e-01 7.3088771312593703e-01 0.0000000000000000e+00  1.2346572994979935e-01 7.3900136898974933e-01 0.0000000000000000e+00  1.2215639419663010e-01 7.4182704196721383e-01 0.0000000000000000e+00  1.2333857788822528e-01 7.4763736285281024e-01 0.0000000000000000e+00  1.2256019018649893e-01 7.4602774995696597e-01 0.0000000000000000e+00  1.2342838354262936e-01 7.5446659328086829e-01 0.0000000000000000e+00  1.2200834770344364e-01 7.5861661748743514e-01 0.0000000000000000e+00  1.2365129404892056e-01 7.6024465252616724e-01 0.0000000000000000e+00  1.2240919635789835e-01 7.6253549091496953e-01 0.0000000000000000e+00  1.2335683894310705e-01 7.7078227050003378e-01 0.0000000000000000e+00  1.2201287474739614e-01 7.7343842192010304e-01 0.0000000000000000e+00  1.2407393863821349e-01 7.7238482234173356e-01 0.0000000000000000e+00  1.2193992310977315e-01 7.8136078508380225e-01 0.0000000000000000e+00  1.2351154414116554e-01 7.8546658183642615e-01 0.0000000000000000e+00  1.2220157785803279e-01 7.8625577777858680e-01 0.0000000000000000e+00  1.2412329432241721e-01 7.8805296082891529e-01 0.0000000000000000e+00  1.2132683456028984e-01 8.0133487387154856e-01 0.0000000000000000e+00  1.2418672343148562e-01 7.9545244914772550e-01 0.0000000000000000e+00  1.2213287624856184e-01 8.0148659000078948e-01 0.0000000000000000e+00  1.2372377145579228e-01 8.0744118838935419e-01 0.0000000000000000e+00  1.2158413956448973e-01 8.1385864702029631e-01 0.0000000000000000e+00  1.2491100228098410e-01 8.0455240156027241e-01 0.0000000000000000e+00  1.2127842901312515e-01 8.2418723632223556e-01 0.0000000000000000e+00  1.2408241444473657e-01 8.1952682669058086e-01 0.0000000000000000e+00  1.2244167730843589e-01 8.2151498688812030e-01 0.0000000000000000e+00  1.2401474729951108e-01 8.2758441551182127e-01 0.0000000000000000e+00  1.2123026439017028e-01 8.4016114292208410e-01 0.0000000000000000e+00  1.2519297205838756e-01 8.2440418323631492e-01 0.0000000000000000e+00  1.2138954426157447e-01 8.4665019112568451e-01 0.0000000000000000e+00  1.2351894966270804e-01 8.4662007098984371e-01 0.0000000000000000e+00  1.2309911283105238e-01 8.3932362192720134e-01 0.0000000000000000e+00  1.2332067381660514e-01 8.5558909791528459e-01 0.0000000000000000e+00  1.2156104718926301e-01 8.6108540559080005e-01 0.0000000000000000e+00  1.2509095726711855e-01 8.4691129074118299e-01 0.0000000000000000e+00  1.2145200345690819e-01 8.7013897976217358e-01 0.0000000000000000e+00  1.2303923016327600e-01 8.7230373495292857e-01 0.0000000000000000e+00  1.2445001211454092e-01 8.5146518612729982e-01 0.0000000000000000e+00  1.2127443344323202e-01 8.9501457077166835e-01 0.0000000000000000e+00  1.2365709818327449e-01 8.6673920634681012e-01 0.0000000000000000e+00  1.2410663310779092e-01 8.7668643593984819e-01 0.0000000000000000e+00  1.2091887433975998e-01 8.9942561068108839e-01 0.0000000000000000e+00  1.2462349618119876e-01 8.7894229612127461e-01 0.0000000000000000e+00  1.2346611696998061e-01 8.8496785588293847e-01 0.0000000000000000e+00  1.2010451951246481e-01 9.2615638936381384e-01 0.0000000000000000e+00  1.2756315608928542e-01 8.5644955474826856e-01 0.0000000000000000e+00  1.1838933675726215e-01 9.4843105790719262e-01 0.0000000000000000e+00  1.2582256627853464e-01 8.8006060578088752e-01 0.0000000000000000e+00  1.2325733479829781e-01 9.1225770570896991e-01 0.0000000000000000e+00  1.1993467706546035e-01 9.4035540904378445e-01 0.0000000000000000e+00  1.2810085495216031e-01 8.7651951645611548e-01 0.0000000000000000e+00  1.1755648122956874e-01 9.6883055807126761e-01 0.0000000000000000e+00  1.2718727388472034e-01 8.9285327315860519e-01 0.0000000000000000e+00  1.2152145873369392e-01 9.4003718833721284e-01 0.0000000000000000e+00  1.2162982128454733e-01 9.5141962790559187e-01 0.0000000000000000e+00  1.2742818272532266e-01 8.9284479357087632e-01 0.0000000000000000e+00  1.1620913946541468e-01 1.0098011669724716e+00 0.0000000000000000e+00  1.3084047661548359e-01 8.6653653557534871e-01 0.0000000000000000e+00  1.1414279024512564e-01 1.0397001155621945e+00 0.0000000000000000e+00  1.3112441885578263e-01 8.6669033571097409e-01 0.0000000000000000e+00  1.1511360404517443e-01 1.0441796593706481e+00 0.0000000000000000e+00  1.2954746891671992e-01 8.8156163674311538e-01 0.0000000000000000e+00  1.1746310201842050e-01 1.0385327111976719e+00 0.0000000000000000e+00  1.2733425496732445e-01 8.9963484943444449e-01 0.0000000000000000e+00  1.1999490232889949e-01 1.0339598538227672e+00 0.0000000000000000e+00  1.2516505504777400e-01 9.1431357285141945e-01 0.0000000000000000e+00  1.2224295381679530e-01 1.0350511474160584e+00 0.0000000000000000e+00  1.2325275538915244e-01 9.2325012945778029e-01 0.0000000000000000e+00  1.2417318921272767e-01 1.0424189292594623e+00 0.0000000000000000e+00  1.2157480766014729e-01 9.2634174782603362e-01 0.0000000000000000e+00  1.2587725636906294e-01 1.0553385439018326e+00 0.0000000000000000e+00  1.2007033959721321e-01 9.2411128576919332e-01 0.0000000000000000e+00  1.2740761688384600e-01 1.0730838797134705e+00 0.0000000000000000e+00  1.1872696203234326e-01 9.1709731227765456e-01 0.0000000000000000e+00  1.2874997040042621e-01 1.0950356319571333e+00 0.0000000000000000e+00  1.1757966636131184e-01 9.0601224245220124e-01 0.0000000000000000e+00  1.2985116890644460e-01 1.1203340443993206e+00 0.0000000000000000e+00  1.1666297379085584e-01 8.9225992061504700e-01 0.0000000000000000e+00  1.3067021606581833e-01 1.1474125290103043e+00 0.0000000000000000e+00  1.1599437457130046e-01 8.7806223824728935e-01 0.0000000000000000e+00  1.3121347869217848e-01 1.1738013392928035e+00 0.0000000000000000e+00  1.1557297132694720e-01 8.6628803903648988e-01 0.0000000000000000e+00  1.3150979898031720e-01 1.1966104817237448e+00 0.0000000000000000e+00  1.1545512539055512e-01 8.5939169137213911e-01 0.0000000000000000e+00  1.3162105314047232e-01 1.2128416425519253e+00 0.0000000000000000e+00  1.1584879393549143e-01 8.5800456802567693e-01 0.0000000000000000e+00  1.3145139112617327e-01 1.2215581468478152e+00 0.0000000000000000e+00  1.1715445930092994e-01 8.5995267504543382e-01 0.0000000000000000e+00  1.3085572035639956e-01 1.2234012267076033e+00 0.0000000000000000e+00  1.1967115435243879e-01 8.6242457871040534e-01 0.0000000000000000e+00  1.2988792378854852e-01 1.2187281248273520e+00 0.0000000000000000e+00  1.2433021824083418e-01 8.5519445711648112e-01 0.0000000000000000e+00  1.2451170430284936e-01 1.2456171050986826e+00 0.0000000000000000e+00  1.3153335204847444e-01 8.3096396057372057e-01 0.0000000000000000e+00  1.1257112963114684e-01 1.3293423431446596e+00 0.0000000000000000e+00  1.2250154720266332e-01 9.5371465016798629e-01 0.0000000000000000e+00  1.2038646759776445e-01 1.2359788548847590e+00 0.0000000000000000e+00  1.2185537103044002e-01 9.9610728662982351e-01 0.0000000000000000e+00  1.2204186358406012e-01 1.2052164806299042e+00 0.0000000000000000e+00  1.2156377292348179e-01 1.0265532633406458e+00 0.0000000000000000e+00  1.2498956546881308e-01 1.1716879909564841e+00 0.0000000000000000e+00  1.1749451486859547e-01 1.0801756295476663e+00 0.0000000000000000e+00  1.2773568671175511e-01 1.1500631756132980e+00 0.0000000000000000e+00  1.1975114888864906e-01 1.0668069800929401e+00 0.0000000000000000e+00  1.2396620470646821e-01 1.1952805451903885e+00 0.0000000000000000e+00  1.2692103152223899e-01 1.0021312325346112e+00 0.0000000000000000e+00  1.1968662354850693e-01 1.2503801116993238e+00 0.0000000000000000e+00  1.3133548322212482e-01 9.5881257334866576e-01 0.0000000000000000e+00  1.1891678166315146e-01 1.2745465076542803e+00 0.0000000000000000e+00  1.1834199379940220e-01 1.0725739997822619e+00 0.0000000000000000e+00  1.3380586168880901e-01 1.1547710968701381e+00 0.0000000000000000e+00  1.0966234975849676e-01 1.1540971254558621e+00 0.0000000000000000e+00  1.3114558382852631e-01 1.1852536512573244e+00 0.0000000000000000e+00  1.2541194460208951e-01 1.0243800477239011e+00 0.0000000000000000e+00  1.1918569798805022e-01 1.2926596366276002e+00 0.0000000000000000e+00  1.3946364256487312e-01 9.1924730338799221e-01 0.0000000000000000e+00  1.153967