<?xml version="1.0"?>
<VTKFile type="UnstructuredGrid"  version="0.1"  >
<UnstructuredGrid>
<Piece  NumberOfPoints="801" NumberOfCells="800">
<Points>
<DataArray  type="Float64"  NumberOfComponents="3"  format="ascii">-5 0 0  -4.9875 0 0  -4.975 0 0  -4.9625 0 0  -4.95 0 0  -4.9375 0 0  -4.925 0 0  -4.9125 0 0  -4.9 0 0  -4.8875 0 0  -4.875 0 0  -4.8625 0 0  -4.85 0 0  -4.8375 0 0  -4.825 0 0  -4.8125 0 0  -4.8 0 0  -4.7875 0 0  -4.775 0 0  -4.7625 0 0  -4.75 0 0  -4.7375 0 0  -4.725 0 0  -4.7125 0 0  -4.7 0 0  -4.6875 0 0  -4.675 0 0  -4.6625 0 0  -4.65 0 0  -4.6375 0 0  -4.625 0 0  -4.6125 0 0  -4.6 0 0  -4.5875 0 0  -4.575 0 0  -4.5625 0 0  -4.55 0 0  -4.5375 0 0  -4.525 0 0  -4.5125 0 0  -4.5 0 0  -4.4875 0 0  -4.475 0 0  -4.4625 0 0  -4.45 0 0  -4.4375 0 0  -4.425 0 0  -4.4125 0 0  -4.4 0 0  -4.3875 0 0  -4.375 0 0  -4.3625 0 0  -4.35 0 0  -4.3375 0 0  -4.325 0 0  -4.3125 0 0  -4.3 0 0  -4.2875 0 0  -4.275 0 0  -4.2625 0 0  -4.25 0 0  -4.2375 0 0  -4.225 0 0  -4.2125 0 0  -4.2 0 0  -4.1875 0 0  -4.175 0 0  -4.1625 0 0  -4.15 0 0  -4.1375 0 0  -4.125 0 0  -4.1125 0 0  -4.1 0 0  -4.0875 0 0  -4.075 0 0  -4.0625 0 0  -4.05 0 0  -4.0375 0 0  -4.025 0 0  -4.0125 0 0  -4 0 0  -3.9875 0 0  -3.975 0 0  -3.9625 0 0  -3.95 0 0  -3.9375 0 0  -3.925 0 0  -3.9125 0 0  -3.9 0 0  -3.8875 0 0  -3.875 0 0  -3.8625 0 0  -3.85 0 0  -3.8375 0 0  -3.825 0 0  -3.8125 0 0  -3.8 0 0  -3.7875 0 0  -3.775 0 0  -3.7625 0 0  -3.75 0 0  -3.7375 0 0  -3.725 0 0  -3.7125 0 0  -3.7 0 0  -3.6875 0 0  -3.675 0 0  -3.6625 0 0  -3.65 0 0  -3.6375 0 0  -3.625 0 0  -3.6125 0 0  -3.6 0 0  -3.5875 0 0  -3.575 0 0  -3.5625 0 0  -3.55 0 0  -3.5375 0 0  -3.525 0 0  -3.5125 0 0  -3.5 0 0  -3.4875 0 0  -3.475 0 0  -3.4625 0 0  -3.45 0 0  -3.4375 0 0  -3.425 0 0  -3.4125 0 0  -3.4 0 0  -3.3875 0 0  -3.375 0 0  -3.3625 0 0  -3.35 0 0  -3.3375 0 0  -3.325 0 0  -3.3125 0 0  -3.3 0 0  -3.2875 0 0  -3.275 0 0  -3.2625 0 0  -3.25 0 0  -3.2375 0 0  -3.225 0 0  -3.2125 0 0  -3.2 0 0  -3.1875 0 0  -3.175 0 0  -3.1625 0 0  -3.15 0 0  -3.1375 0 0  -3.125 0 0  -3.1125 0 0  -3.1 0 0  -3.0875 0 0  -3.075 0 0  -3.0625 0 0  -3.05 0 0  -3.0375 0 0  -3.025 0 0  -3.0125 0 0  -3 0 0  -2.9875 0 0  -2.975 0 0  -2.9625 0 0  -2.95 0 0  -2.9375 0 0  -2.925 0 0  -2.9125 0 0  -2.9 0 0  -2.8875 0 0  -2.875 0 0  -2.8625 0 0  -2.85 0 0  -2.8375 0 0  -2.825 0 0  -2.8125 0 0  -2.8 0 0  -2.7875 0 0  -2.775 0 0  -2.7625 0 0  -2.75 0 0  -2.7375 0 0  -2.725 0 0  -2.7125 0 0  -2.7 0 0  -2.6875 0 0  -2.675 0 0  -2.6625 0 0  -2.65 0 0  -2.6375 0 0  -2.625 0 0  -2.6125 0 0  -2.6 0 0  -2.5875 0 0  -2.575 0 0  -2.5625 0 0  -2.55 0 0  -2.5375 0 0  -2.525 0 0  -2.5125 0 0  -2.5 0 0  -2.4875 0 0  -2.475 0 0  -2.4625 0 0  -2.45 0 0  -2.4375 0 0  -2.425 0 0  -2.4125 0 0  -2.4 0 0  -2.3875 0 0  -2.375 0 0  -2.3625 0 0  -2.35 0 0  -2.3375 0 0  -2.325 0 0  -2.3125 0 0  -2.3 0 0  -2.2875 0 0  -2.275 0 0  -2.2625 0 0  -2.25 0 0  -2.2375 0 0  -2.225 0 0  -2.2125 0 0  -2.2 0 0  -2.1875 0 0  -2.175 0 0  -2.1625 0 0  -2.15 0 0  -2.1375 0 0  -2.125 0 0  -2.1125 0 0  -2.1 0 0  -2.0875 0 0  -2.075 0 0  -2.0625 0 0  -2.05 0 0  -2.0375 0 0  -2.025 0 0  -2.0125 0 0  -2 0 0  -1.9875 0 0  -1.975 0 0  -1.9625 0 0  -1.95 0 0  -1.9375 0 0  -1.925 0 0  -1.9125 0 0  -1.9 0 0  -1.8875 0 0  -1.875 0 0  -1.8625 0 0  -1.85 0 0  -1.8375 0 0  -1.825 0 0  -1.8125 0 0  -1.8 0 0  -1.7875 0 0  -1.775 0 0  -1.7625 0 0  -1.75 0 0  -1.7375 0 0  -1.725 0 0  -1.7125 0 0  -1.7 0 0  -1.6875 0 0  -1.675 0 0  -1.6625 0 0  -1.65 0 0  -1.6375 0 0  -1.625 0 0  -1.6125 0 0  -1.6 0 0  -1.5875 0 0  -1.575 0 0  -1.5625 0 0  -1.55 0 0  -1.5375 0 0  -1.525 0 0  -1.5125 0 0  -1.5 0 0  -1.4875 0 0  -1.475 0 0  -1.4625 0 0  -1.45 0 0  -1.4375 0 0  -1.425 0 0  -1.4125 0 0  -1.4 0 0  -1.3875 0 0  -1.375 0 0  -1.3625 0 0  -1.35 0 0  -1.3375 0 0  -1.325 0 0  -1.3125 0 0  -1.3 0 0  -1.2875 0 0  -1.275 0 0  -1.2625 0 0  -1.25 0 0  -1.2375 0 0  -1.225 0 0  -1.2125 0 0  -1.2 0 0  -1.1875 0 0  -1.175 0 0  -1.1625 0 0  -1.15 0 0  -1.1375 0 0  -1.125 0 0  -1.1125 0 0  -1.1 0 0  -1.0875 0 0  -1.075 0 0  -1.0625 0 0  -1.05 0 0  -1.0375 0 0  -1.025 0 0  -1.0125 0 0  -1 0 0  -0.9874999999999998 0 0  -0.9749999999999996 0 0  -0.9625000000000004 0 0  -0.9500000000000002 0 0  -0.9375 0 0  -0.9249999999999998 0 0  -0.9124999999999996 0 0  -0.9000000000000004 0 0  -0.8875000000000002 0 0  -0.875 0 0  -0.8624999999999998 0 0  -0.8499999999999996 0 0  -0.8375000000000004 0 0  -0.8250000000000002 0 0  -0.8125 0 0  -0.7999999999999998 0 0  -0.7874999999999996 0 0  -0.7750000000000004 0 0  -0.7625000000000002 0 0  -0.75 0 0  -0.7374999999999998 0 0  -0.7249999999999996 0 0  -0.7125000000000004 0 0  -0.7000000000000002 0 0  -0.6875 0 0  -0.6749999999999998 0 0  -0.6624999999999996 0 0  -0.6500000000000004 0 0  -0.6375000000000002 0 0  -0.625 0 0  -0.6124999999999998 0 0  -0.5999999999999996 0 0  -0.5875000000000004 0 0  -0.5750000000000002 0 0  -0.5625 0 0  -0.5499999999999998 0 0  -0.5374999999999996 0 0  -0.5250000000000004 0 0  -0.5125000000000002 0 0  -0.5 0 0  -0.4874999999999998 0 0  -0.4749999999999996 0 0  -0.4625000000000004 0 0  -0.4500000000000002 0 0  -0.4375 0 0  -0.4249999999999998 0 0  -0.4124999999999996 0 0  -0.4000000000000004 0 0  -0.3875000000000002 0 0  -0.375 0 0  -0.3624999999999998 0 0  -0.3499999999999996 0 0  -0.3375000000000004 0 0  -0.3250000000000002 0 0  -0.3125 0 0  -0.2999999999999998 0 0  -0.2874999999999996 0 0  -0.2750000000000004 0 0  -0.2625000000000002 0 0  -0.25 0 0  -0.2374999999999998 0 0  -0.2249999999999996 0 0  -0.2125000000000004 0 0  -0.2000000000000002 0 0  -0.1875 0 0  -0.1749999999999998 0 0  -0.1624999999999996 0 0  -0.1500000000000004 0 0  -0.1375000000000002 0 0  -0.125 0 0  -0.1124999999999998 0 0  -0.09999999999999964 0 0  -0.08750000000000036 0 0  -0.07500000000000018 0 0  -0.0625 0 0  -0.04999999999999982 0 0  -0.03749999999999964 0 0  -0.02500000000000036 0 0  -0.01250000000000018 0 0  0 0 0  0.01250000000000018 0 0  0.02500000000000036 0 0  0.03749999999999964 0 0  0.04999999999999982 0 0  0.0625 0 0  0.07500000000000018 0 0  0.08750000000000036 0 0  0.09999999999999964 0 0  0.1124999999999998 0 0  0.125 0 0  0.1375000000000002 0 0  0.1500000000000004 0 0  0.1624999999999996 0 0  0.1749999999999998 0 0  0.1875 0 0  0.2000000000000002 0 0  0.2125000000000004 0 0  0.2249999999999996 0 0  0.2374999999999998 0 0  0.25 0 0  0.2625000000000002 0 0  0.2750000000000004 0 0  0.2874999999999996 0 0  0.2999999999999998 0 0  0.3125 0 0  0.3250000000000002 0 0  0.3375000000000004 0 0  0.3499999999999996 0 0  0.3624999999999998 0 0  0.375 0 0  0.3875000000000002 0 0  0.4000000000000004 0 0  0.4124999999999996 0 0  0.4249999999999998 0 0  0.4375 0 0  0.4500000000000002 0 0  0.4625000000000004 0 0  0.4749999999999996 0 0  0.4874999999999998 0 0  0.5 0 0  0.5125000000000002 0 0  0.5250000000000004 0 0  0.5374999999999996 0 0  0.5499999999999998 0 0  0.5625 0 0  0.5750000000000002 0 0  0.5875000000000004 0 0  0.5999999999999996 0 0  0.6124999999999998 0 0  0.625 0 0  0.6375000000000002 0 0  0.6500000000000004 0 0  0.6624999999999996 0 0  0.6749999999999998 0 0  0.6875 0 0  0.7000000000000002 0 0  0.7125000000000004 0 0  0.7249999999999996 0 0  0.7374999999999998 0 0  0.75 0 0  0.7625000000000002 0 0  0.7750000000000004 0 0  0.7874999999999996 0 0  0.7999999999999998 0 0  0.8125 0 0  0.8250000000000002 0 0  0.8375000000000004 0 0  0.8499999999999996 0 0  0.8624999999999998 0 0  0.875 0 0  0.8875000000000002 0 0  0.9000000000000004 0 0  0.9124999999999996 0 0  0.9249999999999998 0 0  0.9375 0 0  0.9500000000000002 0 0  0.9625000000000004 0 0  0.9749999999999996 0 0  0.9874999999999998 0 0  1 0 0  1.0125 0 0  1.025 0 0  1.0375 0 0  1.05 0 0  1.0625 0 0  1.075 0 0  1.0875 0 0  1.1 0 0  1.1125 0 0  1.125 0 0  1.1375 0 0  1.15 0 0  1.1625 0 0  1.175 0 0  1.1875 0 0  1.2 0 0  1.2125 0 0  1.225 0 0  1.2375 0 0  1.25 0 0  1.2625 0 0  1.275 0 0  1.2875 0 0  1.3 0 0  1.3125 0 0  1.325 0 0  1.3375 0 0  1.35 0 0  1.3625 0 0  1.375 0 0  1.3875 0 0  1.4 0 0  1.4125 0 0  1.425 0 0  1.4375 0 0  1.45 0 0  1.4625 0 0  1.475 0 0  1.4875 0 0  1.5 0 0  1.5125 0 0  1.525 0 0  1.5375 0 0  1.55 0 0  1.5625 0 0  1.575 0 0  1.5875 0 0  1.6 0 0  1.6125 0 0  1.625 0 0  1.6375 0 0  1.65 0 0  1.6625 0 0  1.675 0 0  1.6875 0 0  1.7 0 0  1.7125 0 0  1.725 0 0  1.7375 0 0  1.75 0 0  1.7625 0 0  1.775 0 0  1.7875 0 0  1.8 0 0  1.8125 0 0  1.825 0 0  1.8375 0 0  1.85 0 0  1.8625 0 0  1.875 0 0  1.8875 0 0  1.9 0 0  1.9125 0 0  1.925 0 0  1.9375 0 0  1.95 0 0  1.9625 0 0  1.975 0 0  1.9875 0 0  2 0 0  2.0125 0 0  2.025 0 0  2.0375 0 0  2.05 0 0  2.0625 0 0  2.075 0 0  2.0875 0 0  2.1 0 0  2.1125 0 0  2.125 0 0  2.1375 0 0  2.15 0 0  2.1625 0 0  2.175 0 0  2.1875 0 0  2.2 0 0  2.2125 0 0  2.225 0 0  2.2375 0 0  2.25 0 0  2.2625 0 0  2.275 0 0  2.2875 0 0  2.3 0 0  2.3125 0 0  2.325 0 0  2.3375 0 0  2.35 0 0  2.3625 0 0  2.375 0 0  2.3875 0 0  2.4 0 0  2.4125 0 0  2.425 0 0  2.4375 0 0  2.45 0 0  2.4625 0 0  2.475 0 0  2.4875 0 0  2.5 0 0  2.5125 0 0  2.525 0 0  2.5375 0 0  2.55 0 0  2.5625 0 0  2.575 0 0  2.5875 0 0  2.6 0 0  2.6125 0 0  2.625 0 0  2.6375 0 0  2.65 0 0  2.6625 0 0  2.675 0 0  2.6875 0 0  2.7 0 0  2.7125 0 0  2.725 0 0  2.7375 0 0  2.75 0 0  2.7625 0 0  2.775 0 0  2.7875 0 0  2.8 0 0  2.8125 0 0  2.825 0 0  2.8375 0 0  2.85 0 0  2.8625 0 0  2.875 0 0  2.8875 0 0  2.9 0 0  2.9125 0 0  2.925 0 0  2.9375 0 0  2.95 0 0  2.9625 0 0  2.975 0 0  2.9875 0 0  3 0 0  3.012499999999999 0 0  3.025 0 0  3.0375 0 0  3.050000000000001 0 0  3.0625 0 0  3.074999999999999 0 0  3.0875 0 0  3.1 0 0  3.112500000000001 0 0  3.125 0 0  3.137499999999999 0 0  3.15 0 0  3.1625 0 0  3.175000000000001 0 0  3.1875 0 0  3.199999999999999 0 0  3.2125 0 0  3.225 0 0  3.237500000000001 0 0  3.25 0 0  3.262499999999999 0 0  3.275 0 0  3.2875 0 0  3.300000000000001 0 0  3.3125 0 0  3.324999999999999 0 0  3.3375 0 0  3.35 0 0  3.362500000000001 0 0  3.375 0 0  3.387499999999999 0 0  3.4 0 0  3.4125 0 0  3.425000000000001 0 0  3.4375 0 0  3.449999999999999 0 0  3.4625 0 0  3.475 0 0  3.4875
[...]
<PointData  Vectors="(h, u)"> 
<DataArray  type="Float64"  Name="(h, u)"  NumberOfComponents="3" format="ascii">3.2329523739109661e-01 0.0000000000000000e+00 0.0000000000000000e+00  3.2339195992241421e-01 8.5335800531642532e-03 0.0000000000000000e+00  3.2329105852118739e-01 1.7067000757756880e-02 0.0000000000000000e+00  3.2338358364356096e-01 2.5601052671911317e-02 0.0000000000000000e+00  3.2327852012982450e-01 3.4134647903760966e-02 0.0000000000000000e+00  3.2336682801804334e-01 4.2669463163522992e-02 0.0000000000000000e+00  3.2325761687264332e-01 5.1203588579503335e-02 0.0000000000000000e+00  3.2334168689313048e-01 5.9739437927770603e-02 0.0000000000000000e+00  3.2322833983955790e-01 6.8274471488728103e-02 0.0000000000000000e+00  3.2330815099881710e-01 7.6811605111596834e-02 0.0000000000000000e+00  3.2319067655208994e-01 8.5347947713909841e-02 0.0000000000000000e+00  3.2326620790997712e-01 9.3886595296414257e-02 0.0000000000000000e+00  3.2314461095233421e-01 1.0242467160857030e-01 0.0000000000000000e+00  3.2321584199394138e-01 1.1096504227634536e-01 0.0000000000000000e+00  3.2309012337401116e-01 1.1950530180762864e-01 0.0000000000000000e+00  3.2315703436315174e-01 1.2804758384776890e-01 0.0000000000000000e+00  3.2302719051590489e-01 1.3659050221908597e-01 0.0000000000000000e+00  3.2308976283708685e-01 1.4513486262332162e-01 0.0000000000000000e+00  3.2295578538371283e-01 1.5368094318114414e-01 0.0000000000000000e+00  3.2301400188237400e-01 1.6222752706809668e-01 0.0000000000000000e+00  3.2287587721634320e-01 1.7077730268584038e-01 0.0000000000000000e+00  3.2292972259084085e-01 1.7932623242161375e-01 0.0000000000000000e+00  3.2278743143281058e-01 1.8788026745528374e-01 0.0000000000000000e+00  3.2283689263909104e-01 1.9643164179104364e-01 0.0000000000000000e+00  3.2269040950748556e-01 2.0499053436776268e-01 0.0000000000000000e+00  3.2273547621791759e-01 2.1354442743186522e-01 0.0000000000000000e+00  3.2258476890689675e-01 2.2210881148512568e-01 0.0000000000000000e+00  3.2262543405052385e-01 2.3066527148166566e-01 0.0000000000000000e+00  3.2247046302053894e-01 2.3923581904196509e-01 0.0000000000000000e+00  3.2250672326342650e-01 2.4779486734725240e-01 0.0000000000000000e+00  3.2234744100795887e-01 2.5637229082010843e-01 0.0000000000000000e+00  3.2237929736515442e-01 2.6493392023653389e-01 0.0000000000000000e+00  3.2221564789249429e-01 2.7351897407672626e-01 0.0000000000000000e+00  3.2224310622738550e-01 2.8208314735356826e-01 0.0000000000000000e+00  3.2207502436592933e-01 2.9067663093408297e-01 0.0000000000000000e+00  3.2209809581770893e-01 2.9924327915920124e-01 0.0000000000000000e+00  3.2192550684639515e-01 3.0784603815582329e-01 0.0000000000000000e+00  3.2194420844044663e-01 3.1641505764448596e-01 0.0000000000000000e+00  3.2176702751936748e-01 3.2502798672230371e-01 0.0000000000000000e+00  3.2178138224978126e-01 3.3359923858587853e-01 0.0000000000000000e+00  3.2159951382282681e-01 3.4222328419269099e-01 0.0000000000000000e+00  3.2160955135807379e-01 3.5079659057005314e-01 0.0000000000000000e+00  3.2142288891117105e-01 3.5943275159955462e-01 0.0000000000000000e+00  3.2142864557264689e-01 3.6800789609722262e-01 0.0000000000000000e+00  3.2123707030627519e-01 3.7665723064145140e-01 0.0000000000000000e+00  3.2123858925382870e-01 3.8523395748363415e-01 0.0000000000000000e+00  3.2104197025287839e-01 3.9389758207166342e-01 0.0000000000000000e+00  3.2103930188157831e-01 4.0247559339286876e-01 0.0000000000000000e+00  3.2083749430718267e-01 4.1115469444381025e-01 0.0000000000000000e+00  3.2083069488930577e-01 4.1973365648393274e-01 0.0000000000000000e+00  3.2062354007097099e-01 4.2842949217867832e-01 0.0000000000000000e+00  3.2061267351635070e-01 4.3700902449327705e-01 0.0000000000000000e+00  3.2039999787852863e-01 4.4572293237260152e-01 0.0000000000000000e+00  3.2038513303077837e-01 4.5430262397100307e-01 0.0000000000000000e+00  3.2016674650323523e-01 4.6303602843539171e-01 0.0000000000000000e+00  3.2014796155404607e-01 4.7161541847325006e-01 0.0000000000000000e+00  3.1992365943541712e-01 4.8036981535371409e-01 0.0000000000000000e+00  3.1990103962686611e-01 4.8894841412647866e-01 0.0000000000000000e+00  3.1967059766593686e-01 4.9772539110473807e-01 0.0000000000000000e+00  3.1964424117994600e-01 5.0630265465816482e-01 0.0000000000000000e+00  3.1940742401025302e-01 5.1510384152389432e-01 0.0000000000000000e+00  3.1937744062394358e-01 5.2367917900491789e-01 0.0000000000000000e+00  3.1913399202467208e-01 5.3250630777352825e-01 0.0000000000000000e+00  3.1910050415974012e-01 5.4107906416765239e-01 0.0000000000000000e+00  3.1885016415991807e-01 5.4993389065985632e-01 0.0000000000000000e+00  3.1881330627329602e-01 5.5850333051703571e-01 0.0000000000000000e+00  3.1855579037366016e-01 5.6738776852904071e-01 0.0000000000000000e+00  3.1851569850884642e-01 5.7595311743937216e-01 0.0000000000000000e+00  3.1825072162611934e-01 5.8486911356283044e-01 0.0000000000000000e+00  3.1820754015769115e-01 5.9342952273628025e-01 0.0000000000000000e+00  3.1793477480697702e-01 6.0237927179662154e-01 0.0000000000000000e+00  3.1788863536517487e-01 6.1093396335328698e-01 0.0000000000000000e+00  3.1760775190121870e-01 6.1991964408482303e-01 0.0000000000000000e+00  3.1755880328544972e-01 6.2846779136300090e-01 0.0000000000000000e+00  3.1726940552158506e-01 6.3749187740984414e-01 0.0000000000000000e+00  3.1721778498384301e-01 6.4603280142236508e-01 0.0000000000000000e+00  3.1691950340655878e-01 6.5509752400947530e-01 0.0000000000000000e+00  3.1686539228466010e-01 6.6363037895206711e-01 0.0000000000000000e+00  3.1655778163597498e-01 6.7273833271223382e-01 0.0000000000000000e+00  3.1650135730452228e-01 6.8126230672295429e-01 0.0000000000000000e+00  3.1618407603052223e-01 6.9041554572836217e-01 0.0000000000000000e+00  3.1612554379551588e-01 6.9892957467721695e-01 0.0000000000000000e+00  3.1579812586626027e-01 7.0813099532495438e-01 0.0000000000000000e+00  3.1573767313092471e-01 7.1663392250065194e-01 0.0000000000000000e+00  3.1539981900556652e-01 7.2588570513483441e-01 0.0000000000000000e+00  3.1533752859871222e-01 7.3437675829236038e-01 0.0000000000000000e+00  3.1498867401985198e-01 7.4368271202293590e-01 0.0000000000000000e+00  3.1492472100759511e-01 7.5216053389095805e-01 0.0000000000000000e+00  3.1456451606849911e-01 7.6152323959676060e-01 0.0000000000000000e+00  3.1449877587586261e-01 7.6998830346583758e-01 0.0000000000000000e+00  3.1412661448751239e-01 7.7941149834875478e-01 0.0000000000000000e+00  3.1405953561394340e-01 7.8786145135019292e-01 0.0000000000000000e+00  3.1367493884368708e-01 7.9734773275701176e-01 0.0000000000000000e+00  3.1360632240572300e-01 8.0578430034349025e-01 0.0000000000000000e+00  3.1320903653606730e-01 8.1533454972408648e-01 0.0000000000000000e+00  3.1313960736271435e-01 8.2375472653900639e-01 0.0000000000000000e+00  3.1272848119106678e-01 8.3337447395271369e-01 0.0000000000000000e+00  3.1265808287805702e-01 8.4178043005372083e-01 0.0000000000000000e+00  3.1223342980981678e-01 8.5146704797859307e-01 0.0000000000000000e+00  3.1216176197912898e-01 8.5986117077260826e-01 0.0000000000000000e+00  3.1172172401844411e-01 8.6962568287655662e-01 0.0000000000000000e+00  3.1164974823714392e-01 8.7800065556039208e-01 0.0000000000000000e+00  3.1119503819190558e-01 8.8784330433857594e-01 0.0000000000000000e+00  3.1111995591955299e-01 8.9620924020906789e-01 0.0000000000000000e+00  3.1065149685063403e-01 9.0613078549966641e-01 0.0000000000000000e+00  3.1057586161289386e-01 9.1447085259971772e-01 0.0000000000000000e+00  3.1008948334424141e-01 9.2449011546093707e-01 0.0000000000000000e+00  3.1001361900077862e-01 9.3281848679887380e-01 0.0000000000000000e+00  3.0951159121423333e-01 9.4289614715191050e-01 0.0000000000000000e+00  3.0943356124443389e-01 9.5125347464678911e-01 0.0000000000000000e+00  3.0891036839762981e-01 9.6140704375278008e-01 0.0000000000000000e+00  3.0883635921455976e-01 9.6972825841539634e-01 0.0000000000000000e+00  3.0829638798541126e-01 9.8003602600772932e-01 0.0000000000000000e+00  3.0820239750595729e-01 9.8827221338138382e-01 0.0000000000000000e+00  3.0768067291315154e-01 9.9876580127154824e-01 0.0000000000000000e+00  3.0754503046831433e-01 1.0068736247109487e+00 0.0000000000000000e+00  3.0702088690636464e-01 1.0175899731878766e+00 0.0000000000000000e+00  3.0691445639090797e-01 1.0257111550802493e+00 0.0000000000000000e+00  3.0627244685815430e-01 1.0361545443639666e+00 0.0000000000000000e+00  3.0632524149372242e-01 1.0452133834877657e+00 0.0000000000000000e+00  3.0545893174672123e-01 1.0543396891589147e+00 0.0000000000000000e+00  3.0568996154920230e-01 1.0647979981227467e+00 0.0000000000000000e+00  3.0476800495334888e-01 1.0736493130200442e+00 0.0000000000000000e+00  3.0469908296809040e-01 1.0822279202554235e+00 0.0000000000000000e+00  3.0456957648344590e-01 1.0963874489093628e+00 0.0000000000000000e+00  3.0309081296197088e-01 1.0964277977516907e+00 0.0000000000000000e+00  3.0468549385936028e-01 1.1208126927359925e+00 0.0000000000000000e+00  3.0182898576334627e-01 1.1135760245297159e+00 0.0000000000000000e+00  3.0314289929860055e-01 1.1355620677591558e+00 0.0000000000000000e+00  3.0366306332513754e-01 1.1488782236885324e+00 0.0000000000000000e+00  2.9724886961890773e-01 1.1261263983512837e+00 0.0000000000000000e+00  3.0946120441166741e-01 1.2060220967272932e+00 0.0000000000000000e+00  2.8998481481564536e-01 1.1098306334424755e+00 0.0000000000000000e+00  3.0992111126598021e-01 1.2337112705811089e+00 0.0000000000000000e+00  2.9653687767274245e-01 1.1751678058937234e+00 0.0000000000000000e+00  2.8243140762009661e-01 1.1047208495324150e+00 0.0000000000000000e+00  3.1607993456462008e-01 1.3108976080977139e+00 0.0000000000000000e+00  8.6948510920242583e-02 -3.7033198856577126e-01 0.0000000000000000e+00  5.5756978463194030e-02 -1.3687316199383703e+00 0.0000000000000000e+00  6.0008263023284193e-02 -1.0741181225720640e+00 0.0000000000000000e+00  5.7753991766637848e-02 -1.1548301910099572e+00 0.0000000000000000e+00  5.8850234946519406e-02 -1.1441830786588358e+00 0.0000000000000000e+00  5.6716078241887569e-02 -1.1381021527596182e+00 0.0000000000000000e+00  5.7715898613018998e-02 -1.1473264832260808e+00 0.0000000000000000e+00  5.5902041883273419e-02 -1.1412253083624468e+00 0.0000000000000000e+00  5.6540467987670408e-02 -1.1464526519077995e+00 0.0000000000000000e+00  5.4999397691954846e-02 -1.1443312178304956e+00 0.0000000000000000e+00  5.5452348107400913e-02 -1.1470960227576741e+00 0.0000000000000000e+00  5.4009683972020786e-02 -1.1466805807671394e+00 0.0000000000000000e+00  5.4403403224978046e-02 -1.1487480614998178e+00 0.0000000000000000e+00  5.2982119269221382e-02 -1.1489453216341075e+00 0.0000000000000000e+00  5.3358613706443271e-02 -1.1509210818531868e+00 0.0000000000000000e+00  5.1939196039130220e-02 -1.1514276274283928e+00 0.0000000000000000e+00  5.2307567441746375e-02 -1.1534426641974951e+00 0.0000000000000000e+00  5.0888330623239254e-02 -1.1541941874596080e+00 0.0000000000000000e+00  5.1250337150909125e-02 -1.1562520261134379e+00 0.0000000000000000e+00  4.9833541847898587e-02 -1.1572238824109320e+00 0.0000000000000000e+00  5.0190936023597220e-02 -1.1592948526048767e+00 0.0000000000000000e+00  4.8779964204014502e-02 -1.1604521236004803e+00 0.0000000000000000e+00  4.9135999689148190e-02 -1.1624861169651224e+00 0.0000000000000000e+00  4.7735356392807217e-02 -1.1637718349451800e+00 0.0000000000000000e+00  4.8095063749235008e-02 -1.1656945947333732e+00 0.0000000000000000e+00  4.6710696254383455e-02 -1.1670251225390988e+00 0.0000000000000000e+00  4.7080867368901665e-02 -1.1687354917882655e+00 0.0000000000000000e+00  4.5720160187828970e-02 -1.1700001280935024e+00 0.0000000000000000e+00  4.6108948319857679e-02 -1.1713739513925965e+00 0.0000000000000000e+00  4.4780131701155024e-02 -1.1724424980629855e+00 0.0000000000000000e+00  4.5196055998265885e-02 -1.1733464654348507e+00 0.0000000000000000e+00  4.3906965180682808e-02 -1.1740871227620264e+00 0.0000000000000000e+00  4.4357401679609158e-02 -1.1744015716191498e+00 0.0000000000000000e+00  4.3113923287748962e-02 -1.1747052022176723e+00 0.0000000000000000e+00  4.3603619156579954e-02 -1.1743479621352426e+00 0.0000000000000000e+00  4.2408517813701800e-02 -1.1741483871001834e+00 0.0000000000000000e+00  4.2938833757215703e-02 -1.1730884890431048e+00 0.0000000000000000e+00  4.1791533490247119e-02 -1.1723691253447639e+00 0.0000000000000000e+00  4.2360726169603249e-02 -1.1706245892498144e+00 0.0000000000000000e+00  4.1258033116621261e-02 -1.1694102586671240e+00 0.0000000000000000e+00  4.1862261994065904e-02 -1.1670339389496427e+00 0.0000000000000000e+00  4.0799507678501386e-02 -1.1653749873037300e+00 0.0000000000000000e+00  4.1433974683082145e-02 -1.1624373819390534e+00 0.0000000000000000e+00  4.0406041931413401e-02 -1.1603943730905650e+00 0.0000000000000000e+00  4.1065858529345987e-02 -1.1569699659546915e+00 0.0000000000000000e+00  4.0067847810775853e-02 -1.1546031364896265e+00 0.0000000000000000e+00  4.0748532651930389e-02 -1.1507621824588341e+00 0.0000000000000000e+00  3.9776083940614881e-02 -1.1481258864058834e+00 0.0000000000000000e+00  4.0473771508970836e-02 -1.1439306665974993e+00 0.0000000000000000e+00  3.9523154996996566e-02 -1.1410713460251796e+00 0.0000000000000000e+00  4.0234631820386370e-02 -1.1365752007699412e+00 0.0000000000000000e+00  3.9302715673533571e-02 -1.1335313351185317e+00 0.0000000000000000e+00  4.0025373375764339e-02 -1.1287791089423989e+00 0.0000000000000000e+00  3.9109540471754543e-02 -1.1255820627303241e+00 0.0000000000000000e+00  3.9841298582152844e-02 -1.1206111208948850e+00 0.0000000000000000e+00  3.8939351625104181e-02 -1.1172862724390171e+00 0.0000000000000000e+00  3.9678576491925674e-02 -1.1121276526122357e+00 0.0000000000000000e+00  3.8788649934986028e-02 -1.1086954987093829e+00 0.0000000000000000e+00  3.9534080632473996e-02 -1.1033750047186057e+00 0.0000000000000000e+00  3.8654566368444249e-02 -1.0998521136877235e+00 0.0000000000000000e+00  3.9405250709750775e-02 -1.0943912851602751e+00 0.0000000000000000e+00  3.8534738871661055e-02 -1.0907910613038985e+00 0.0000000000000000e+00  3.9289979252021989e-02 -1.0852080110434656e+00 0.0000000000000000e+00  3.8427212992358850e-02 -1.0815412760439307e+00 0.0000000000000000e+00  3.9186520638495502e-02 -1.0758514088320767e+00 0.0000000000000000e+00  3.8330362825085444e-02 -1.0721268235545101e+00 0.0000000000000000e+00  3.9093418909703782e-02 -1.0663434545886268e+00 0.0000000000000000e+00  3.8242828447526987e-02 -1.0625678110293808e+00 0.0000000000000000e+00  3.9009450818015740e-02 -1.0567026994406192e+00 0.0000000000000000e+00  3.8163466374024770e-02 -1.0528811135033309e+00 0.0000000000000000e+00  3.8933581038233515e-02 -1.0469449213806208e+00 0.0000000000000000e+00  3.8091310131998485e-02 -1.0430809556953580e+00 0.0000000000000000e+00  3.8864927001644740e-02 -1.0370836381919686e+00 0.0000000000000000e+00  3.8025538657710835e-02 -1.0331793815423940e+00 0.0000000000000000e+00  3.8802731315830938e-02 -1.0271305099966710e+00 0.0000000000000000e+00  3.7965450730854403e-02 -1.0231866365500539e+00 0.0000000000000000e+00  3.8746340144922765e-02 -1.0170956545153469e+00 0.0000000000000000e+00  3.7910444102516504e-02 -1.0131114820643117e+00 0.0000000000000000e+00  3.8695186254313292e-02 -1.0069878936992240e+00 0.0000000000000000e+00  3.7859998311784923e-02 -1.0029614557721520e+00 0.0000000000000000e+00  3.8648775682071895e-02 -9.9681494685148619e-01 0.0000000000000000e+00  3.7813660462360246e-02 -9.9274308878522544e-01 0.0000000000000000e+00  3.8606677182637973e-02 -9.8658358283141578e-01 0.0000000000000000e+00  3.7771033433504249e-02 -9.8246208674754476e-01 0.0000000000000000e+00  3.8568513778090563e-02 -9.7629974118550367e-01 0.0000000000000000e+00  3.7731766112622120e-02 -9.7212348084714040e-01 0.0000000000000000e+00  3.8533955846998341e-02 -9.6596863073225314e-01 0.0000000000000000e+00  3.7695545458914216e-02 -9.6173175123235466e-01 0.0000000000000000e+00  3.8502715219955297e-02 -9.5559481363854948e-01 0.0000000000000000e+00  3.7662090104750218e-02 -9.5129092712802021e-01 0.0000000000000000e+00  3.8474540196519580e-02 -9.4518227601079707e-01 0.0000000000000000e+00  3.7631145176496003e-02 -9.4080466844310251e-01 0.0000000000000000e+00  3.8449210824356754e-02 -9.3473449528799768e-01 0.0000000000000000e+00  3.7602479000299616e-02 -9.3027631792595300e-01 0.0000000000000000e+00  3.8426533976834841e-02 -9.2425451164475481e-01 0.0000000000000000e+00  3.7575880257373399e-02 -9.1970894678987758e-01 0.0000000000000000e+00  3.8406340321627312e-02 -9.1374496981342346e-01 0.0000000000000000e+00  3.7551155121446474e-02 -9.0910540110951443e-01 0.0000000000000000e+00  3.8388479048299520e-02 -9.0320819743434166e-01 0.0000000000000000e+00  3.7528130572001293e-02 -8.9846824919413448e-01 0.0000000000000000e+00  3.8372809306515897e-02 -8.9264633650290182e-01 0.0000000000000000e+00  3.7506652964928597e-02 -8.8779980579977691e-01 0.0000000000000000e+00  3.8359205741005188e-02 -8.8206124960376786e-01 0.0000000000000000e+00  3.7486577295629389e-02 -8.7710230607720441e-01 0.0000000000000000e+00  3.8347551290036273e-02 -8.7145463125433908e-01 0.0000000000000000e+00  3.7467796297922212e-02 -8.6637743759649954e-01 0.0000000000000000e+00  3.8337691823254395e-02 -8.6082873042319075e-01 0.0000000000000000e+00  3.7450257476024894e-02 -8.5562606843779065e-01 0.0000000000000000e+00  3.8329480385357682e-02 -8.5018563651185808e-01 0.0000000000000000e+00  3.7433860674085842e-02 -8.4484989933672272e-01 0.0000000000000000e+00  3.8322852048503477e-02 -8.3952607922220701e-01 0.0000000000000000e+00  3.7418526454325647e-02 -8.3405035762310220e-01 0.0000000000000000e+00  3.8317551072259405e-02 -8.2885380286224819e-01 0.0000000000000000e+00  3.7404559898382532e-02 -8.2322273656523171e-01 0.0000000000000000e+00  3.8312953376940691e-02 -8.1817839842277040e-01 0.0000000000000000e+00  3.7392336823124137e-02 -8.1236127221547361e-01 0.0000000000000000e+00  3.8308922979215752e-02 -8.0750156084119051e-01 0.0000000000000000e+00  3.7381304437811368e-02 -8.0147524494262046e-01 0.0000000000000000e+00  3.8306158920362314e-02 -7.9681156094579564e-01 0.0000000000000000e+00  3.7371079934164345e-02 -7.9057121379117257e-01 0.0000000000000000e+00  3.8303446037878511e-02 -7.8612736183112586e-01 0.0000000000000000e+00  3.7365002626691228e-02 -7.7959577290029414e-01 0.0000000000000000e+00  3.8295095811304684e-02 -7.7553955693143994e-01 0.0000000000000000e+00  3.7369548730507164e-02 -7.6844519684898838e-01 0.0000000000000000e+00  3.8276063814684340e-02 -7.6512813889801856e-01 0.0000000000000000e+00  3.7385024777518268e-02 -7.5711562290020240e-01 0.0000000000000000e+00  3.8253082936749706e-02 -7.5478398868685725e-01 0.0000000000000000e+00  3.7396506242566040e-02 -7.4584865614639273e-01 0.0000000000000000e+00  3.8247803976307629e-02 -7.4415886539487053e-01 0.0000000000000000e+00  3.7378823035423760e-02 -7.3505019775928526e-01 0.0000000000000000e+00  3.8284064490753042e-02 -7.3287040154021499e-01 0.0000000000000000e+00  3.7314156241237045e-02 -7.2500693729172461e-01 0.0000000000000000e+00  3.8369764209160037e-02 -7.2079349141275628e-01 0.0000000000000000e+00  3.7206601877026825e-02 -7.1565239655543711e-01 0.0000000000000000e+00  3.8489312068112132e-02 -7.0818042176369478e-01 0.0000000000000000e+00  3.7081029532046339e-02 -7.0658527848915265e-01 0.0000000000000000e+00  3.8613097545231331e-02 -6.9550661732958385e-01 0.0000000000000000e+00  3.6967078636593716e-02 -6.9732713581390937e-01 0.0000000000000000e+00  3.8715655990570558e-02 -6.8317850861392471e-01 0.0000000000000000e+00  3.6882895204999329e-02 -6.8758524783286024e-01 0.0000000000000000e+00  3.8786449835471942e-02 -6.7136211678623714e-01 0.0000000000000000e+00  3.6831453544021904e-02 -6.7731266243997768e-01 0.0000000000000000e+00  3.8827705955866688e-02 -6.6001926979807124e-01 0.0000000000000000e+00  3.6806717333207624e-02 -6.6660856885675279e-01 0.0000000000000000e+00  3.8847106996799545e-02 -6.4902517129812320e-01 0.0000000000000000e+00  3.6