<?xml version="1.0"?>
<VTKFile type="UnstructuredGrid"  version="0.1"  >
<UnstructuredGrid>
<Piece  NumberOfPoints="801" NumberOfCells="800">
<Points>
<DataArray  type="Float64"  NumberOfComponents="3"  format="ascii">-5 0 0  -4.9875 0 0  -4.975 0 0  -4.9625 0 0  -4.95 0 0  -4.9375 0 0  -4.925 0 0  -4.9125 0 0  -4.9 0 0  -4.8875 0 0  -4.875 0 0  -4.8625 0 0  -4.85 0 0  -4.8375 0 0  -4.825 0 0  -4.8125 0 0  -4.8 0 0  -4.7875 0 0  -4.775 0 0  -4.7625 0 0  -4.75 0 0  -4.7375 0 0  -4.725 0 0  -4.7125 0 0  -4.7 0 0  -4.6875 0 0  -4.675 0 0  -4.6625 0 0  -4.65 0 0  -4.6375 0 0  -4.625 0 0  -4.6125 0 0  -4.6 0 0  -4.5875 0 0  -4.575 0 0  -4.5625 0 0  -4.55 0 0  -4.5375 0 0  -4.525 0 0  -4.5125 0 0  -4.5 0 0  -4.4875 0 0  -4.475 0 0  -4.4625 0 0  -4.45 0 0  -4.4375 0 0  -4.425 0 0  -4.4125 0 0  -4.4 0 0  -4.3875 0 0  -4.375 0 0  -4.3625 0 0  -4.35 0 0  -4.3375 0 0  -4.325 0 0  -4.3125 0 0  -4.3 0 0  -4.2875 0 0  -4.275 0 0  -4.2625 0 0  -4.25 0 0  -4.2375 0 0  -4.225 0 0  -4.2125 0 0  -4.2 0 0  -4.1875 0 0  -4.175 0 0  -4.1625 0 0  -4.15 0 0  -4.1375 0 0  -4.125 0 0  -4.1125 0 0  -4.1 0 0  -4.0875 0 0  -4.075 0 0  -4.0625 0 0  -4.05 0 0  -4.0375 0 0  -4.025 0 0  -4.0125 0 0  -4 0 0  -3.9875 0 0  -3.975 0 0  -3.9625 0 0  -3.95 0 0  -3.9375 0 0  -3.925 0 0  -3.9125 0 0  -3.9 0 0  -3.8875 0 0  -3.875 0 0  -3.8625 0 0  -3.85 0 0  -3.8375 0 0  -3.825 0 0  -3.8125 0 0  -3.8 0 0  -3.7875 0 0  -3.775 0 0  -3.7625 0 0  -3.75 0 0  -3.7375 0 0  -3.725 0 0  -3.7125 0 0  -3.7 0 0  -3.6875 0 0  -3.675 0 0  -3.6625 0 0  -3.65 0 0  -3.6375 0 0  -3.625 0 0  -3.6125 0 0  -3.6 0 0  -3.5875 0 0  -3.575 0 0  -3.5625 0 0  -3.55 0 0  -3.5375 0 0  -3.525 0 0  -3.5125 0 0  -3.5 0 0  -3.4875 0 0  -3.475 0 0  -3.4625 0 0  -3.45 0 0  -3.4375 0 0  -3.425 0 0  -3.4125 0 0  -3.4 0 0  -3.3875 0 0  -3.375 0 0  -3.3625 0 0  -3.35 0 0  -3.3375 0 0  -3.325 0 0  -3.3125 0 0  -3.3 0 0  -3.2875 0 0  -3.275 0 0  -3.2625 0 0  -3.25 0 0  -3.2375 0 0  -3.225 0 0  -3.2125 0 0  -3.2 0 0  -3.1875 0 0  -3.175 0 0  -3.1625 0 0  -3.15 0 0  -3.1375 0 0  -3.125 0 0  -3.1125 0 0  -3.1 0 0  -3.0875 0 0  -3.075 0 0  -3.0625 0 0  -3.05 0 0  -3.0375 0 0  -3.025 0 0  -3.0125 0 0  -3 0 0  -2.9875 0 0  -2.975 0 0  -2.9625 0 0  -2.95 0 0  -2.9375 0 0  -2.925 0 0  -2.9125 0 0  -2.9 0 0  -2.8875 0 0  -2.875 0 0  -2.8625 0 0  -2.85 0 0  -2.8375 0 0  -2.825 0 0  -2.8125 0 0  -2.8 0 0  -2.7875 0 0  -2.775 0 0  -2.7625 0 0  -2.75 0 0  -2.7375 0 0  -2.725 0 0  -2.7125 0 0  -2.7 0 0  -2.6875 0 0  -2.675 0 0  -2.6625 0 0  -2.65 0 0  -2.6375 0 0  -2.625 0 0  -2.6125 0 0  -2.6 0 0  -2.5875 0 0  -2.575 0 0  -2.5625 0 0  -2.55 0 0  -2.5375 0 0  -2.525 0 0  -2.5125 0 0  -2.5 0 0  -2.4875 0 0  -2.475 0 0  -2.4625 0 0  -2.45 0 0  -2.4375 0 0  -2.425 0 0  -2.4125 0 0  -2.4 0 0  -2.3875 0 0  -2.375 0 0  -2.3625 0 0  -2.35 0 0  -2.3375 0 0  -2.325 0 0  -2.3125 0 0  -2.3 0 0  -2.2875 0 0  -2.275 0 0  -2.2625 0 0  -2.25 0 0  -2.2375 0 0  -2.225 0 0  -2.2125 0 0  -2.2 0 0  -2.1875 0 0  -2.175 0 0  -2.1625 0 0  -2.15 0 0  -2.1375 0 0  -2.125 0 0  -2.1125 0 0  -2.1 0 0  -2.0875 0 0  -2.075 0 0  -2.0625 0 0  -2.05 0 0  -2.0375 0 0  -2.025 0 0  -2.0125 0 0  -2 0 0  -1.9875 0 0  -1.975 0 0  -1.9625 0 0  -1.95 0 0  -1.9375 0 0  -1.925 0 0  -1.9125 0 0  -1.9 0 0  -1.8875 0 0  -1.875 0 0  -1.8625 0 0  -1.85 0 0  -1.8375 0 0  -1.825 0 0  -1.8125 0 0  -1.8 0 0  -1.7875 0 0  -1.775 0 0  -1.7625 0 0  -1.75 0 0  -1.7375 0 0  -1.725 0 0  -1.7125 0 0  -1.7 0 0  -1.6875 0 0  -1.675 0 0  -1.6625 0 0  -1.65 0 0  -1.6375 0 0  -1.625 0 0  -1.6125 0 0  -1.6 0 0  -1.5875 0 0  -1.575 0 0  -1.5625 0 0  -1.55 0 0  -1.5375 0 0  -1.525 0 0  -1.5125 0 0  -1.5 0 0  -1.4875 0 0  -1.475 0 0  -1.4625 0 0  -1.45 0 0  -1.4375 0 0  -1.425 0 0  -1.4125 0 0  -1.4 0 0  -1.3875 0 0  -1.375 0 0  -1.3625 0 0  -1.35 0 0  -1.3375 0 0  -1.325 0 0  -1.3125 0 0  -1.3 0 0  -1.2875 0 0  -1.275 0 0  -1.2625 0 0  -1.25 0 0  -1.2375 0 0  -1.225 0 0  -1.2125 0 0  -1.2 0 0  -1.1875 0 0  -1.175 0 0  -1.1625 0 0  -1.15 0 0  -1.1375 0 0  -1.125 0 0  -1.1125 0 0  -1.1 0 0  -1.0875 0 0  -1.075 0 0  -1.0625 0 0  -1.05 0 0  -1.0375 0 0  -1.025 0 0  -1.0125 0 0  -1 0 0  -0.9874999999999998 0 0  -0.9749999999999996 0 0  -0.9625000000000004 0 0  -0.9500000000000002 0 0  -0.9375 0 0  -0.9249999999999998 0 0  -0.9124999999999996 0 0  -0.9000000000000004 0 0  -0.8875000000000002 0 0  -0.875 0 0  -0.8624999999999998 0 0  -0.8499999999999996 0 0  -0.8375000000000004 0 0  -0.8250000000000002 0 0  -0.8125 0 0  -0.7999999999999998 0 0  -0.7874999999999996 0 0  -0.7750000000000004 0 0  -0.7625000000000002 0 0  -0.75 0 0  -0.7374999999999998 0 0  -0.7249999999999996 0 0  -0.7125000000000004 0 0  -0.7000000000000002 0 0  -0.6875 0 0  -0.6749999999999998 0 0  -0.6624999999999996 0 0  -0.6500000000000004 0 0  -0.6375000000000002 0 0  -0.625 0 0  -0.6124999999999998 0 0  -0.5999999999999996 0 0  -0.5875000000000004 0 0  -0.5750000000000002 0 0  -0.5625 0 0  -0.5499999999999998 0 0  -0.5374999999999996 0 0  -0.5250000000000004 0 0  -0.5125000000000002 0 0  -0.5 0 0  -0.4874999999999998 0 0  -0.4749999999999996 0 0  -0.4625000000000004 0 0  -0.4500000000000002 0 0  -0.4375 0 0  -0.4249999999999998 0 0  -0.4124999999999996 0 0  -0.4000000000000004 0 0  -0.3875000000000002 0 0  -0.375 0 0  -0.3624999999999998 0 0  -0.3499999999999996 0 0  -0.3375000000000004 0 0  -0.3250000000000002 0 0  -0.3125 0 0  -0.2999999999999998 0 0  -0.2874999999999996 0 0  -0.2750000000000004 0 0  -0.2625000000000002 0 0  -0.25 0 0  -0.2374999999999998 0 0  -0.2249999999999996 0 0  -0.2125000000000004 0 0  -0.2000000000000002 0 0  -0.1875 0 0  -0.1749999999999998 0 0  -0.1624999999999996 0 0  -0.1500000000000004 0 0  -0.1375000000000002 0 0  -0.125 0 0  -0.1124999999999998 0 0  -0.09999999999999964 0 0  -0.08750000000000036 0 0  -0.07500000000000018 0 0  -0.0625 0 0  -0.04999999999999982 0 0  -0.03749999999999964 0 0  -0.02500000000000036 0 0  -0.01250000000000018 0 0  0 0 0  0.01250000000000018 0 0  0.02500000000000036 0 0  0.03749999999999964 0 0  0.04999999999999982 0 0  0.0625 0 0  0.07500000000000018 0 0  0.08750000000000036 0 0  0.09999999999999964 0 0  0.1124999999999998 0 0  0.125 0 0  0.1375000000000002 0 0  0.1500000000000004 0 0  0.1624999999999996 0 0  0.1749999999999998 0 0  0.1875 0 0  0.2000000000000002 0 0  0.2125000000000004 0 0  0.2249999999999996 0 0  0.2374999999999998 0 0  0.25 0 0  0.2625000000000002 0 0  0.2750000000000004 0 0  0.2874999999999996 0 0  0.2999999999999998 0 0  0.3125 0 0  0.3250000000000002 0 0  0.3375000000000004 0 0  0.3499999999999996 0 0  0.3624999999999998 0 0  0.375 0 0  0.3875000000000002 0 0  0.4000000000000004 0 0  0.4124999999999996 0 0  0.4249999999999998 0 0  0.4375 0 0  0.4500000000000002 0 0  0.4625000000000004 0 0  0.4749999999999996 0 0  0.4874999999999998 0 0  0.5 0 0  0.5125000000000002 0 0  0.5250000000000004 0 0  0.5374999999999996 0 0  0.5499999999999998 0 0  0.5625 0 0  0.5750000000000002 0 0  0.5875000000000004 0 0  0.5999999999999996 0 0  0.6124999999999998 0 0  0.625 0 0  0.6375000000000002 0 0  0.6500000000000004 0 0  0.6624999999999996 0 0  0.6749999999999998 0 0  0.6875 0 0  0.7000000000000002 0 0  0.7125000000000004 0 0  0.7249999999999996 0 0  0.7374999999999998 0 0  0.75 0 0  0.7625000000000002 0 0  0.7750000000000004 0 0  0.7874999999999996 0 0  0.7999999999999998 0 0  0.8125 0 0  0.8250000000000002 0 0  0.8375000000000004 0 0  0.8499999999999996 0 0  0.8624999999999998 0 0  0.875 0 0  0.8875000000000002 0 0  0.9000000000000004 0 0  0.9124999999999996 0 0  0.9249999999999998 0 0  0.9375 0 0  0.9500000000000002 0 0  0.9625000000000004 0 0  0.9749999999999996 0 0  0.9874999999999998 0 0  1 0 0  1.0125 0 0  1.025 0 0  1.0375 0 0  1.05 0 0  1.0625 0 0  1.075 0 0  1.0875 0 0  1.1 0 0  1.1125 0 0  1.125 0 0  1.1375 0 0  1.15 0 0  1.1625 0 0  1.175 0 0  1.1875 0 0  1.2 0 0  1.2125 0 0  1.225 0 0  1.2375 0 0  1.25 0 0  1.2625 0 0  1.275 0 0  1.2875 0 0  1.3 0 0  1.3125 0 0  1.325 0 0  1.3375 0 0  1.35 0 0  1.3625 0 0  1.375 0 0  1.3875 0 0  1.4 0 0  1.4125 0 0  1.425 0 0  1.4375 0 0  1.45 0 0  1.4625 0 0  1.475 0 0  1.4875 0 0  1.5 0 0  1.5125 0 0  1.525 0 0  1.5375 0 0  1.55 0 0  1.5625 0 0  1.575 0 0  1.5875 0 0  1.6 0 0  1.6125 0 0  1.625 0 0  1.6375 0 0  1.65 0 0  1.6625 0 0  1.675 0 0  1.6875 0 0  1.7 0 0  1.7125 0 0  1.725 0 0  1.7375 0 0  1.75 0 0  1.7625 0 0  1.775 0 0  1.7875 0 0  1.8 0 0  1.8125 0 0  1.825 0 0  1.8375 0 0  1.85 0 0  1.8625 0 0  1.875 0 0  1.8875 0 0  1.9 0 0  1.9125 0 0  1.925 0 0  1.9375 0 0  1.95 0 0  1.9625 0 0  1.975 0 0  1.9875 0 0  2 0 0  2.0125 0 0  2.025 0 0  2.0375 0 0  2.05 0 0  2.0625 0 0  2.075 0 0  2.0875 0 0  2.1 0 0  2.1125 0 0  2.125 0 0  2.1375 0 0  2.15 0 0  2.1625 0 0  2.175 0 0  2.1875 0 0  2.2 0 0  2.2125 0 0  2.225 0 0  2.2375 0 0  2.25 0 0  2.2625 0 0  2.275 0 0  2.2875 0 0  2.3 0 0  2.3125 0 0  2.325 0 0  2.3375 0 0  2.35 0 0  2.3625 0 0  2.375 0 0  2.3875 0 0  2.4 0 0  2.4125 0 0  2.425 0 0  2.4375 0 0  2.45 0 0  2.4625 0 0  2.475 0 0  2.4875 0 0  2.5 0 0  2.5125 0 0  2.525 0 0  2.5375 0 0  2.55 0 0  2.5625 0 0  2.575 0 0  2.5875 0 0  2.6 0 0  2.6125 0 0  2.625 0 0  2.6375 0 0  2.65 0 0  2.6625 0 0  2.675 0 0  2.6875 0 0  2.7 0 0  2.7125 0 0  2.725 0 0  2.7375 0 0  2.75 0 0  2.7625 0 0  2.775 0 0  2.7875 0 0  2.8 0 0  2.8125 0 0  2.825 0 0  2.8375 0 0  2.85 0 0  2.8625 0 0  2.875 0 0  2.8875 0 0  2.9 0 0  2.9125 0 0  2.925 0 0  2.9375 0 0  2.95 0 0  2.9625 0 0  2.975 0 0  2.9875 0 0  3 0 0  3.012499999999999 0 0  3.025 0 0  3.0375 0 0  3.050000000000001 0 0  3.0625 0 0  3.074999999999999 0 0  3.0875 0 0  3.1 0 0  3.112500000000001 0 0  3.125 0 0  3.137499999999999 0 0  3.15 0 0  3.1625 0 0  3.175000000000001 0 0  3.1875 0 0  3.199999999999999 0 0  3.2125 0 0  3.225 0 0  3.237500000000001 0 0  3.25 0 0  3.262499999999999 0 0  3.275 0 0  3.2875 0 0  3.300000000000001 0 0  3.3125 0 0  3.324999999999999 0 0  3.3375 0 0  3.35 0 0  3.362500000000001 0 0  3.375 0 0  3.387499999999999 0 0  3.4 0 0  3.4125 0 0  3.425000000000001 0 0  3.4375 0 0  3.449999999999999 0 0  3.4625 0 0  3.475 0 0  3.4875
[...]
<PointData  Vectors="(h, u)"> 
<DataArray  type="Float64"  Name="(h, u)"  NumberOfComponents="3" format="ascii">7.4624961366361087e-01 0.0000000000000000e+00 0.0000000000000000e+00  6.7844734934454598e-01 7.2492885687576739e-02 0.0000000000000000e+00  7.1661088251743388e-01 -7.8973492506973775e-02 0.0000000000000000e+00  7.2596917515066151e-01 1.8404172320326329e-01 0.0000000000000000e+00  6.6852266699616270e-01 -9.9728280844248299e-02 0.0000000000000000e+00  7.5490279818501282e-01 1.9309028215404336e-01 0.0000000000000000e+00  6.7280136233227006e-01 2.5865382235975638e-02 0.0000000000000000e+00  7.1225268946082598e-01 5.4125796439855378e-02 0.0000000000000000e+00  7.4048437045107518e-01 2.6976152784932089e-01 0.0000000000000000e+00  6.3522862642923017e-01 -1.4814231082758866e-01 0.0000000000000000e+00  7.9515014654972815e-01 4.2325478151974022e-01 0.0000000000000000e+00  6.2190083039840338e-01 -1.2074029383474182e-01 0.0000000000000000e+00  7.4328280668919466e-01 2.7492757310422994e-01 0.0000000000000000e+00  7.2048643197187157e-01 2.8162940650941032e-01 0.0000000000000000e+00  6.0320202810242463e-01 -2.0448745211374908e-01 0.0000000000000000e+00  8.4257258774790100e-01 7.1692925819334863e-01 0.0000000000000000e+00  5.2742030340382895e-01 -5.6169739053849477e-01 0.0000000000000000e+00  8.1633680716441648e-01 7.0204170435912505e-01 0.0000000000000000e+00  5.5633461192699973e-01 3.4370438764135765e-02 0.0000000000000000e+00  2.0561769129934676e-01 -3.0576151280387993e+00 0.0000000000000000e+00  2.1889393913617092e-01 -1.6509588946523255e+00 0.0000000000000000e+00  2.5925614555965537e-01 -2.4855026479356623e+00 0.0000000000000000e+00  2.2173148708646750e-01 -1.9951167889843764e+00 0.0000000000000000e+00  2.3124446827719702e-01 -2.2596565664266910e+00 0.0000000000000000e+00  2.4487017971665764e-01 -2.1663290144807514e+00 0.0000000000000000e+00  2.1190783481443418e-01 -2.1393423188255332e+00 0.0000000000000000e+00  2.5028516580280541e-01 -2.2107744545631900e+00 0.0000000000000000e+00  2.1069861025972125e-01 -2.1227709836250215e+00 0.0000000000000000e+00  2.4198956034088911e-01 -2.1821487657312693e+00 0.0000000000000000e+00  2.1742040617010552e-01 -2.1484307932001747e+00 0.0000000000000000e+00  2.3125547796155693e-01 -2.1423222215413311e+00 0.0000000000000000e+00  2.2264503643092540e-01 -2.1619626687905704e+00 0.0000000000000000e+00  2.2428271338229619e-01 -2.1238367595695165e+00 0.0000000000000000e+00  2.2350446194743689e-01 -2.1510291161444743e+00 0.0000000000000000e+00  2.2122502409092676e-01 -2.1251548441484212e+00 0.0000000000000000e+00  2.2152781235449709e-01 -2.1276318968224817e+00 0.0000000000000000e+00  2.1984833906029325e-01 -2.1314817431896356e+00 0.0000000000000000e+00  2.1887381111880674e-01 -2.1051440137598649e+00 0.0000000000000000e+00  2.1851343177667906e-01 -2.1333143504833068e+00 0.0000000000000000e+00  2.1650728051905799e-01 -2.0883960772291958e+00 0.0000000000000000e+00  2.1685113570138981e-01 -2.1298627763999742e+00 0.0000000000000000e+00  2.1439183261389921e-01 -2.0756868225407521e+00 0.0000000000000000e+00  2.1508173290899865e-01 -2.1238965849206362e+00 0.0000000000000000e+00  2.1230107606643644e-01 -2.0644322702317650e+00 0.0000000000000000e+00  2.1333130757117377e-01 -2.1170999792068046e+00 0.0000000000000000e+00  2.1023897699236196e-01 -2.0540170946524769e+00 0.0000000000000000e+00  2.1149343879663016e-01 -2.1092412718482096e+00 0.0000000000000000e+00  2.0835474792759176e-01 -2.0451205132025847e+00 0.0000000000000000e+00  2.0943956144722631e-01 -2.0997013822942150e+00 0.0000000000000000e+00  2.0670701259052213e-01 -2.0379815847699212e+00 0.0000000000000000e+00  2.0720393454716873e-01 -2.0888223569804425e+00 0.0000000000000000e+00  2.0517195999447638e-01 -2.0316689188536619e+00 0.0000000000000000e+00  2.0497483874460212e-01 -2.0779312853044836e+00 0.0000000000000000e+00  2.0353412237387056e-01 -2.0246533805186044e+00 0.0000000000000000e+00  2.0295501678399733e-01 -2.0684423211281082e+00 0.0000000000000000e+00  2.0163761260177537e-01 -2.0158316456749281e+00 0.0000000000000000e+00  2.0123025729987815e-01 -2.0609664965710830e+00 0.0000000000000000e+00  1.9947615776980548e-01 -2.0051439361650014e+00 0.0000000000000000e+00  1.9973061258918148e-01 -2.0550333687420075e+00 0.0000000000000000e+00  1.9718136522253590e-01 -1.9935014162524654e+00 0.0000000000000000e+00  1.9828425601612298e-01 -2.0494577441137394e+00 0.0000000000000000e+00  1.9493978014513164e-01 -1.9822201673150519e+00 0.0000000000000000e+00  1.9671476010743053e-01 -2.0430159317382666e+00 0.0000000000000000e+00  1.9289536165520552e-01 -1.9723344100046643e+00 0.0000000000000000e+00  1.9492682837358385e-01 -2.0350426478238863e+00 0.0000000000000000e+00  1.9108475954169690e-01 -1.9641204050546373e+00 0.0000000000000000e+00  1.9294429773414387e-01 -2.0256990520306291e+00 0.0000000000000000e+00  1.8942871085789822e-01 -1.9570169629684044e+00 0.0000000000000000e+00  1.9089016741828674e-01 -2.0158440148292724e+00 0.0000000000000000e+00  1.8777695493005842e-01 -1.9499410367452430e+00 0.0000000000000000e+00  1.8892278226054629e-01 -2.0065976428851511e+00 0.0000000000000000e+00  1.8598275402579356e-01 -1.9418258849658796e+00 0.0000000000000000e+00  1.8715948939461141e-01 -1.9988018848424158e+00 0.0000000000000000e+00  1.8397184884844633e-01 -1.9321226045444742e+00 0.0000000000000000e+00  1.8562323850526838e-01 -1.9926292470678477e+00 0.0000000000000000e+00  1.8177411882471703e-01 -1.9210379021794748e+00 0.0000000000000000e+00  1.8423620014938996e-01 -1.9875265277938561e+00 0.0000000000000000e+00  1.7950423818439676e-01 -1.9094078294736554e+00 0.0000000000000000e+00  1.8286196164938598e-01 -1.9825143973570529e+00 0.0000000000000000e+00  1.7730227521780392e-01 -1.8982732136615712e+00 0.0000000000000000e+00  1.8137441974389065e-01 -1.9766839446156892e+00 0.0000000000000000e+00  1.7526423594462376e-01 -1.8883632526453413e+00 0.0000000000000000e+00  1.7971899805493344e-01 -1.9696393610432932e+00 0.0000000000000000e+00  1.7339684517393197e-01 -1.8797424679951313e+00 0.0000000000000000e+00  1.7793642430576306e-01 -1.9616734640638838e+00 0.0000000000000000e+00  1.7161815713045869e-01 -1.8717993643616866e+00 0.0000000000000000e+00  1.7613813728108973e-01 -1.9535979415914702e+00 0.0000000000000000e+00  1.6980274118779978e-01 -1.8635811927215251e+00 0.0000000000000000e+00  1.7444628340734827e-01 -1.9463118630339731e+00 0.0000000000000000e+00  1.6784869934859800e-01 -1.8543031463708650e+00 0.0000000000000000e+00  1.7292810690865690e-01 -1.9403170456260470e+00 0.0000000000000000e+00  1.6573348920541089e-01 -1.8437810143378159e+00 0.0000000000000000e+00  1.7155685586611841e-01 -1.9354203798019580e+00 0.0000000000000000e+00  1.6353122062830930e-01 -1.8325783994476463e+00 0.0000000000000000e+00  1.7021865779543727e-01 -1.9307782953306314e+00 0.0000000000000000e+00  1.6138203724185901e-01 -1.8217887763333918e+00 0.0000000000000000e+00  1.6876363404309086e-01 -1.9252750094950066e+00 0.0000000000000000e+00  1.5942604569804447e-01 -1.8125281755712461e+00 0.0000000000000000e+00  1.6707978757067357e-01 -1.9180712627060503e+00 0.0000000000000000e+00  1.5772985819631033e-01 -1.8053452148328804e+00 0.0000000000000000e+00  1.6515819114396982e-01 -1.9090923369929151e+00 0.0000000000000000e+00  1.5623704109279488e-01 -1.7998059493651630e+00 0.0000000000000000e+00  1.6312163102498989e-01 -1.8992560809657089e+00 0.0000000000000000e+00  1.5476381208307827e-01 -1.7944451616614427e+00 0.0000000000000000e+00  1.6120372844826814e-01 -1.8903397667705772e+00 0.0000000000000000e+00  1.5304329033809241e-01 -1.7871133373536341e+00 0.0000000000000000e+00  1.5968504841525646e-01 -1.8845074516344822e+00 0.0000000000000000e+00  1.5080311097372029e-01 -1.7755814631109885e+00 0.0000000000000000e+00  1.5880851328236242e-01 -1.8836409428535552e+00 0.0000000000000000e+00  1.4784964485781785e-01 -1.7581848425059361e+00 0.0000000000000000e+00  1.5870279220810316e-01 -1.8887045077097762e+00 0.0000000000000000e+00  1.4413105520472089e-01 -1.7343139247142858e+00 0.0000000000000000e+00  1.5933774207297241e-01 -1.8993777287771192e+00 0.0000000000000000e+00  1.3976052658518207e-01 -1.7046457038686567e+00 0.0000000000000000e+00  1.6052332812602033e-01 -1.9140833202227441e+00 0.0000000000000000e+00  1.3499573467350406e-01 -1.6710956972732116e+00 0.0000000000000000e+00  1.6194846218732384e-01 -1.9303637722917237e+00 0.0000000000000000e+00  1.3018474278856887e-01 -1.6365255132122081e+00 0.0000000000000000e+00  1.6324489027843955e-01 -1.9454308322623786e+00 0.0000000000000000e+00  1.2569646943435836e-01 -1.6042657117625199e+00 0.0000000000000000e+00  1.6405731873472232e-01 -1.9566968978442101e+00 0.0000000000000000e+00  1.2185403134328779e-01 -1.5775294398177091e+00 0.0000000000000000e+00  1.6410369867315924e-01 -1.9621715693767501e+00 0.0000000000000000e+00  1.1888417326694431e-01 -1.5588199587079388e+00 0.0000000000000000e+00  1.6321550241012758e-01 -1.9606897614819701e+00 0.0000000000000000e+00  1.1688963961219026e-01 -1.5494679140556689e+00 0.0000000000000000e+00  1.6135359316711861e-01 -1.9519814607986841e+00 0.0000000000000000e+00  1.1584611149580602e-01 -1.5494322513427932e+00 0.0000000000000000e+00  1.5859995559305512e-01 -1.9366043021472592e+00 0.0000000000000000e+00  1.1562114195065748e-01 -1.5574282941176039e+00 0.0000000000000000e+00  1.5512969516097433e-01 -1.9157661384788585e+00 0.0000000000000000e+00  1.1600881616887054e-01 -1.5713268526845419e+00 0.0000000000000000e+00  1.5117129125914411e-01 -1.8910776038453545e+00 0.0000000000000000e+00  1.1677115444482306e-01 -1.5886706932102250e+00 0.0000000000000000e+00  1.4696493035864852e-01 -1.8642854325287910e+00 0.0000000000000000e+00  1.1767681972625842e-01 -1.6071395958133652e+00 0.0000000000000000e+00  1.4272772364257297e-01 -1.8370353836303546e+00 0.0000000000000000e+00  1.1852999621926687e-01 -1.6248575676475889e+00 0.0000000000000000e+00  1.3863110890454569e-01 -1.8106988422769128e+00 0.0000000000000000e+00  1.1918628500650791e-01 -1.6405214150800100e+00 0.0000000000000000e+00  1.3479147800713756e-01 -1.7862770812881783e+00 0.0000000000000000e+00  1.1955632514409513e-01 -1.6533893896935286e+00 0.0000000000000000e+00  1.3127176344422217e-01 -1.7643794290965358e+00 0.0000000000000000e+00  1.1960031323784770e-01 -1.6631880317145229e+00 0.0000000000000000e+00  1.2809014430178250e-01 -1.7452595820453884e+00 0.0000000000000000e+00  1.1931736732807487e-01 -1.6699875682652274e+00 0.0000000000000000e+00  1.2523200000076870e-01 -1.7288884868775689e+00 0.0000000000000000e+00  1.1873323103923004e-01 -1.6740789647766976e+00 0.0000000000000000e+00  1.2266208657301746e-01 -1.7150420416639365e+00 0.0000000000000000e+00  1.1788879609913162e-01 -1.6758698688509557e+00 0.0000000000000000e+00  1.2033503482524462e-01 -1.7033858344325303e+00 0.0000000000000000e+00  1.1683082316502540e-01 -1.6758058143831529e+00 0.0000000000000000e+00  1.1820329388270062e-01 -1.6935453155429263e+00 0.0000000000000000e+00  1.1560534242070282e-01 -1.6743166509054934e+00 0.0000000000000000e+00  1.1622239328490014e-01 -1.6851562729564826e+00 0.0000000000000000e+00  1.1425360847902626e-01 -1.6717848059212979e+00 0.0000000000000000e+00  1.1435385701097163e-01 -1.6778956591335543e+00 0.0000000000000000e+00  1.1281014606604367e-01 -1.6685306044214285e+00 0.0000000000000000e+00  1.1256631998906559e-01 -1.6714960015045561e+00 0.0000000000000000e+00  1.1130230180791562e-01 -1.6648096578821829e+00 0.0000000000000000e+00  1.1083543226119044e-01 -1.6657479660699011e+00 0.0000000000000000e+00  1.0975074410787573e-01 -1.6608178024272178e+00 0.0000000000000000e+00  1.0914306314593475e-01 -1.6604955990874739e+00 0.0000000000000000e+00  1.0817045400975239e-01 -1.6566999491470373e+00 0.0000000000000000e+00  1.0747619935864335e-01 -1.6556279263431730e+00 0.0000000000000000e+00  1.0657187715671260e-01 -1.6525602256265957e+00 0.0000000000000000e+00  1.0582580240438710e-01 -1.6510695089473904e+00 0.0000000000000000e+00  1.0496203114329006e-01 -1.6484717134274653e+00 0.0000000000000000e+00  1.0418577753344527e-01 -1.6467715520385817e+00 0.0000000000000000e+00  1.0334546142037275e-01 -1.6444848573885626e+00 0.0000000000000000e+00  1.0255212412357528e-01 -1.6427043500637279e+00 0.0000000000000000e+00  1.0172500674774332e-01 -1.6406342019695974e+00 0.0000000000000000e+00  1.0092228302368077e-01 -1.6388512958316930e+00 0.0000000000000000e+00  1.0010237862250009e-01 -1.6369434640405567e+00 0.0000000000000000e+00  9.9294663724985896e-02 -1.6352043691770128e+00 0.0000000000000000e+00  9.8478582447323243e-02 -1.6334291314846614e+00 0.0000000000000000e+00  9.7668320310271520e-02 -1.6317608645942769e+00 0.0000000000000000e+00  9.6854215252485484e-02 -1.6301028576069549e+00 0.0000000000000000e+00  9.6042743865412644e-02 -1.6285210550478921e+00 0.0000000000000000e+00  9.5229673632453160e-02 -1.6269729256312886e+00 0.0000000000000000e+00  9.4417742473971653e-02 -1.6254865019186597e+00 0.0000000000000000e+00  9.3605302051436773e-02 -1.6240450052507984e+00 0.0000000000000000e+00  9.2793385224840347e-02 -1.6226587686430907e+00 0.0000000000000000e+00  9.1981506361702353e-02 -1.6213223605746521e+00 0.0000000000000000e+00  9.1169993780272476e-02 -1.6200383358514945e+00 0.0000000000000000e+00  9.0358851136867924e-02 -1.6188056180642176e+00 0.0000000000000000e+00  8.9548171894626036e-02 -1.6176235463776696e+00 0.0000000000000000e+00  8.8738154912353581e-02 -1.6164921518695299e+00 0.0000000000000000e+00  8.7928867863146590e-02 -1.6154094405917054e+00 0.0000000000000000e+00  8.7120594950348310e-02 -1.6143750928005518e+00 0.0000000000000000e+00  8.6313467835476332e-02 -1.6133863693517532e+00 0.0000000000000000e+00  8.5507830684745212e-02 -1.6124419354055493e+00 0.0000000000000000e+00  8.4703920170075192e-02 -1.6115382871259183e+00 0.0000000000000000e+00  8.3902151770217592e-02 -1.6106727109070447e+00 0.0000000000000000e+00  8.3102891417195526e-02 -1.6098406479863985e+00 0.0000000000000000e+00  8.2306652795881619e-02 -1.6090377082145020e+00 0.0000000000000000e+00  8.1513951293588308e-02 -1.6082578778540644e+00 0.0000000000000000e+00  8.0725430961300415e-02 -1.6074947731799878e+00 0.0000000000000000e+00  7.9941776718758351e-02 -1.6067404901387796e+00 0.0000000000000000e+00  7.9163793403554394e-02 -1.6059863201838871e+00 0.0000000000000000e+00  7.8392354189141769e-02 -1.6052220507933863e+00 0.0000000000000000e+00  7.7628447526697522e-02 -1.6044363528225341e+00 0.0000000000000000e+00  7.6873146792443378e-02 -1.6036163754450836e+00 0.0000000000000000e+00  7.6127634052187643e-02 -1.6027479776829809e+00 0.0000000000000000e+00  7.5393180974167223e-02 -1.6018155154573313e+00 0.0000000000000000e+00  7.4671155898442518e-02 -1.6008020232595639e+00 0.0000000000000000e+00  7.3963008100279462e-02 -1.5996891518274441e+00 0.0000000000000000e+00  7.3270263216245565e-02 -1.5984573551914316e+00 0.0000000000000000e+00  7.2594503014559733e-02 -1.5970859942111801e+00 0.0000000000000000e+00  7.1937348558882175e-02 -1.5955536067824696e+00 0.0000000000000000e+00  7.1300427786580287e-02 -1.5938382293889244e+00 0.0000000000000000e+00  7.0685341156569589e-02 -1.5919178581108842e+00 0.0000000000000000e+00  7.0093614077527677e-02 -1.5897710089387318e+00 0.0000000000000000e+00  6.9526644734035414e-02 -1.5873774035307409e+00 0.0000000000000000e+00  6.8985647533110081e-02 -1.5847186892641905e+00 0.0000000000000000e+00  6.8471596401621954e-02 -1.5817792047041561e+00 0.0000000000000000e+00  6.7985177035642594e-02 -1.5785466341497043e+00 0.0000000000000000e+00  6.7526751978511018e-02 -1.5750125288224448e+00 0.0000000000000000e+00  6.7096344632025448e-02 -1.5711725924376208e+00 0.0000000000000000e+00  6.6693646115728852e-02 -1.5670266900695871e+00 0.0000000000000000e+00  6.6318039643113877e-02 -1.5625786272194073e+00 0.0000000000000000e+00  6.5968643517865702e-02 -1.5578356880443402e+00 0.0000000000000000e+00  6.5644362421362207e-02 -1.5528080504658353e+00 0.0000000000000000e+00  6.5343942992321380e-02 -1.5475081311706600e+00 0.0000000000000000e+00  6.5066029444739354e-02 -1.5419499117893840e+00 0.0000000000000000e+00  6.4809211370640579e-02 -1.5361483475648876e+00 0.0000000000000000e+00  6.4572066747116588e-02 -1.5301188242852881e+00 0.0000000000000000e+00  6.4353194575742845e-02 -1.5238767358144338e+00 0.0000000000000000e+00  6.4151239428261980e-02 -1.5174371574367371e+00 0.0000000000000000e+00  6.3964910104787054e-02 -1.5108145900215719e+00 0.0000000000000000e+00  6.3792989063665234e-02 -1.5040228181279722e+00 0.0000000000000000e+00  6.3634339848923305e-02 -1.4970747941101410e+00 0.0000000000000000e+00  6.3487908616532002e-02 -1.4899825967534386e+00 0.0000000000000000e+00  6.3352722905343065e-02 -1.4827574264876340e+00 0.0000000000000000e+00  6.3227890439973802e-02 -1.4754096021467076e+00 0.0000000000000000e+00  6.3112593282740242e-02 -1.4679486177787360e+00 0.0000000000000000e+00  6.3006084624427763e-02 -1.4603831687837192e+00 0.0000000000000000e+00  6.2907683226418126e-02 -1.4527212088969459e+00 0.0000000000000000e+00  6.2816767370830279e-02 -1.4449700152902341e+00 0.0000000000000000e+00  6.2732771657872360e-02 -1.4371362194191628e+00 0.0000000000000000e+00  6.2655179941459832e-02 -1.4292258874029378e+00 0.0000000000000000e+00  6.2583522211626941e-02 -1.4212445524005177e+00 0.0000000000000000e+00  6.2517370255347662e-02 -1.4131972629124507e+00 0.0000000000000000e+00  6.2456332203215337e-02 -1.4050886461634482e+00 0.0000000000000000e+00  6.2400051457988416e-02 -1.3969229171900754e+00 0.0000000000000000e+00  6.2348201002285886e-02 -1.3887039463379813e+00 0.0000000000000000e+00  6.2300481581583626e-02 -1.3804352790066103e+00 0.0000000000000000e+00  6.2256619871943947e-02 -1.3721201556618279e+00 0.0000000000000000e+00  6.2216363477899501e-02 -1.3637615722662846e+00 0.0000000000000000e+00  6.2179482023669908e-02 -1.3553622645377184e+00 0.0000000000000000e+00  6.2145762912764912e-02 -1.3469247591829598e+00 0.0000000000000000e+00  6.2115009628981713e-02 -1.3384513938599487e+00 0.0000000000000000e+00  6.2087042695956891e-02 -1.3299443035813094e+00 0.0000000000000000e+00  6.2061694219578002e-02 -1.3214054880660955e+00 0.0000000000000000e+00  6.2038810224363437e-02 -1.3128367814750845e+00 0.0000000000000000e+00  6.2018248445636096e-02 -1.3042398789628808e+00 0.0000000000000000e+00  6.1999874914844752e-02 -1.2956163789974706e+00 0.0000000000000000e+00  6.1983568054731854e-02 -1.2869677310798113e+00 0.0000000000000000e+00  6.1969212735060737e-02 -1.2782953096955123e+00 0.0000000000000000e+00  6.1956701783557076e-02 -1.2696003950346879e+00 0.0000000000000000e+00  6.1945937749866779e-02 -1.2608841500092980e+00 0.0000000000000000e+00  6.1936825882111815e-02 -1.2521477082530184e+00 0.0000000000000000e+00  6.1929280723534263e-02 -1.2433920908916980e+00 0.0000000000000000e+00  6.1923222032882544e-02 -1.2346182571407116e+00 0.0000000000000000e+00  6.1918571462942197e-02 -1.2258271461493737e+00 0.0000000000000000e+00  6.1915260854977144e-02 -1.2170195721885344e+00 0.0000000000000000e+00  6.1913221912514485e-02 -1.2081963541345202e+00 0.0000000000000000e+00  6.1912390792452511e-02 -1.1993582579248259e+00 0.0000000000000000e+00  6.1912712128052570e-02 -1.1905059452507283e+00 0.0000000000000000e+00  6.1914126138943933e-02 -1.1816401357434339e+00 0.0000000000000000e+00  6.1916582385594048e-02 -1.1727614340154393e+00 0.0000000000000000e+00  6.1920033566356579e-02 -1.1638704069141326e+00 0.0000000000000000e+00  6.1924427447527269e-02 -1.1549676855470759e+00 0.0000000000000000e+00  6.1929725806807154e-02 -1.1460537266131468e+00 0.0000000000000000e+00  6.1935884842138238e-02 -1.1371290583296791e+00 0.0000000000000000e+00  6.1942860576606508e-02 -1.1281942132102560e+00 0.0000000000000000e+00  6.1950624299020138e-02 -1.1192495329547041e+00 0.0000000000000000e+00  6.1959132458770459e-02 -1.1102955471456921e+00 0.0000000000000000e+00  6.1968352255332058e-02 -1.1013326520860616e+00 0.0000000000000000e+00  6.1978260179159715e-02 -1.0923611277891492e+00 0.0000000000000000e+00  6.1988811412762600e-0