<?xml version="1.0"?>
<VTKFile type="UnstructuredGrid"  version="0.1"  >
<UnstructuredGrid>
<Piece  NumberOfPoints="801" NumberOfCells="800">
<Points>
<DataArray  type="Float64"  NumberOfComponents="3"  format="ascii">-5 0 0  -4.9875 0 0  -4.975 0 0  -4.9625 0 0  -4.95 0 0  -4.9375 0 0  -4.925 0 0  -4.9125 0 0  -4.9 0 0  -4.8875 0 0  -4.875 0 0  -4.8625 0 0  -4.85 0 0  -4.8375 0 0  -4.825 0 0  -4.8125 0 0  -4.8 0 0  -4.7875 0 0  -4.775 0 0  -4.7625 0 0  -4.75 0 0  -4.7375 0 0  -4.725 0 0  -4.7125 0 0  -4.7 0 0  -4.6875 0 0  -4.675 0 0  -4.6625 0 0  -4.65 0 0  -4.6375 0 0  -4.625 0 0  -4.6125 0 0  -4.6 0 0  -4.5875 0 0  -4.575 0 0  -4.5625 0 0  -4.55 0 0  -4.5375 0 0  -4.525 0 0  -4.5125 0 0  -4.5 0 0  -4.4875 0 0  -4.475 0 0  -4.4625 0 0  -4.45 0 0  -4.4375 0 0  -4.425 0 0  -4.4125 0 0  -4.4 0 0  -4.3875 0 0  -4.375 0 0  -4.3625 0 0  -4.35 0 0  -4.3375 0 0  -4.325 0 0  -4.3125 0 0  -4.3 0 0  -4.2875 0 0  -4.275 0 0  -4.2625 0 0  -4.25 0 0  -4.2375 0 0  -4.225 0 0  -4.2125 0 0  -4.2 0 0  -4.1875 0 0  -4.175 0 0  -4.1625 0 0  -4.15 0 0  -4.1375 0 0  -4.125 0 0  -4.1125 0 0  -4.1 0 0  -4.0875 0 0  -4.075 0 0  -4.0625 0 0  -4.05 0 0  -4.0375 0 0  -4.025 0 0  -4.0125 0 0  -4 0 0  -3.9875 0 0  -3.975 0 0  -3.9625 0 0  -3.95 0 0  -3.9375 0 0  -3.925 0 0  -3.9125 0 0  -3.9 0 0  -3.8875 0 0  -3.875 0 0  -3.8625 0 0  -3.85 0 0  -3.8375 0 0  -3.825 0 0  -3.8125 0 0  -3.8 0 0  -3.7875 0 0  -3.775 0 0  -3.7625 0 0  -3.75 0 0  -3.7375 0 0  -3.725 0 0  -3.7125 0 0  -3.7 0 0  -3.6875 0 0  -3.675 0 0  -3.6625 0 0  -3.65 0 0  -3.6375 0 0  -3.625 0 0  -3.6125 0 0  -3.6 0 0  -3.5875 0 0  -3.575 0 0  -3.5625 0 0  -3.55 0 0  -3.5375 0 0  -3.525 0 0  -3.5125 0 0  -3.5 0 0  -3.4875 0 0  -3.475 0 0  -3.4625 0 0  -3.45 0 0  -3.4375 0 0  -3.425 0 0  -3.4125 0 0  -3.4 0 0  -3.3875 0 0  -3.375 0 0  -3.3625 0 0  -3.35 0 0  -3.3375 0 0  -3.325 0 0  -3.3125 0 0  -3.3 0 0  -3.2875 0 0  -3.275 0 0  -3.2625 0 0  -3.25 0 0  -3.2375 0 0  -3.225 0 0  -3.2125 0 0  -3.2 0 0  -3.1875 0 0  -3.175 0 0  -3.1625 0 0  -3.15 0 0  -3.1375 0 0  -3.125 0 0  -3.1125 0 0  -3.1 0 0  -3.0875 0 0  -3.075 0 0  -3.0625 0 0  -3.05 0 0  -3.0375 0 0  -3.025 0 0  -3.0125 0 0  -3 0 0  -2.9875 0 0  -2.975 0 0  -2.9625 0 0  -2.95 0 0  -2.9375 0 0  -2.925 0 0  -2.9125 0 0  -2.9 0 0  -2.8875 0 0  -2.875 0 0  -2.8625 0 0  -2.85 0 0  -2.8375 0 0  -2.825 0 0  -2.8125 0 0  -2.8 0 0  -2.7875 0 0  -2.775 0 0  -2.7625 0 0  -2.75 0 0  -2.7375 0 0  -2.725 0 0  -2.7125 0 0  -2.7 0 0  -2.6875 0 0  -2.675 0 0  -2.6625 0 0  -2.65 0 0  -2.6375 0 0  -2.625 0 0  -2.6125 0 0  -2.6 0 0  -2.5875 0 0  -2.575 0 0  -2.5625 0 0  -2.55 0 0  -2.5375 0 0  -2.525 0 0  -2.5125 0 0  -2.5 0 0  -2.4875 0 0  -2.475 0 0  -2.4625 0 0  -2.45 0 0  -2.4375 0 0  -2.425 0 0  -2.4125 0 0  -2.4 0 0  -2.3875 0 0  -2.375 0 0  -2.3625 0 0  -2.35 0 0  -2.3375 0 0  -2.325 0 0  -2.3125 0 0  -2.3 0 0  -2.2875 0 0  -2.275 0 0  -2.2625 0 0  -2.25 0 0  -2.2375 0 0  -2.225 0 0  -2.2125 0 0  -2.2 0 0  -2.1875 0 0  -2.175 0 0  -2.1625 0 0  -2.15 0 0  -2.1375 0 0  -2.125 0 0  -2.1125 0 0  -2.1 0 0  -2.0875 0 0  -2.075 0 0  -2.0625 0 0  -2.05 0 0  -2.0375 0 0  -2.025 0 0  -2.0125 0 0  -2 0 0  -1.9875 0 0  -1.975 0 0  -1.9625 0 0  -1.95 0 0  -1.9375 0 0  -1.925 0 0  -1.9125 0 0  -1.9 0 0  -1.8875 0 0  -1.875 0 0  -1.8625 0 0  -1.85 0 0  -1.8375 0 0  -1.825 0 0  -1.8125 0 0  -1.8 0 0  -1.7875 0 0  -1.775 0 0  -1.7625 0 0  -1.75 0 0  -1.7375 0 0  -1.725 0 0  -1.7125 0 0  -1.7 0 0  -1.6875 0 0  -1.675 0 0  -1.6625 0 0  -1.65 0 0  -1.6375 0 0  -1.625 0 0  -1.6125 0 0  -1.6 0 0  -1.5875 0 0  -1.575 0 0  -1.5625 0 0  -1.55 0 0  -1.5375 0 0  -1.525 0 0  -1.5125 0 0  -1.5 0 0  -1.4875 0 0  -1.475 0 0  -1.4625 0 0  -1.45 0 0  -1.4375 0 0  -1.425 0 0  -1.4125 0 0  -1.4 0 0  -1.3875 0 0  -1.375 0 0  -1.3625 0 0  -1.35 0 0  -1.3375 0 0  -1.325 0 0  -1.3125 0 0  -1.3 0 0  -1.2875 0 0  -1.275 0 0  -1.2625 0 0  -1.25 0 0  -1.2375 0 0  -1.225 0 0  -1.2125 0 0  -1.2 0 0  -1.1875 0 0  -1.175 0 0  -1.1625 0 0  -1.15 0 0  -1.1375 0 0  -1.125 0 0  -1.1125 0 0  -1.1 0 0  -1.0875 0 0  -1.075 0 0  -1.0625 0 0  -1.05 0 0  -1.0375 0 0  -1.025 0 0  -1.0125 0 0  -1 0 0  -0.9874999999999998 0 0  -0.9749999999999996 0 0  -0.9625000000000004 0 0  -0.9500000000000002 0 0  -0.9375 0 0  -0.9249999999999998 0 0  -0.9124999999999996 0 0  -0.9000000000000004 0 0  -0.8875000000000002 0 0  -0.875 0 0  -0.8624999999999998 0 0  -0.8499999999999996 0 0  -0.8375000000000004 0 0  -0.8250000000000002 0 0  -0.8125 0 0  -0.7999999999999998 0 0  -0.7874999999999996 0 0  -0.7750000000000004 0 0  -0.7625000000000002 0 0  -0.75 0 0  -0.7374999999999998 0 0  -0.7249999999999996 0 0  -0.7125000000000004 0 0  -0.7000000000000002 0 0  -0.6875 0 0  -0.6749999999999998 0 0  -0.6624999999999996 0 0  -0.6500000000000004 0 0  -0.6375000000000002 0 0  -0.625 0 0  -0.6124999999999998 0 0  -0.5999999999999996 0 0  -0.5875000000000004 0 0  -0.5750000000000002 0 0  -0.5625 0 0  -0.5499999999999998 0 0  -0.5374999999999996 0 0  -0.5250000000000004 0 0  -0.5125000000000002 0 0  -0.5 0 0  -0.4874999999999998 0 0  -0.4749999999999996 0 0  -0.4625000000000004 0 0  -0.4500000000000002 0 0  -0.4375 0 0  -0.4249999999999998 0 0  -0.4124999999999996 0 0  -0.4000000000000004 0 0  -0.3875000000000002 0 0  -0.375 0 0  -0.3624999999999998 0 0  -0.3499999999999996 0 0  -0.3375000000000004 0 0  -0.3250000000000002 0 0  -0.3125 0 0  -0.2999999999999998 0 0  -0.2874999999999996 0 0  -0.2750000000000004 0 0  -0.2625000000000002 0 0  -0.25 0 0  -0.2374999999999998 0 0  -0.2249999999999996 0 0  -0.2125000000000004 0 0  -0.2000000000000002 0 0  -0.1875 0 0  -0.1749999999999998 0 0  -0.1624999999999996 0 0  -0.1500000000000004 0 0  -0.1375000000000002 0 0  -0.125 0 0  -0.1124999999999998 0 0  -0.09999999999999964 0 0  -0.08750000000000036 0 0  -0.07500000000000018 0 0  -0.0625 0 0  -0.04999999999999982 0 0  -0.03749999999999964 0 0  -0.02500000000000036 0 0  -0.01250000000000018 0 0  0 0 0  0.01250000000000018 0 0  0.02500000000000036 0 0  0.03749999999999964 0 0  0.04999999999999982 0 0  0.0625 0 0  0.07500000000000018 0 0  0.08750000000000036 0 0  0.09999999999999964 0 0  0.1124999999999998 0 0  0.125 0 0  0.1375000000000002 0 0  0.1500000000000004 0 0  0.1624999999999996 0 0  0.1749999999999998 0 0  0.1875 0 0  0.2000000000000002 0 0  0.2125000000000004 0 0  0.2249999999999996 0 0  0.2374999999999998 0 0  0.25 0 0  0.2625000000000002 0 0  0.2750000000000004 0 0  0.2874999999999996 0 0  0.2999999999999998 0 0  0.3125 0 0  0.3250000000000002 0 0  0.3375000000000004 0 0  0.3499999999999996 0 0  0.3624999999999998 0 0  0.375 0 0  0.3875000000000002 0 0  0.4000000000000004 0 0  0.4124999999999996 0 0  0.4249999999999998 0 0  0.4375 0 0  0.4500000000000002 0 0  0.4625000000000004 0 0  0.4749999999999996 0 0  0.4874999999999998 0 0  0.5 0 0  0.5125000000000002 0 0  0.5250000000000004 0 0  0.5374999999999996 0 0  0.5499999999999998 0 0  0.5625 0 0  0.5750000000000002 0 0  0.5875000000000004 0 0  0.5999999999999996 0 0  0.6124999999999998 0 0  0.625 0 0  0.6375000000000002 0 0  0.6500000000000004 0 0  0.6624999999999996 0 0  0.6749999999999998 0 0  0.6875 0 0  0.7000000000000002 0 0  0.7125000000000004 0 0  0.7249999999999996 0 0  0.7374999999999998 0 0  0.75 0 0  0.7625000000000002 0 0  0.7750000000000004 0 0  0.7874999999999996 0 0  0.7999999999999998 0 0  0.8125 0 0  0.8250000000000002 0 0  0.8375000000000004 0 0  0.8499999999999996 0 0  0.8624999999999998 0 0  0.875 0 0  0.8875000000000002 0 0  0.9000000000000004 0 0  0.9124999999999996 0 0  0.9249999999999998 0 0  0.9375 0 0  0.9500000000000002 0 0  0.9625000000000004 0 0  0.9749999999999996 0 0  0.9874999999999998 0 0  1 0 0  1.0125 0 0  1.025 0 0  1.0375 0 0  1.05 0 0  1.0625 0 0  1.075 0 0  1.0875 0 0  1.1 0 0  1.1125 0 0  1.125 0 0  1.1375 0 0  1.15 0 0  1.1625 0 0  1.175 0 0  1.1875 0 0  1.2 0 0  1.2125 0 0  1.225 0 0  1.2375 0 0  1.25 0 0  1.2625 0 0  1.275 0 0  1.2875 0 0  1.3 0 0  1.3125 0 0  1.325 0 0  1.3375 0 0  1.35 0 0  1.3625 0 0  1.375 0 0  1.3875 0 0  1.4 0 0  1.4125 0 0  1.425 0 0  1.4375 0 0  1.45 0 0  1.4625 0 0  1.475 0 0  1.4875 0 0  1.5 0 0  1.5125 0 0  1.525 0 0  1.5375 0 0  1.55 0 0  1.5625 0 0  1.575 0 0  1.5875 0 0  1.6 0 0  1.6125 0 0  1.625 0 0  1.6375 0 0  1.65 0 0  1.6625 0 0  1.675 0 0  1.6875 0 0  1.7 0 0  1.7125 0 0  1.725 0 0  1.7375 0 0  1.75 0 0  1.7625 0 0  1.775 0 0  1.7875 0 0  1.8 0 0  1.8125 0 0  1.825 0 0  1.8375 0 0  1.85 0 0  1.8625 0 0  1.875 0 0  1.8875 0 0  1.9 0 0  1.9125 0 0  1.925 0 0  1.9375 0 0  1.95 0 0  1.9625 0 0  1.975 0 0  1.9875 0 0  2 0 0  2.0125 0 0  2.025 0 0  2.0375 0 0  2.05 0 0  2.0625 0 0  2.075 0 0  2.0875 0 0  2.1 0 0  2.1125 0 0  2.125 0 0  2.1375 0 0  2.15 0 0  2.1625 0 0  2.175 0 0  2.1875 0 0  2.2 0 0  2.2125 0 0  2.225 0 0  2.2375 0 0  2.25 0 0  2.2625 0 0  2.275 0 0  2.2875 0 0  2.3 0 0  2.3125 0 0  2.325 0 0  2.3375 0 0  2.35 0 0  2.3625 0 0  2.375 0 0  2.3875 0 0  2.4 0 0  2.4125 0 0  2.425 0 0  2.4375 0 0  2.45 0 0  2.4625 0 0  2.475 0 0  2.4875 0 0  2.5 0 0  2.5125 0 0  2.525 0 0  2.5375 0 0  2.55 0 0  2.5625 0 0  2.575 0 0  2.5875 0 0  2.6 0 0  2.6125 0 0  2.625 0 0  2.6375 0 0  2.65 0 0  2.6625 0 0  2.675 0 0  2.6875 0 0  2.7 0 0  2.7125 0 0  2.725 0 0  2.7375 0 0  2.75 0 0  2.7625 0 0  2.775 0 0  2.7875 0 0  2.8 0 0  2.8125 0 0  2.825 0 0  2.8375 0 0  2.85 0 0  2.8625 0 0  2.875 0 0  2.8875 0 0  2.9 0 0  2.9125 0 0  2.925 0 0  2.9375 0 0  2.95 0 0  2.9625 0 0  2.975 0 0  2.9875 0 0  3 0 0  3.012499999999999 0 0  3.025 0 0  3.0375 0 0  3.050000000000001 0 0  3.0625 0 0  3.074999999999999 0 0  3.0875 0 0  3.1 0 0  3.112500000000001 0 0  3.125 0 0  3.137499999999999 0 0  3.15 0 0  3.1625 0 0  3.175000000000001 0 0  3.1875 0 0  3.199999999999999 0 0  3.2125 0 0  3.225 0 0  3.237500000000001 0 0  3.25 0 0  3.262499999999999 0 0  3.275 0 0  3.2875 0 0  3.300000000000001 0 0  3.3125 0 0  3.324999999999999 0 0  3.3375 0 0  3.35 0 0  3.362500000000001 0 0  3.375 0 0  3.387499999999999 0 0  3.4 0 0  3.4125 0 0  3.425000000000001 0 0  3.4375 0 0  3.449999999999999 0 0  3.4625 0 0  3.475 0 0  3.4875
[...]
<PointData  Vectors="(h, u)"> 
<DataArray  type="Float64"  Name="(h, u)"  NumberOfComponents="3" format="ascii">5.4999999999999959e-02 0.0000000000000000e+00 0.0000000000000000e+00  5.5000000000000000e-02 -4.9295920649659109e-16 0.0000000000000000e+00  5.4999999999999986e-02 -8.9567244811661699e-17 0.0000000000000000e+00  5.5000000000000042e-02 -1.0558773936685270e-15 0.0000000000000000e+00  5.5000000000000028e-02 3.0114921681823492e-16 0.0000000000000000e+00  5.5000000000000007e-02 -1.2660270124798034e-17 0.0000000000000000e+00  5.5000000000000042e-02 -1.2386139561055967e-15 0.0000000000000000e+00  5.5000000000000021e-02 -3.7639534024175292e-17 0.0000000000000000e+00  5.5000000000000042e-02 -1.3728167288888380e-15 0.0000000000000000e+00  5.5000000000000007e-02 2.9125589955947086e-16 0.0000000000000000e+00  5.5000000000000028e-02 -9.5329946618379192e-16 0.0000000000000000e+00  5.5000000000000028e-02 -4.2691836024616507e-16 0.0000000000000000e+00  5.5000000000000028e-02 -1.6124240034278966e-15 0.0000000000000000e+00  5.5000000000000035e-02 1.2656949980420176e-16 0.0000000000000000e+00  5.5000000000000028e-02 6.7540488939690302e-16 0.0000000000000000e+00  5.5000000000000028e-02 9.5682006878327851e-16 0.0000000000000000e+00  5.5000000000000021e-02 4.5994330081055451e-16 0.0000000000000000e+00  5.5000000000000021e-02 1.3388032039704858e-15 0.0000000000000000e+00  5.5000000000000014e-02 7.7482876302000788e-16 0.0000000000000000e+00  5.5000000000000014e-02 1.3380609088771608e-15 0.0000000000000000e+00  5.5000000000000007e-02 5.8555271513911604e-16 0.0000000000000000e+00  5.5000000000000007e-02 1.2791957368629292e-16 0.0000000000000000e+00  5.5000000000000007e-02 -1.0285594241381999e-16 0.0000000000000000e+00  5.5000000000000007e-02 1.6911743493792224e-16 0.0000000000000000e+00  5.5000000000000000e-02 -3.5962953421947723e-16 0.0000000000000000e+00  5.5000000000000028e-02 3.1739412763213939e-16 0.0000000000000000e+00  5.5000000000000000e-02 3.5652860421357278e-16 0.0000000000000000e+00  5.4999999999999986e-02 1.1362696580715990e-17 0.0000000000000000e+00  5.5000000000000035e-02 -2.7007231248501198e-16 0.0000000000000000e+00  5.5000000000000007e-02 -2.5840643473789425e-16 0.0000000000000000e+00  5.5000000000000014e-02 -5.0358380548108090e-16 0.0000000000000000e+00  5.4999999999999973e-02 -3.6413972522501408e-16 0.0000000000000000e+00  5.4999999999999993e-02 3.2753996630663632e-16 0.0000000000000000e+00  5.4999999999999938e-02 -6.9797044887208293e-16 0.0000000000000000e+00  5.4999999999999973e-02 1.1360061451186630e-15 0.0000000000000000e+00  5.4999999999999973e-02 -6.0665641922868576e-16 0.0000000000000000e+00  5.5000000000000007e-02 2.4808182538472179e-16 0.0000000000000000e+00  5.5000000000000007e-02 -3.1446741686808929e-17 0.0000000000000000e+00  5.5000000000000049e-02 -5.1346948062334234e-16 0.0000000000000000e+00  5.5000000000000049e-02 2.2196162445322351e-16 0.0000000000000000e+00  5.5000000000000021e-02 -1.6746367672683836e-16 0.0000000000000000e+00  5.5000000000000049e-02 -3.3123805023244579e-16 0.0000000000000000e+00  5.5000000000000014e-02 8.4157824789535863e-16 0.0000000000000000e+00  5.5000000000000042e-02 -2.0235868185780200e-17 0.0000000000000000e+00  5.5000000000000007e-02 1.6773881094107471e-15 0.0000000000000000e+00  5.5000000000000042e-02 -1.1502899879594395e-16 0.0000000000000000e+00  5.5000000000000007e-02 7.3076045692039834e-16 0.0000000000000000e+00  5.5000000000000028e-02 -8.7423592352426945e-16 0.0000000000000000e+00  5.5000000000000021e-02 -1.4153384523075104e-16 0.0000000000000000e+00  5.5000000000000042e-02 -1.0315065075561739e-15 0.0000000000000000e+00  5.5000000000000007e-02 -7.3392707204559720e-16 0.0000000000000000e+00  5.5000000000000007e-02 -4.0301658508175475e-16 0.0000000000000000e+00  5.5000000000000035e-02 -1.1381149626785963e-15 0.0000000000000000e+00  5.5000000000000014e-02 2.5986852679250047e-16 0.0000000000000000e+00  5.5000000000000035e-02 -7.3971965915074310e-16 0.0000000000000000e+00  5.5000000000000014e-02 9.8159495458753297e-16 0.0000000000000000e+00  5.5000000000000028e-02 -8.4799999493970576e-16 0.0000000000000000e+00  5.5000000000000021e-02 3.5087058261895984e-16 0.0000000000000000e+00  5.5000000000000028e-02 -8.3208570412269641e-16 0.0000000000000000e+00  5.5000000000000021e-02 -1.1346777457778744e-17 0.0000000000000000e+00  5.5000000000000028e-02 -3.7430431680869649e-16 0.0000000000000000e+00  5.5000000000000014e-02 7.0608421529703641e-17 0.0000000000000000e+00  5.5000000000000028e-02 -1.0239171287158086e-16 0.0000000000000000e+00  5.5000000000000014e-02 -1.3573532441879511e-16 0.0000000000000000e+00  5.5000000000000035e-02 2.7581910447628996e-16 0.0000000000000000e+00  5.5000000000000007e-02 2.3419386258670282e-16 0.0000000000000000e+00  5.5000000000000028e-02 -5.0960973253666789e-16 0.0000000000000000e+00  5.5000000000000014e-02 -1.2501047915282713e-16 0.0000000000000000e+00  5.5000000000000042e-02 1.1242813427155280e-16 0.0000000000000000e+00  5.5000000000000014e-02 4.8941325189461829e-16 0.0000000000000000e+00  5.5000000000000028e-02 1.1164730845317059e-15 0.0000000000000000e+00  5.5000000000000007e-02 -3.1120192979530046e-16 0.0000000000000000e+00  5.5000000000000028e-02 3.3018093011709235e-16 0.0000000000000000e+00  5.5000000000000007e-02 -3.3593162209587654e-16 0.0000000000000000e+00  5.5000000000000028e-02 -3.3914535062984745e-16 0.0000000000000000e+00  5.5000000000000014e-02 -7.1233756185423264e-16 0.0000000000000000e+00  5.5000000000000035e-02 4.9491836506364940e-16 0.0000000000000000e+00  5.5000000000000014e-02 5.9794508572247144e-16 0.0000000000000000e+00  5.5000000000000021e-02 9.5365928700341574e-16 0.0000000000000000e+00  5.5000000000000028e-02 3.7153482778844109e-16 0.0000000000000000e+00  5.5000000000000070e-02 -1.2020725821698324e-16 0.0000000000000000e+00  5.5000000000000035e-02 -5.5782882643281610e-16 0.0000000000000000e+00  5.5000000000000049e-02 5.8874028172572013e-16 0.0000000000000000e+00  5.5000000000000028e-02 1.1727748061464318e-16 0.0000000000000000e+00  5.5000000000000000e-02 8.3956665281944098e-17 0.0000000000000000e+00  5.5000000000000000e-02 -6.3073468859430877e-16 0.0000000000000000e+00  5.5000000000000035e-02 2.6109832030695278e-16 0.0000000000000000e+00  5.5000000000000014e-02 9.8658209292663690e-17 0.0000000000000000e+00  5.5000000000000028e-02 7.4668238535727649e-16 0.0000000000000000e+00  5.5000000000000007e-02 7.8164287759770357e-16 0.0000000000000000e+00  5.5000000000000021e-02 8.4865254570917208e-17 0.0000000000000000e+00  5.5000000000000007e-02 1.7305552926521069e-16 0.0000000000000000e+00  5.5000000000000021e-02 -2.8054846501759340e-16 0.0000000000000000e+00  5.5000000000000007e-02 4.7110859037843998e-16 0.0000000000000000e+00  5.5000000000000014e-02 -1.4226802988979581e-16 0.0000000000000000e+00  5.5000000000000007e-02 9.9952723703979570e-16 0.0000000000000000e+00  5.5000000000000007e-02 7.0326192774920802e-16 0.0000000000000000e+00  5.5000000000000000e-02 6.1288143587970726e-16 0.0000000000000000e+00  5.5000000000000007e-02 2.7919051619267457e-16 0.0000000000000000e+00  5.5000000000000000e-02 3.7428909383851313e-17 0.0000000000000000e+00  5.5000000000000014e-02 -3.8386028638628172e-16 0.0000000000000000e+00  5.5000000000000000e-02 -1.0283571498496465e-16 0.0000000000000000e+00  5.5000000000000028e-02 -6.7437144963766680e-16 0.0000000000000000e+00  5.5000000000000007e-02 -2.3259809576286653e-16 0.0000000000000000e+00  5.5000000000000028e-02 -9.0999955514873980e-16 0.0000000000000000e+00  5.5000000000000000e-02 -2.1170334833789572e-16 0.0000000000000000e+00  5.5000000000000000e-02 1.7199531049081939e-16 0.0000000000000000e+00  5.4999999999999973e-02 1.8824195246943822e-16 0.0000000000000000e+00  5.4999999999999931e-02 -1.5397103463881188e-16 0.0000000000000000e+00  5.5000000000000007e-02 5.9499951359198307e-16 0.0000000000000000e+00  5.5000000000000056e-02 -3.7374089582547906e-16 0.0000000000000000e+00  5.5000000000000070e-02 6.3607482541176234e-16 0.0000000000000000e+00  5.5000000000000000e-02 -1.1704085625936274e-15 0.0000000000000000e+00  5.5000000000000028e-02 5.9654933944200222e-16 0.0000000000000000e+00  5.5000000000000028e-02 -6.7064146322435863e-16 0.0000000000000000e+00  5.5000000000000014e-02 1.3538442278449822e-15 0.0000000000000000e+00  5.5000000000000007e-02 4.5568183560230793e-16 0.0000000000000000e+00  5.5000000000000007e-02 9.5600257823822650e-17 0.0000000000000000e+00  5.5000000000000007e-02 3.7576310127112377e-16 0.0000000000000000e+00  5.5000000000000007e-02 -6.6442903215441730e-16 0.0000000000000000e+00  5.5000000000000007e-02 3.3852339363687114e-16 0.0000000000000000e+00  5.5000000000000007e-02 -4.3279617112814402e-16 0.0000000000000000e+00  5.5000000000000000e-02 3.3898794003033874e-16 0.0000000000000000e+00  5.5000000000000007e-02 -3.3603614818049154e-17 0.0000000000000000e+00  5.5000000000000007e-02 4.0050330197329473e-16 0.0000000000000000e+00  5.5000000000000007e-02 -1.2004253924426283e-16 0.0000000000000000e+00  5.5000000000000007e-02 5.9615940039732046e-16 0.0000000000000000e+00  5.5000000000000000e-02 -2.7583087128697098e-16 0.0000000000000000e+00  5.5000000000000007e-02 1.5098422088953382e-16 0.0000000000000000e+00  5.5000000000000000e-02 -1.2134148393858641e-16 0.0000000000000000e+00  5.5000000000000007e-02 -8.2700116957189348e-16 0.0000000000000000e+00  5.5000000000000007e-02 -2.3973782062709218e-16 0.0000000000000000e+00  5.5000000000000014e-02 -3.6265164564010445e-16 0.0000000000000000e+00  5.5000000000000007e-02 7.6991027504439341e-16 0.0000000000000000e+00  5.5000000000000007e-02 -2.6275890877672631e-16 0.0000000000000000e+00  5.5000000000000007e-02 3.0901295568520673e-16 0.0000000000000000e+00  5.5000000000000007e-02 -1.5370528403518313e-16 0.0000000000000000e+00  5.5000000000000000e-02 1.1584204148002070e-16 0.0000000000000000e+00  5.5000000000000007e-02 2.3860378579119345e-16 0.0000000000000000e+00  5.5000000000000007e-02 -6.2026799654206795e-17 0.0000000000000000e+00  5.5000000000000007e-02 -9.6140260292086040e-17 0.0000000000000000e+00  5.5000000000000007e-02 -2.3333658150900575e-16 0.0000000000000000e+00  5.5000000000000007e-02 5.1340579464975644e-17 0.0000000000000000e+00  5.5000000000000007e-02 -1.4077711620441012e-16 0.0000000000000000e+00  5.5000000000000014e-02 9.0422921607821922e-17 0.0000000000000000e+00  5.5000000000000007e-02 1.7883703795006482e-16 0.0000000000000000e+00  5.5000000000000007e-02 5.8424647307418890e-16 0.0000000000000000e+00  5.4999999999999993e-02 -5.0632196764162428e-18 0.0000000000000000e+00  5.5000000000000007e-02 -1.4926813229537855e-16 0.0000000000000000e+00  5.5000000000000000e-02 3.9903824510557809e-17 0.0000000000000000e+00  5.5000000000000007e-02 -4.6606237201767584e-16 0.0000000000000000e+00  5.5000000000000000e-02 -2.0087860235697996e-16 0.0000000000000000e+00  5.5000000000000028e-02 3.3261676777728269e-16 0.0000000000000000e+00  5.4999999999999973e-02 -6.4986894120927559e-16 0.0000000000000000e+00  5.5000000000000125e-02 9.9156316201685219e-16 0.0000000000000000e+00  5.4999999999999938e-02 -9.8622374641936094e-16 0.0000000000000000e+00  5.4999999999999903e-02 -1.3306307955035776e-15 0.0000000000000000e+00  5.5000000000000979e-02 1.3230914871783600e-14 0.0000000000000000e+00  5.4999999999995781e-02 -5.6891471362670147e-14 0.0000000000000000e+00  5.5000000000015037e-02 2.0069083131683384e-13 0.0000000000000000e+00  5.4999999999951567e-02 -6.4755794752629865e-13 0.0000000000000000e+00  5.5000000000147341e-02 1.9711218686429260e-12 0.0000000000000000e+00  5.4999999999572405e-02 -5.7308368068099882e-12 0.0000000000000000e+00  5.5000000001187883e-02 1.5959772976396046e-11 0.0000000000000000e+00  5.4999999996861657e-02 -4.2366652753198656e-11 0.0000000000000000e+00  5.5000000007748483e-02 1.0555594678827518e-10 0.0000000000000000e+00  5.4999999982872548e-02 -2.3792639319199736e-10 0.0000000000000000e+00  5.5000000029790642e-02 4.3723619492451697e-10 0.0000000000000000e+00  5.4999999984777101e-02 -3.6587661049453492e-10 0.0000000000000000e+00  5.4999999796498646e-02 -2.0771810246066727e-09 0.0000000000000000e+00  5.5000001431440293e-02 1.6749286294391636e-08 0.0000000000000000e+00  5.4999993056424043e-02 -8.4823010281680609e-08 0.0000000000000000e+00  5.5000029168928051e-02 3.6797543569206981e-07 0.0000000000000000e+00  5.4999887138640451e-02 -1.4792134696078895e-06 0.0000000000000000e+00  5.5000411639727818e-02 5.7010684917764680e-06 0.0000000000000000e+00  5.4998574151433138e-02 -2.1491017738239186e-05 0.0000000000000000e+00  5.5004675496170677e-02 8.0375605818964210e-05 0.0000000000000000e+00  5.4985719817683062e-02 -3.0183110267994204e-04 0.0000000000000000e+00  5.5038906250807408e-02 1.1478728386120735e-03 0.0000000000000000e+00  5.4917539969036151e-02 -4.4636631877603269e-03 0.0000000000000000e+00  5.5042776302493837e-02 1.7667675730834474e-02 0.0000000000000000e+00  5.5969674099177837e-02 -7.2352717781757905e-02 0.0000000000000000e+00  4.7291429733536380e-02 2.9937409347397625e-01 0.0000000000000000e+00  1.1768560139832969e-01 -1.3084651065181976e+00 0.0000000000000000e+00  3.2420742653077533e-01 -3.0229710772752867e+00 0.0000000000000000e+00  3.6399832503460777e-01 -3.1923519818755830e+00 0.0000000000000000e+00  3.6816999829785829e-01 -3.2371510828564212e+00 0.0000000000000000e+00  3.7914751247874212e-01 -3.2910403212049752e+00 0.0000000000000000e+00  3.6886018338147170e-01 -3.2442635188547779e+00 0.0000000000000000e+00  3.7115744710129173e-01 -3.2596266858433078e+00 0.0000000000000000e+00  3.6687511680370766e-01 -3.2418993990423663e+00 0.0000000000000000e+00  3.6403796873347061e-01 -3.2313077391377627e+00 0.0000000000000000e+00  3.6213644436613407e-01 -3.2256742417896471e+00 0.0000000000000000e+00  3.5871879937887008e-01 -3.2120979005468930e+00 0.0000000000000000e+00  3.5648233905466731e-01 -3.2046708029491269e+00 0.0000000000000000e+00  3.5364473573859412e-01 -3.1940907967626715e+00 0.0000000000000000e+00  3.5098100292688800e-01 -3.1843921992112061e+00 0.0000000000000000e+00  3.4838541483001856e-01 -3.1750462582857861e+00 0.0000000000000000e+00  3.4567382889646031e-01 -3.1650643227006365e+00 0.0000000000000000e+00  3.4306937710015240e-01 -3.1556344544320480e+00 0.0000000000000000e+00  3.4041859791943069e-01 -3.1459440246758126e+00 0.0000000000000000e+00  3.3779177801272725e-01 -3.1363596176071553e+00 0.0000000000000000e+00  3.3517525835144407e-01 -3.1268205858911853e+00 0.0000000000000000e+00  3.3255782938016282e-01 -3.1172526876415936e+00 0.0000000000000000e+00  3.2995459818127726e-01 -3.1077533604123220e+00 0.0000000000000000e+00  3.2735593766291671e-01 -3.0982542379576996e+00 0.0000000000000000e+00  3.2476496439900593e-01 -3.0887896500424938e+00 0.0000000000000000e+00  3.2218309199705214e-01 -3.0793504508525946e+00 0.0000000000000000e+00  3.1960712492269527e-01 -3.0699362327448729e+00 0.0000000000000000e+00  3.1704049102426324e-01 -3.0605503324067675e+00 0.0000000000000000e+00  3.1448046783007710e-01 -3.0511924274046520e+00 0.0000000000000000e+00  3.1192910255632272e-01 -3.0418617446601233e+00 0.0000000000000000e+00  3.0938506384400127e-01 -3.0325613278998920e+00 0.0000000000000000e+00  3.0684928582470167e-01 -3.0232892627049224e+00 0.0000000000000000e+00  3.0432129340394132e-01 -3.0140477845425382e+00 0.0000000000000000e+00  3.0180129323160304e-01 -3.0048369000021822e+00 0.0000000000000000e+00  2.9928950713481045e-01 -2.9956565009471658e+00 0.0000000000000000e+00  2.9678542377787304e-01 -2.9865089475271405e+00 0.0000000000000000e+00  2.9429000810063632e-01 -2.9773918957113641e+00 0.0000000000000000e+00  2.9180199419240527e-01 -2.9683097908842422e+00 0.0000000000000000e+00  2.8932309389402461e-01 -2.9592583017251513e+00 0.0000000000000000e+00  2.8685131838065930e-01 -2.9502437590045418e+00 0.0000000000000000e+00  2.8438907073204667e-01 -2.9412600071206496e+00 0.0000000000000000e+00  2.8193371130361261e-01 -2.9323150998056478e+00 0.0000000000000000e+00  2.7948825542556943e-01 -2.9234012206327593e+00 0.0000000000000000e+00  2.7704949707306248e-01 -2.9145279694843613e+00 0.0000000000000000e+00  2.7462097897520654e-01 -2.9056860362215349e+00 0.0000000000000000e+00  2.7219901572871347e-01 -2.8968864022972451e+00 0.0000000000000000e+00  2.6978759262109903e-01 -2.8881183989899100e+00 0.0000000000000000e+00  2.6738263021102271e-01 -2.8793942670398258e+00 0.0000000000000000e+00  2.6498847514848900e-01 -2.8707020621712007e+00 0.0000000000000000e+00  2.6260073460817296e-01 -2.8620552134477344e+00 0.0000000000000000e+00  2.6022404142101996e-01 -2.8534405310044022e+00 0.0000000000000000e+00  2.5785376396154752e-01 -2.8448726060387077e+00 0.0000000000000000e+00  2.5549475257700260e-01 -2.8363369912827836e+00 0.0000000000000000e+00  2.5314220588795944e-01 -2.8278494417494886e+00 0.0000000000000000e+00  2.5080112831392232e-01 -2.8193942195147552e+00 0.0000000000000000e+00  2.4846661440664480e-01 -2.8109882476050139e+00 0.0000000000000000e+00  2.4614376170672603e-01 -2.8026144705679599e+00 0.0000000000000000e+00  2.4382762654585807e-01 -2.7942909534266938e+00 0.0000000000000000e+00  2.4152333727476136e-01 -2.7859993365646267e+00 0.0000000000000000e+00  2.3922598255218619e-01 -2.7777587325036315e+00 0.0000000000000000e+00  2.3694065311693346e-01 -2.7695495696518693e+00 0.0000000000000000e+00  2.3466255037557615e-01 -2.7613918034826455e+00 0.0000000000000000e+00  2.3239664779407998e-01 -2.7532648615742472e+00 0.0000000000000000e+00  2.3013835529440407e-01 -2.7451891849150587e+00 0.0000000000000000e+00  2.2789243332291981e-01 -2.7371435678698490e+00 0.0000000000000000e+00  2.2565461627591052e-01 -2.7291483883376819e+00 0.0000000000000000e+00  2.2342933595547657e-01 -2.7211823614112554e+00 0.0000000000000000e+00  2.2121279050063969e-01 -2.7132650356703465e+00 0.0000000000000000e+00  2.1900894633127213e-01 -2.7053757993093792e+00 0.0000000000000000e+00  2.1681462786801850e-01 -2.6975323829019944e+00 0.0000000000000000e+00  2.1463318128433304e-01 -2.6897157811602872e+00 0.0000000000000000e+00  2.1246223797549832e-01 -2.6819407259306258e+00 0.0000000000000000e+00  2.1030436004268416e-01 -2.6741908716667688e+00 0.0000000000000000e+00  2.0815817250949914e-01 -2.6664766593651894e+00 0.0000000000000000e+00  2.0602529779501919e-01 -2.6587854568248188e+00 0.0000000000000000e+00  2.0390552647609392e-01 -2.6511221533606641e+00 0.0000000000000000e+00  2.0179942024930081e-01 -2.6434786958986427e+00 0.0000000000000000e+00  1.9970806291777438e-01 -2.6358534023226903e+00 0.0000000000000000e+00  1.9763090365235947e-01 -2.6282432225724541e+00 0.0000000000000000e+00  1.9557036655169463e-01 -2.6206393903026535e+00 0.0000000000000000e+00  1.9352484495220976e-01 -2.6130435438058659e+00 0.0000000000000000e+00  1.9149803310333355e-01 -2.6054401045642113e+00 0.0000000000000000e+00  1.8948747233101038e-01 -2.5978340417634924e+00 0.0000000000000000e+00  1.8749791500177626e-01 -2.5902042238943106e+00 0.0000000000000000e+00  1.8552642281696660e-01 -2.5825563575417916e+00 0.0000000000000000e+00  1.8357844236681861e-01 -2.5748661075903150e+00 0.0000000000000000e+00  1.8165108521660969e-01 -2.5671361283244036e+00 0.0000000000000000e+00  1.7975003049330859e-01 -2.5593419586764408e+00 0.0000000000000000e+00  1.7787311543979908e-01 -2.5514782458848639e+00 0.0000000000000000e+00  1.7602580432159734e-01 -2.5435233907168828e+00 0.0000000000000000e+00  1.7420734828913575e-01 -2.5354588530727966e+00 0.0000000000000000e+00  1.7242264176540195e-01 -2.5272682025281838e+00 0.0000000000000000e+00  1.7067290494777271e-01 -2.5189153875777794e+00 0.0000000000000000e+00  1.6896241537786250e-01 -2.5103891303257453e+00 0.0000000000000000e+00  1.6729463911186915e-01 -2.5016335170729311e+00 0.0000000000000000e+00  1.6567351569388622e-01 -2.4926398912403407e+00 0.0000000000000000e+00  1.6410447935948724e-01 -2.4833343041158757e+00 0.0000000000000000e+00  1.6259156197663016e-01 -2.4737070369994059e+00 0.0000000000000000e+00  1.6114111262299805e-01 -2.4636740565638946e+00 0.0000000000000000e+00  1.5975748260704631e-01 -2.4