<?xml version="1.0"?>
<VTKFile type="UnstructuredGrid"  version="0.1"  >
<UnstructuredGrid>
<Piece  NumberOfPoints="801" NumberOfCells="800">
<Points>
<DataArray  type="Float64"  NumberOfComponents="3"  format="ascii">-5 0 0  -4.9875 0 0  -4.975 0 0  -4.9625 0 0  -4.95 0 0  -4.9375 0 0  -4.925 0 0  -4.9125 0 0  -4.9 0 0  -4.8875 0 0  -4.875 0 0  -4.8625 0 0  -4.85 0 0  -4.8375 0 0  -4.825 0 0  -4.8125 0 0  -4.8 0 0  -4.7875 0 0  -4.775 0 0  -4.7625 0 0  -4.75 0 0  -4.7375 0 0  -4.725 0 0  -4.7125 0 0  -4.7 0 0  -4.6875 0 0  -4.675 0 0  -4.6625 0 0  -4.65 0 0  -4.6375 0 0  -4.625 0 0  -4.6125 0 0  -4.6 0 0  -4.5875 0 0  -4.575 0 0  -4.5625 0 0  -4.55 0 0  -4.5375 0 0  -4.525 0 0  -4.5125 0 0  -4.5 0 0  -4.4875 0 0  -4.475 0 0  -4.4625 0 0  -4.45 0 0  -4.4375 0 0  -4.425 0 0  -4.4125 0 0  -4.4 0 0  -4.3875 0 0  -4.375 0 0  -4.3625 0 0  -4.35 0 0  -4.3375 0 0  -4.325 0 0  -4.3125 0 0  -4.3 0 0  -4.2875 0 0  -4.275 0 0  -4.2625 0 0  -4.25 0 0  -4.2375 0 0  -4.225 0 0  -4.2125 0 0  -4.2 0 0  -4.1875 0 0  -4.175 0 0  -4.1625 0 0  -4.15 0 0  -4.1375 0 0  -4.125 0 0  -4.1125 0 0  -4.1 0 0  -4.0875 0 0  -4.075 0 0  -4.0625 0 0  -4.05 0 0  -4.0375 0 0  -4.025 0 0  -4.0125 0 0  -4 0 0  -3.9875 0 0  -3.975 0 0  -3.9625 0 0  -3.95 0 0  -3.9375 0 0  -3.925 0 0  -3.9125 0 0  -3.9 0 0  -3.8875 0 0  -3.875 0 0  -3.8625 0 0  -3.85 0 0  -3.8375 0 0  -3.825 0 0  -3.8125 0 0  -3.8 0 0  -3.7875 0 0  -3.775 0 0  -3.7625 0 0  -3.75 0 0  -3.7375 0 0  -3.725 0 0  -3.7125 0 0  -3.7 0 0  -3.6875 0 0  -3.675 0 0  -3.6625 0 0  -3.65 0 0  -3.6375 0 0  -3.625 0 0  -3.6125 0 0  -3.6 0 0  -3.5875 0 0  -3.575 0 0  -3.5625 0 0  -3.55 0 0  -3.5375 0 0  -3.525 0 0  -3.5125 0 0  -3.5 0 0  -3.4875 0 0  -3.475 0 0  -3.4625 0 0  -3.45 0 0  -3.4375 0 0  -3.425 0 0  -3.4125 0 0  -3.4 0 0  -3.3875 0 0  -3.375 0 0  -3.3625 0 0  -3.35 0 0  -3.3375 0 0  -3.325 0 0  -3.3125 0 0  -3.3 0 0  -3.2875 0 0  -3.275 0 0  -3.2625 0 0  -3.25 0 0  -3.2375 0 0  -3.225 0 0  -3.2125 0 0  -3.2 0 0  -3.1875 0 0  -3.175 0 0  -3.1625 0 0  -3.15 0 0  -3.1375 0 0  -3.125 0 0  -3.1125 0 0  -3.1 0 0  -3.0875 0 0  -3.075 0 0  -3.0625 0 0  -3.05 0 0  -3.0375 0 0  -3.025 0 0  -3.0125 0 0  -3 0 0  -2.9875 0 0  -2.975 0 0  -2.9625 0 0  -2.95 0 0  -2.9375 0 0  -2.925 0 0  -2.9125 0 0  -2.9 0 0  -2.8875 0 0  -2.875 0 0  -2.8625 0 0  -2.85 0 0  -2.8375 0 0  -2.825 0 0  -2.8125 0 0  -2.8 0 0  -2.7875 0 0  -2.775 0 0  -2.7625 0 0  -2.75 0 0  -2.7375 0 0  -2.725 0 0  -2.7125 0 0  -2.7 0 0  -2.6875 0 0  -2.675 0 0  -2.6625 0 0  -2.65 0 0  -2.6375 0 0  -2.625 0 0  -2.6125 0 0  -2.6 0 0  -2.5875 0 0  -2.575 0 0  -2.5625 0 0  -2.55 0 0  -2.5375 0 0  -2.525 0 0  -2.5125 0 0  -2.5 0 0  -2.4875 0 0  -2.475 0 0  -2.4625 0 0  -2.45 0 0  -2.4375 0 0  -2.425 0 0  -2.4125 0 0  -2.4 0 0  -2.3875 0 0  -2.375 0 0  -2.3625 0 0  -2.35 0 0  -2.3375 0 0  -2.325 0 0  -2.3125 0 0  -2.3 0 0  -2.2875 0 0  -2.275 0 0  -2.2625 0 0  -2.25 0 0  -2.2375 0 0  -2.225 0 0  -2.2125 0 0  -2.2 0 0  -2.1875 0 0  -2.175 0 0  -2.1625 0 0  -2.15 0 0  -2.1375 0 0  -2.125 0 0  -2.1125 0 0  -2.1 0 0  -2.0875 0 0  -2.075 0 0  -2.0625 0 0  -2.05 0 0  -2.0375 0 0  -2.025 0 0  -2.0125 0 0  -2 0 0  -1.9875 0 0  -1.975 0 0  -1.9625 0 0  -1.95 0 0  -1.9375 0 0  -1.925 0 0  -1.9125 0 0  -1.9 0 0  -1.8875 0 0  -1.875 0 0  -1.8625 0 0  -1.85 0 0  -1.8375 0 0  -1.825 0 0  -1.8125 0 0  -1.8 0 0  -1.7875 0 0  -1.775 0 0  -1.7625 0 0  -1.75 0 0  -1.7375 0 0  -1.725 0 0  -1.7125 0 0  -1.7 0 0  -1.6875 0 0  -1.675 0 0  -1.6625 0 0  -1.65 0 0  -1.6375 0 0  -1.625 0 0  -1.6125 0 0  -1.6 0 0  -1.5875 0 0  -1.575 0 0  -1.5625 0 0  -1.55 0 0  -1.5375 0 0  -1.525 0 0  -1.5125 0 0  -1.5 0 0  -1.4875 0 0  -1.475 0 0  -1.4625 0 0  -1.45 0 0  -1.4375 0 0  -1.425 0 0  -1.4125 0 0  -1.4 0 0  -1.3875 0 0  -1.375 0 0  -1.3625 0 0  -1.35 0 0  -1.3375 0 0  -1.325 0 0  -1.3125 0 0  -1.3 0 0  -1.2875 0 0  -1.275 0 0  -1.2625 0 0  -1.25 0 0  -1.2375 0 0  -1.225 0 0  -1.2125 0 0  -1.2 0 0  -1.1875 0 0  -1.175 0 0  -1.1625 0 0  -1.15 0 0  -1.1375 0 0  -1.125 0 0  -1.1125 0 0  -1.1 0 0  -1.0875 0 0  -1.075 0 0  -1.0625 0 0  -1.05 0 0  -1.0375 0 0  -1.025 0 0  -1.0125 0 0  -1 0 0  -0.9874999999999998 0 0  -0.9749999999999996 0 0  -0.9625000000000004 0 0  -0.9500000000000002 0 0  -0.9375 0 0  -0.9249999999999998 0 0  -0.9124999999999996 0 0  -0.9000000000000004 0 0  -0.8875000000000002 0 0  -0.875 0 0  -0.8624999999999998 0 0  -0.8499999999999996 0 0  -0.8375000000000004 0 0  -0.8250000000000002 0 0  -0.8125 0 0  -0.7999999999999998 0 0  -0.7874999999999996 0 0  -0.7750000000000004 0 0  -0.7625000000000002 0 0  -0.75 0 0  -0.7374999999999998 0 0  -0.7249999999999996 0 0  -0.7125000000000004 0 0  -0.7000000000000002 0 0  -0.6875 0 0  -0.6749999999999998 0 0  -0.6624999999999996 0 0  -0.6500000000000004 0 0  -0.6375000000000002 0 0  -0.625 0 0  -0.6124999999999998 0 0  -0.5999999999999996 0 0  -0.5875000000000004 0 0  -0.5750000000000002 0 0  -0.5625 0 0  -0.5499999999999998 0 0  -0.5374999999999996 0 0  -0.5250000000000004 0 0  -0.5125000000000002 0 0  -0.5 0 0  -0.4874999999999998 0 0  -0.4749999999999996 0 0  -0.4625000000000004 0 0  -0.4500000000000002 0 0  -0.4375 0 0  -0.4249999999999998 0 0  -0.4124999999999996 0 0  -0.4000000000000004 0 0  -0.3875000000000002 0 0  -0.375 0 0  -0.3624999999999998 0 0  -0.3499999999999996 0 0  -0.3375000000000004 0 0  -0.3250000000000002 0 0  -0.3125 0 0  -0.2999999999999998 0 0  -0.2874999999999996 0 0  -0.2750000000000004 0 0  -0.2625000000000002 0 0  -0.25 0 0  -0.2374999999999998 0 0  -0.2249999999999996 0 0  -0.2125000000000004 0 0  -0.2000000000000002 0 0  -0.1875 0 0  -0.1749999999999998 0 0  -0.1624999999999996 0 0  -0.1500000000000004 0 0  -0.1375000000000002 0 0  -0.125 0 0  -0.1124999999999998 0 0  -0.09999999999999964 0 0  -0.08750000000000036 0 0  -0.07500000000000018 0 0  -0.0625 0 0  -0.04999999999999982 0 0  -0.03749999999999964 0 0  -0.02500000000000036 0 0  -0.01250000000000018 0 0  0 0 0  0.01250000000000018 0 0  0.02500000000000036 0 0  0.03749999999999964 0 0  0.04999999999999982 0 0  0.0625 0 0  0.07500000000000018 0 0  0.08750000000000036 0 0  0.09999999999999964 0 0  0.1124999999999998 0 0  0.125 0 0  0.1375000000000002 0 0  0.1500000000000004 0 0  0.1624999999999996 0 0  0.1749999999999998 0 0  0.1875 0 0  0.2000000000000002 0 0  0.2125000000000004 0 0  0.2249999999999996 0 0  0.2374999999999998 0 0  0.25 0 0  0.2625000000000002 0 0  0.2750000000000004 0 0  0.2874999999999996 0 0  0.2999999999999998 0 0  0.3125 0 0  0.3250000000000002 0 0  0.3375000000000004 0 0  0.3499999999999996 0 0  0.3624999999999998 0 0  0.375 0 0  0.3875000000000002 0 0  0.4000000000000004 0 0  0.4124999999999996 0 0  0.4249999999999998 0 0  0.4375 0 0  0.4500000000000002 0 0  0.4625000000000004 0 0  0.4749999999999996 0 0  0.4874999999999998 0 0  0.5 0 0  0.5125000000000002 0 0  0.5250000000000004 0 0  0.5374999999999996 0 0  0.5499999999999998 0 0  0.5625 0 0  0.5750000000000002 0 0  0.5875000000000004 0 0  0.5999999999999996 0 0  0.6124999999999998 0 0  0.625 0 0  0.6375000000000002 0 0  0.6500000000000004 0 0  0.6624999999999996 0 0  0.6749999999999998 0 0  0.6875 0 0  0.7000000000000002 0 0  0.7125000000000004 0 0  0.7249999999999996 0 0  0.7374999999999998 0 0  0.75 0 0  0.7625000000000002 0 0  0.7750000000000004 0 0  0.7874999999999996 0 0  0.7999999999999998 0 0  0.8125 0 0  0.8250000000000002 0 0  0.8375000000000004 0 0  0.8499999999999996 0 0  0.8624999999999998 0 0  0.875 0 0  0.8875000000000002 0 0  0.9000000000000004 0 0  0.9124999999999996 0 0  0.9249999999999998 0 0  0.9375 0 0  0.9500000000000002 0 0  0.9625000000000004 0 0  0.9749999999999996 0 0  0.9874999999999998 0 0  1 0 0  1.0125 0 0  1.025 0 0  1.0375 0 0  1.05 0 0  1.0625 0 0  1.075 0 0  1.0875 0 0  1.1 0 0  1.1125 0 0  1.125 0 0  1.1375 0 0  1.15 0 0  1.1625 0 0  1.175 0 0  1.1875 0 0  1.2 0 0  1.2125 0 0  1.225 0 0  1.2375 0 0  1.25 0 0  1.2625 0 0  1.275 0 0  1.2875 0 0  1.3 0 0  1.3125 0 0  1.325 0 0  1.3375 0 0  1.35 0 0  1.3625 0 0  1.375 0 0  1.3875 0 0  1.4 0 0  1.4125 0 0  1.425 0 0  1.4375 0 0  1.45 0 0  1.4625 0 0  1.475 0 0  1.4875 0 0  1.5 0 0  1.5125 0 0  1.525 0 0  1.5375 0 0  1.55 0 0  1.5625 0 0  1.575 0 0  1.5875 0 0  1.6 0 0  1.6125 0 0  1.625 0 0  1.6375 0 0  1.65 0 0  1.6625 0 0  1.675 0 0  1.6875 0 0  1.7 0 0  1.7125 0 0  1.725 0 0  1.7375 0 0  1.75 0 0  1.7625 0 0  1.775 0 0  1.7875 0 0  1.8 0 0  1.8125 0 0  1.825 0 0  1.8375 0 0  1.85 0 0  1.8625 0 0  1.875 0 0  1.8875 0 0  1.9 0 0  1.9125 0 0  1.925 0 0  1.9375 0 0  1.95 0 0  1.9625 0 0  1.975 0 0  1.9875 0 0  2 0 0  2.0125 0 0  2.025 0 0  2.0375 0 0  2.05 0 0  2.0625 0 0  2.075 0 0  2.0875 0 0  2.1 0 0  2.1125 0 0  2.125 0 0  2.1375 0 0  2.15 0 0  2.1625 0 0  2.175 0 0  2.1875 0 0  2.2 0 0  2.2125 0 0  2.225 0 0  2.2375 0 0  2.25 0 0  2.2625 0 0  2.275 0 0  2.2875 0 0  2.3 0 0  2.3125 0 0  2.325 0 0  2.3375 0 0  2.35 0 0  2.3625 0 0  2.375 0 0  2.3875 0 0  2.4 0 0  2.4125 0 0  2.425 0 0  2.4375 0 0  2.45 0 0  2.4625 0 0  2.475 0 0  2.4875 0 0  2.5 0 0  2.5125 0 0  2.525 0 0  2.5375 0 0  2.55 0 0  2.5625 0 0  2.575 0 0  2.5875 0 0  2.6 0 0  2.6125 0 0  2.625 0 0  2.6375 0 0  2.65 0 0  2.6625 0 0  2.675 0 0  2.6875 0 0  2.7 0 0  2.7125 0 0  2.725 0 0  2.7375 0 0  2.75 0 0  2.7625 0 0  2.775 0 0  2.7875 0 0  2.8 0 0  2.8125 0 0  2.825 0 0  2.8375 0 0  2.85 0 0  2.8625 0 0  2.875 0 0  2.8875 0 0  2.9 0 0  2.9125 0 0  2.925 0 0  2.9375 0 0  2.95 0 0  2.9625 0 0  2.975 0 0  2.9875 0 0  3 0 0  3.012499999999999 0 0  3.025 0 0  3.0375 0 0  3.050000000000001 0 0  3.0625 0 0  3.074999999999999 0 0  3.0875 0 0  3.1 0 0  3.112500000000001 0 0  3.125 0 0  3.137499999999999 0 0  3.15 0 0  3.1625 0 0  3.175000000000001 0 0  3.1875 0 0  3.199999999999999 0 0  3.2125 0 0  3.225 0 0  3.237500000000001 0 0  3.25 0 0  3.262499999999999 0 0  3.275 0 0  3.2875 0 0  3.300000000000001 0 0  3.3125 0 0  3.324999999999999 0 0  3.3375 0 0  3.35 0 0  3.362500000000001 0 0  3.375 0 0  3.387499999999999 0 0  3.4 0 0  3.4125 0 0  3.425000000000001 0 0  3.4375 0 0  3.449999999999999 0 0  3.4625 0 0  3.475 0 0  3.4875
[...]
<PointData  Vectors="(h, u)"> 
<DataArray  type="Float64"  Name="(h, u)"  NumberOfComponents="3" format="ascii">5.5000000000000049e-02 0.0000000000000000e+00 0.0000000000000000e+00  5.5000000000000049e-02 4.7041663574540089e-17 0.0000000000000000e+00  5.5000000000000049e-02 2.9958456648640297e-16 0.0000000000000000e+00  5.5000000000000042e-02 1.0289239782247712e-16 0.0000000000000000e+00  5.5000000000000035e-02 8.5837535663939573e-17 0.0000000000000000e+00  5.5000000000000035e-02 -1.0155181627142167e-16 0.0000000000000000e+00  5.5000000000000028e-02 -3.4594385139735281e-16 0.0000000000000000e+00  5.5000000000000028e-02 -4.3060977613817448e-16 0.0000000000000000e+00  5.5000000000000028e-02 -4.3960685522797240e-16 0.0000000000000000e+00  5.5000000000000028e-02 -2.3068294333852073e-16 0.0000000000000000e+00  5.5000000000000021e-02 -2.7257913115730667e-16 0.0000000000000000e+00  5.5000000000000028e-02 1.8106465306843877e-16 0.0000000000000000e+00  5.5000000000000014e-02 -1.3012203816171153e-16 0.0000000000000000e+00  5.5000000000000028e-02 -1.4249843171238710e-17 0.0000000000000000e+00  5.5000000000000021e-02 -1.7354589795462607e-16 0.0000000000000000e+00  5.5000000000000028e-02 -4.1472824877869900e-17 0.0000000000000000e+00  5.5000000000000014e-02 -1.2033695877456257e-16 0.0000000000000000e+00  5.5000000000000028e-02 -4.7959254308307893e-17 0.0000000000000000e+00  5.5000000000000014e-02 -3.1657657919587694e-16 0.0000000000000000e+00  5.5000000000000028e-02 -3.8463509317441984e-16 0.0000000000000000e+00  5.5000000000000028e-02 -1.2371477644393516e-16 0.0000000000000000e+00  5.5000000000000021e-02 -5.5174993398244894e-17 0.0000000000000000e+00  5.5000000000000028e-02 -1.9740676036564076e-16 0.0000000000000000e+00  5.5000000000000021e-02 2.3669977695694600e-17 0.0000000000000000e+00  5.5000000000000028e-02 -1.8159878832619962e-16 0.0000000000000000e+00  5.5000000000000021e-02 6.9862987620008751e-17 0.0000000000000000e+00  5.5000000000000028e-02 -1.2576249795304227e-16 0.0000000000000000e+00  5.5000000000000021e-02 1.0416548522699051e-16 0.0000000000000000e+00  5.5000000000000028e-02 -5.1666757221702009e-17 0.0000000000000000e+00  5.5000000000000021e-02 1.2070296482132251e-16 0.0000000000000000e+00  5.5000000000000028e-02 9.3772262487558689e-18 0.0000000000000000e+00  5.5000000000000021e-02 9.4712892192704534e-17 0.0000000000000000e+00  5.5000000000000028e-02 3.0320908265732356e-17 0.0000000000000000e+00  5.5000000000000021e-02 2.4621968837601866e-17 0.0000000000000000e+00  5.5000000000000028e-02 2.6594681011435162e-17 0.0000000000000000e+00  5.5000000000000021e-02 -4.9506452353381302e-17 0.0000000000000000e+00  5.5000000000000028e-02 4.0290649888255114e-17 0.0000000000000000e+00  5.5000000000000021e-02 -8.9601920088307620e-17 0.0000000000000000e+00  5.5000000000000028e-02 9.2374076753011872e-17 0.0000000000000000e+00  5.5000000000000021e-02 -9.9636156735165658e-17 0.0000000000000000e+00  5.5000000000000028e-02 2.0099373532475033e-16 0.0000000000000000e+00  5.5000000000000014e-02 -1.6747965072248842e-16 0.0000000000000000e+00  5.5000000000000042e-02 5.3062676119234432e-16 0.0000000000000000e+00  5.4999999999999979e-02 -5.9083424303207929e-16 0.0000000000000000e+00  5.5000000000000118e-02 1.5750241175307977e-15 0.0000000000000000e+00  5.4999999999999834e-02 -2.6851542175066780e-15 0.0000000000000000e+00  5.5000000000000430e-02 5.5643129455932606e-15 0.0000000000000000e+00  5.4999999999999237e-02 -1.0499380292770125e-14 0.0000000000000000e+00  5.5000000000001596e-02 2.1241284762313614e-14 0.0000000000000000e+00  5.4999999999996947e-02 -4.1341961300462153e-14 0.0000000000000000e+00  5.5000000000006002e-02 7.9989788139711818e-14 0.0000000000000000e+00  5.4999999999988572e-02 -1.5295820850783872e-13 0.0000000000000000e+00  5.5000000000021740e-02 2.8997015650499848e-13 0.0000000000000000e+00  5.4999999999959331e-02 -5.4318761294410346e-13 0.0000000000000000e+00  5.5000000000075482e-02 1.0074633502197990e-12 0.0000000000000000e+00  5.4999999999861181e-02 -1.8542272522698772e-12 0.0000000000000000e+00  5.5000000000255192e-02 3.4071231020932027e-12 0.0000000000000000e+00  5.4999999999526678e-02 -6.3208137903674157e-12 0.0000000000000000e+00  5.5000000000902702e-02 1.2053128981109941e-11 0.0000000000000000e+00  5.4999999998186513e-02 -2.4215681463488619e-11 0.0000000000000000e+00  5.5000000003934700e-02 5.2539246013897880e-11 0.0000000000000000e+00  5.4999999990667216e-02 -1.2462097036526764e-10 0.0000000000000000e+00  5.5000000024005118e-02 3.2053926581366065e-10 0.0000000000000000e+00  5.4999999934560284e-02 -8.7380841544282377e-10 0.0000000000000000e+00  5.5000000184404270e-02 2.4622790953561100e-09 0.0000000000000000e+00  5.4999999473022941e-02 -7.0361887393385955e-09 0.0000000000000000e+00  5.5000001509125623e-02 2.0147577610863837e-08 0.0000000000000000e+00  5.4999995697281860e-02 -5.7428780816506826e-08 0.0000000000000000e+00  5.5000012174902677e-02 1.6240608850259749e-07 0.0000000000000000e+00  5.4999965854777039e-02 -4.5489489707263651e-07 0.0000000000000000e+00  5.5000094893358942e-02 1.2606452392980041e-06 0.0000000000000000e+00  5.4999738531143517e-02 -3.4523325594594459e-06 0.0000000000000000e+00  5.5000715390661807e-02 9.3212906655078398e-06 0.0000000000000000e+00  5.4998049999863616e-02 -2.4698363958283152e-05 0.0000000000000000e+00  5.5005331064983551e-02 6.3577871153456072e-05 0.0000000000000000e+00  5.4985195604754622e-02 -1.5557670396544861e-04 0.0000000000000000e+00  5.5042652859797030e-02 3.4209071506763409e-04 0.0000000000000000e+00  5.4869058621999665e-02 -5.6285750240602850e-04 0.0000000000000000e+00  5.5437343790795568e-02 -1.2218020650033991e-04 0.0000000000000000e+00  5.3442273156554330e-02 7.0611617411430539e-03 0.0000000000000000e+00  6.0952247239255131e-02 -4.7586509215223866e-02 0.0000000000000000e+00  1.4422555605337051e-01 -1.3933072160051139e+00 0.0000000000000000e+00  2.4444010221927712e-01 -2.2737073886506098e+00 0.0000000000000000e+00  2.8857771901348622e-01 -2.5687804171455682e+00 0.0000000000000000e+00  3.1324958088345417e-01 -2.7167313121182439e+00 0.0000000000000000e+00  3.2089446522158771e-01 -2.7617151247535903e+00 0.0000000000000000e+00  3.2438641950265684e-01 -2.7834927754549290e+00 0.0000000000000000e+00  3.2456307097499937e-01 -2.7865700306120562e+00 0.0000000000000000e+00  3.2380805330941631e-01 -2.7848684616377644e+00 0.0000000000000000e+00  3.2258001304934836e-01 -2.7803197209455957e+00 0.0000000000000000e+00  3.2104975168085792e-01 -2.7743448787042544e+00 0.0000000000000000e+00  3.1951557017750659e-01 -2.7681353950929561e+00 0.0000000000000000e+00  3.1787020693837048e-01 -2.7614905530287563e+00 0.0000000000000000e+00  3.1625629996289062e-01 -2.7548505831678098e+00 0.0000000000000000e+00  3.1460712610179226e-01 -2.7481398485049624e+00 0.0000000000000000e+00  3.1297252558054978e-01 -2.7413958106035499e+00 0.0000000000000000e+00  3.1133314267049855e-01 -2.7346898712031846e+00 0.0000000000000000e+00  3.0969546238777884e-01 -2.7279423886102343e+00 0.0000000000000000e+00  3.0806612106082087e-01 -2.7212399346102507e+00 0.0000000000000000e+00  3.0643042384412367e-01 -2.7145195849257213e+00 0.0000000000000000e+00  3.0481079030281288e-01 -2.7078177171141897e+00 0.0000000000000000e+00  3.0317837136113535e-01 -2.7011325664283934e+00 0.0000000000000000e+00  3.0156835078235644e-01 -2.6944317169122805e+00 0.0000000000000000e+00  2.9993963640422244e-01 -2.6877828608125207e+00 0.0000000000000000e+00  2.9833903672792161e-01 -2.6810853006977178e+00 0.0000000000000000e+00  2.9671445665239082e-01 -2.6744713485242091e+00 0.0000000000000000e+00  2.9512283583159510e-01 -2.6677806138103128e+00 0.0000000000000000e+00  2.9350303528983279e-01 -2.6611986845116156e+00 0.0000000000000000e+00  2.9191968508518029e-01 -2.6545195585446337e+00 0.0000000000000000e+00  2.9030554576508555e-01 -2.6479654614888042e+00 0.0000000000000000e+00  2.8872952646229461e-01 -2.6413039389223538e+00 0.0000000000000000e+00  2.8712212654069458e-01 -2.6347723588460847e+00 0.0000000000000000e+00  2.8555233001904973e-01 -2.6281354003838913e+00 0.0000000000000000e+00  2.8395286872153025e-01 -2.6216202831585007e+00 0.0000000000000000e+00  2.8238811230308991e-01 -2.6150153237005851e+00 0.0000000000000000e+00  2.8079780171772484e-01 -2.6085104863320532e+00 0.0000000000000000e+00  2.7923695206971882e-01 -2.6019447262185964e+00 0.0000000000000000e+00  2.7765688021794799e-01 -2.5954446607941826e+00 0.0000000000000000e+00  2.7609900050181746e-01 -2.5889241948155699e+00 0.0000000000000000e+00  2.7452997889800579e-01 -2.5824249843209430e+00 0.0000000000000000e+00  2.7297448208046771e-01 -2.5759538735168084e+00 0.0000000000000000e+00  2.7141689785611928e-01 -2.5694540997545161e+00 0.0000000000000000e+00  2.6986368202970012e-01 -2.5630335312872230e+00 0.0000000000000000e+00  2.6831738298212443e-01 -2.5565350036934986e+00 0.0000000000000000e+00  2.6676691867140939e-01 -2.5501627225615309e+00 0.0000000000000000e+00  2.6523116128918267e-01 -2.5436708413452505e+00 0.0000000000000000e+00  2.6368450094716139e-01 -2.5373410421327534e+00 0.0000000000000000e+00  2.6215798958647524e-01 -2.5308646143579723e+00 0.0000000000000000e+00  2.6061667571788977e-01 -2.5245684494674556e+00 0.0000000000000000e+00  2.5909770934055637e-01 -2.5181188425194683e+00 0.0000000000000000e+00  2.5756357341600145e-01 -2.5118456121577362e+00 0.0000000000000000e+00  2.5605029762451492e-01 -2.5054352399951010e+00 0.0000000000000000e+00  2.5452516430404537e-01 -2.4991741934230660e+00 0.0000000000000000e+00  2.5301590021528469e-01 -2.4928144930109473e+00 0.0000000000000000e+00  2.5150123957598908e-01 -2.4865569932224263e+00 0.0000000000000000e+00  2.4999483342616635e-01 -2.4802562261317269e+00 0.0000000000000000e+00  2.4849142931182167e-01 -2.4739978627725132e+00 0.0000000000000000e+00  2.4698754485763838e-01 -2.4677592253130660e+00 0.0000000000000000e+00  2.4549526352934659e-01 -2.4615013452778389e+00 0.0000000000000000e+00  2.4399453189588394e-01 -2.4553219341619048e+00 0.0000000000000000e+00  2.4251227144966775e-01 -2.4490720641714683e+00 0.0000000000000000e+00  2.4101622931849551e-01 -2.4429431609669487e+00 0.0000000000000000e+00  2.3954210102989709e-01 -2.4367139642294005e+00 0.0000000000000000e+00  2.3805289041998001e-01 -2.4306228480348593e+00 0.0000000000000000e+00  2.3658462855598883e-01 -2.4244295938813831e+00 0.0000000000000000e+00  2.3510449615371415e-01 -2.4183626837587808e+00 0.0000000000000000e+00  2.3364002184809018e-01 -2.4122196652164369e+00 0.0000000000000000e+00  2.3217072777581885e-01 -2.4061663221261740e+00 0.0000000000000000e+00  2.3070872577092433e-01 -2.4000831049166451e+00 0.0000000000000000e+00  2.2925102677082598e-01 -2.3940390405418093e+00 0.0000000000000000e+00  2.2779135711371851e-01 -2.3880176985875008e+00 0.0000000000000000e+00  2.2634474120063233e-01 -2.3819868210095239e+00 0.0000000000000000e+00  2.2488852564244832e-01 -2.3760212399871437e+00 0.0000000000000000e+00  2.2345132490744909e-01 -2.3700150547386518e+00 0.0000000000000000e+00  2.2200063085265609e-01 -2.3640928763185420e+00 0.0000000000000000e+00  2.2057052674560518e-01 -2.3581272730715890e+00 0.0000000000000000e+00  2.1912770608229565e-01 -2.3522341797683599e+00 0.0000000000000000e+00  2.1770249548163773e-01 -2.3463244023805188e+00 0.0000000000000000e+00  2.1626937962152881e-01 -2.3404494681773480e+00 0.0000000000000000e+00  2.1484774357949038e-01 -2.3346049445499433e+00 0.0000000000000000e+00  2.1342498877596022e-01 -2.3287451036639717e+00 0.0000000000000000e+00  2.1200696153981680e-01 -2.3229661748515316e+00 0.0000000000000000e+00  2.1059382309627728e-01 -2.3171278915848581e+00 0.0000000000000000e+00  2.0918073997612630e-01 -2.3114060068799769e+00 0.0000000000000000e+00  2.0777540892255117e-01 -2.3056031457179951e+00 0.0000000000000000e+00  2.0636931103082240e-01 -2.2999247849030238e+00 0.0000000000000000e+00  2.0496971086444740e-01 -2.2941732627496689e+00 0.0000000000000000e+00  2.0357243216911999e-01 -2.2885261508813675e+00 0.0000000000000000e+00  2.0217714441557069e-01 -2.2828375592928998e+00 0.0000000000000000e+00  2.0078948526400964e-01 -2.2772164423956212e+00 0.0000000000000000e+00  1.9939837285716205e-01 -2.2715936089476325e+00 0.0000000000000000e+00  1.9801976344481664e-01 -2.2660027556208955e+00 0.0000000000000000e+00  1.9663397192516419e-01 -2.2604395531213086e+00 0.0000000000000000e+00  1.9526281281346883e-01 -2.2548905567296109e+00 0.0000000000000000e+00  1.9388412999409360e-01 -2.2493762380581401e+00 0.0000000000000000e+00  1.9251864802940846e-01 -2.2438821085607024e+00 0.0000000000000000e+00  1.9114855209335002e-01 -2.2384079715178404e+00 0.0000000000000000e+00  1.8978771290505689e-01 -2.2329766673222071e+00 0.0000000000000000e+00  1.8842663407837265e-01 -2.2275413662662338e+00 0.0000000000000000e+00  1.8707059744735088e-01 -2.2221724400880856e+00 0.0000000000000000e+00  1.8571781421348912e-01 -2.2167828614369540e+00 0.0000000000000000e+00  1.8436767556579425e-01 -2.2114691851714303e+00 0.0000000000000000e+00  1.8302188976716702e-01 -2.2061364130080587e+00 0.0000000000000000e+00  1.8167889041708021e-01 -2.2008698236747888e+00 0.0000000000000000e+00  1.8033909622493005e-01 -2.1956028450625666e+00 0.0000000000000000e+00  1.7900382782140634e-01 -2.1903799861689217e+00 0.0000000000000000e+00  1.7766989930947052e-01 -2.1851813007626286e+00 0.0000000000000000e+00  1.7634202395007043e-01 -2.1800058049161990e+00 0.0000000000000000e+00  1.7501465107302686e-01 -2.1748717574251546e+00 0.0000000000000000e+00  1.7369328481242680e-01 -2.1697515381924943e+00 0.0000000000000000e+00  1.7237336195004557e-01 -2.1646767625145933e+00 0.0000000000000000e+00  1.7105778661242363e-01 -2.1596187581777131e+00 0.0000000000000000e+00  1.6974575096511482e-01 -2.1546011302149366e+00 0.0000000000000000e+00  1.6843589887517671e-01 -2.1496076122538161e+00 0.0000000000000000e+00  1.6713151491573047e-01 -2.1446499587155392e+00 0.0000000000000000e+00  1.6582789465844219e-01 -2.1397189937731671e+00 0.0000000000000000e+00  1.6453058425293474e-01 -2.1348266758497045e+00 0.0000000000000000e+00  1.6323379504295588e-01 -2.1299557583095505e+00 0.0000000000000000e+00  1.6194316170164066e-01 -2.1251326921147027e+00 0.0000000000000000e+00  1.6065346139891282e-01 -2.1203220603941895e+00 0.0000000000000000e+00  1.5936954645732190e-01 -2.1155687121226676e+00 0.0000000000000000e+00  1.5808682105033137e-01 -2.1108216199516936e+00 0.0000000000000000e+00  1.5680993750990968e-01 -2.1061362592073247e+00 0.0000000000000000e+00  1.5553400770192374e-01 -2.1014565944447186e+00 0.0000000000000000e+00  1.5426440173470435e-01 -2.0968379515586215e+00 0.0000000000000000e+00  1.5299531289577856e-01 -2.0922279104874799e+00 0.0000000000000000e+00  1.5173300637590920e-01 -2.0876764736347488e+00 0.0000000000000000e+00  1.5047104636795358e-01 -2.0831363386754087e+00 0.0000000000000000e+00  1.4921595767719875e-01 -2.0786534551747482e+00 0.0000000000000000e+00  1.4796147356555134e-01 -2.0741829857378580e+00 0.0000000000000000e+00  1.4671362009793631e-01 -2.0697692728679278e+00 0.0000000000000000e+00  1.4546688113232867e-01 -2.0653687610266380e+00 0.0000000000000000e+00  1.4422644888244213e-01 -2.0610235503990775e+00 0.0000000000000000e+00  1.4298767718905536e-01 -2.0566935333807161e+00 0.0000000000000000e+00  1.4175495306936042e-01 -2.0524154229643452e+00 0.0000000000000000e+00  1.4052443034136919e-01 -2.0481557595772597e+00 0.0000000000000000e+00  1.3929973758000549e-01 -2.0439431484498454e+00 0.0000000000000000e+00  1.3807785758906135e-01 -2.0397525217027250e+00 0.0000000000000000e+00  1.3686157355217399e-01 -2.0356034590281156e+00 0.0000000000000000e+00  1.3564882943525794e-01 -2.0314794160565119e+00 0.0000000000000000e+00  1.3444144407978831e-01 -2.0273910870904897e+00 0.0000000000000000e+00  1.3323841778810419e-01 -2.0233300664752742e+00 0.0000000000000000e+00  1.3204057418063844e-01 -2.0192983976395973e+00 0.0000000000000000e+00  1.3084796162750412e-01 -2.0152954559686673e+00 0.0000000000000000e+00  1.2966047675153983e-01 -2.0113148569734802e+00 0.0000000000000000e+00  1.2847913250389981e-01 -2.0073632204353706e+00 0.0000000000000000e+00  1.2730302285329448e-01 -2.0034262547374975e+00 0.0000000000000000e+00  1.2613400733835423e-01 -1.9995168344689078e+00 0.0000000000000000e+00  1.2497053057091367e-01 -1.9956137149267870e+00 0.0000000000000000e+00  1.2381516083206612e-01 -1.9917345718638002e+00 0.0000000000000000e+00  1.2266587185415070e-01 -1.9878524875862036e+00 0.0000000000000000e+00  1.2152578294528603e-01 -1.9839881769445415e+00 0.0000000000000000e+00  1.2039259915294367e-01 -1.9801104910391569e+00 0.0000000000000000e+00  1.1926982284765163e-01 -1.9762412158975526e+00 0.0000000000000000e+00  1.1815511449602295e-01 -1.9723463838974373e+00 0.0000000000000000e+00  1.1705219816935675e-01 -1.9684467331740028e+00 0.0000000000000000e+00  1.1595891859710056e-01 -1.9645067920003139e+00 0.0000000000000000e+00  1.1487906991428236e-01 -1.9605441657397218e+00 0.0000000000000000e+00  1.1381089251771628e-01 -1.9565230803462517e+00 0.0000000000000000e+00  1.1275812196053764e-01 -1.9524560462774534e+00 0.0000000000000000e+00  1.1171958902724920e-01 -1.9483078707687300e+00 0.0000000000000000e+00  1.1069888609686236e-01 -1.9440841177566337e+00 0.0000000000000000e+00  1.0969560000747573e-01 -1.9397506859803457e+00 0.0000000000000000e+00  1.0871311772411203e-01 -1.9353048019146970e+00 0.0000000000000000e+00  1.0775186062585727e-01 -1.9307140304050396e+00 0.0000000000000000e+00  1.0681491164696622e-01 -1.9259670122349968e+00 0.0000000000000000e+00  1.0590345754219246e-01 -1.9210341779304507e+00 0.0000000000000000e+00  1.0502010559805118e-01 -1.9158969321868582e+00 0.0000000000000000e+00  1.0416658113031593e-01 -1.9105305656444564e+00 0.0000000000000000e+00  1.0334478784816320e-01 -1.9049120822822292e+00 0.0000000000000000e+00  1.0255665453638842e-01 -1.8990240649775671e+00 0.0000000000000000e+00  1.0180316006911533e-01 -1.8928427750775816e+00 0.0000000000000000e+00  1.0108608450126513e-01 -1.8863601918734720e+00 0.0000000000000000e+00  1.0040535202565268e-01 -1.8795553136542065e+00 0.0000000000000000e+00  9.9762323149438781e-02 -1.8724304297988315e+00 0.0000000000000000e+00  9.9155893978221693e-02 -1.8649696620635632e+00 0.0000000000000000e+00  9.8586875211297317e-02 -1.8571848458503293e+00 0.0000000000000000e+00  9.8053323795917566e-02 -1.8490661433009461e+00 0.0000000000000000e+00  9.7555504974035478e-02 -1.8406326765183785e+00 0.0000000000000000e+00  9.7090932363604915e-02 -1.8318803531964576e+00 0.0000000000000000e+00  9.6659411612314686e-02 -1.8228325267051835e+00 0.0000000000000000e+00  9.6258234730771913e-02 -1.8134899260053736e+00 0.0000000000000000e+00  9.5886855682547553e-02 -1.8038770795685797e+00 0.0000000000000000e+00  9.5542625474996951e-02 -1.7939985024567615e+00 0.0000000000000000e+00  9.5224739178122519e-02 -1.7838774048521457e+00 0.0000000000000000e+00  9.4930810859357381e-02 -1.7735212087971328e+00 0.0000000000000000e+00  9.4659844018103054e-02 -1.7629501206086156e+00 0.0000000000000000e+00  9.4409836002498138e-02 -1.7521737864459197e+00 0.0000000000000000e+00  9.4179647069367184e-02 -1.7412085336951408e+00 0.0000000000000000e+00  9.3967703634119465e-02 -1.7300656714751581e+00 0.0000000000000000e+00  9.3772763514058582e-02 -1.7187574571351862e+00 0.0000000000000000e+00  9.3593669849286465e-02 -1.7072963320502696e+00 0.0000000000000000e+00  9.3429120247230407e-02 -1.6956908037865441e+00 0.0000000000000000e+00  9.3278321703440026e-02 -1.6839538894948649e+00 0.0000000000000000e+00  9.3139958952128524e-02 -1.6720910035431502e+00 0.0000000000000000e+00  9.3013525910825734e-02 -1.6601151486197299e+00 0.0000000000000000e+00  9.2897745616752833e-02 -1.6480294790240120e+00 0.0000000000000000e+00  9.2792312320909842e-02 -1.6358463909939709e+00 0.0000000000000000e+00  9.2696037865495906e-02 -1.6235676502578678e+00 0.0000000000000000e+00  9.2608732529791821e-02 -1.6112045079627955e+00 0.0000000000000000e+00  9.2529341013685221e-02 -1.5987581382029832e+0