<?xml version="1.0"?>
<VTKFile type="UnstructuredGrid"  version="0.1"  >
<UnstructuredGrid>
<Piece  NumberOfPoints="801" NumberOfCells="800">
<Points>
<DataArray  type="Float64"  NumberOfComponents="3"  format="ascii">-5 0 0  -4.9875 0 0  -4.975 0 0  -4.9625 0 0  -4.95 0 0  -4.9375 0 0  -4.925 0 0  -4.9125 0 0  -4.9 0 0  -4.8875 0 0  -4.875 0 0  -4.8625 0 0  -4.85 0 0  -4.8375 0 0  -4.825 0 0  -4.8125 0 0  -4.8 0 0  -4.7875 0 0  -4.775 0 0  -4.7625 0 0  -4.75 0 0  -4.7375 0 0  -4.725 0 0  -4.7125 0 0  -4.7 0 0  -4.6875 0 0  -4.675 0 0  -4.6625 0 0  -4.65 0 0  -4.6375 0 0  -4.625 0 0  -4.6125 0 0  -4.6 0 0  -4.5875 0 0  -4.575 0 0  -4.5625 0 0  -4.55 0 0  -4.5375 0 0  -4.525 0 0  -4.5125 0 0  -4.5 0 0  -4.4875 0 0  -4.475 0 0  -4.4625 0 0  -4.45 0 0  -4.4375 0 0  -4.425 0 0  -4.4125 0 0  -4.4 0 0  -4.3875 0 0  -4.375 0 0  -4.3625 0 0  -4.35 0 0  -4.3375 0 0  -4.325 0 0  -4.3125 0 0  -4.3 0 0  -4.2875 0 0  -4.275 0 0  -4.2625 0 0  -4.25 0 0  -4.2375 0 0  -4.225 0 0  -4.2125 0 0  -4.2 0 0  -4.1875 0 0  -4.175 0 0  -4.1625 0 0  -4.15 0 0  -4.1375 0 0  -4.125 0 0  -4.1125 0 0  -4.1 0 0  -4.0875 0 0  -4.075 0 0  -4.0625 0 0  -4.05 0 0  -4.0375 0 0  -4.025 0 0  -4.0125 0 0  -4 0 0  -3.9875 0 0  -3.975 0 0  -3.9625 0 0  -3.95 0 0  -3.9375 0 0  -3.925 0 0  -3.9125 0 0  -3.9 0 0  -3.8875 0 0  -3.875 0 0  -3.8625 0 0  -3.85 0 0  -3.8375 0 0  -3.825 0 0  -3.8125 0 0  -3.8 0 0  -3.7875 0 0  -3.775 0 0  -3.7625 0 0  -3.75 0 0  -3.7375 0 0  -3.725 0 0  -3.7125 0 0  -3.7 0 0  -3.6875 0 0  -3.675 0 0  -3.6625 0 0  -3.65 0 0  -3.6375 0 0  -3.625 0 0  -3.6125 0 0  -3.6 0 0  -3.5875 0 0  -3.575 0 0  -3.5625 0 0  -3.55 0 0  -3.5375 0 0  -3.525 0 0  -3.5125 0 0  -3.5 0 0  -3.4875 0 0  -3.475 0 0  -3.4625 0 0  -3.45 0 0  -3.4375 0 0  -3.425 0 0  -3.4125 0 0  -3.4 0 0  -3.3875 0 0  -3.375 0 0  -3.3625 0 0  -3.35 0 0  -3.3375 0 0  -3.325 0 0  -3.3125 0 0  -3.3 0 0  -3.2875 0 0  -3.275 0 0  -3.2625 0 0  -3.25 0 0  -3.2375 0 0  -3.225 0 0  -3.2125 0 0  -3.2 0 0  -3.1875 0 0  -3.175 0 0  -3.1625 0 0  -3.15 0 0  -3.1375 0 0  -3.125 0 0  -3.1125 0 0  -3.1 0 0  -3.0875 0 0  -3.075 0 0  -3.0625 0 0  -3.05 0 0  -3.0375 0 0  -3.025 0 0  -3.0125 0 0  -3 0 0  -2.9875 0 0  -2.975 0 0  -2.9625 0 0  -2.95 0 0  -2.9375 0 0  -2.925 0 0  -2.9125 0 0  -2.9 0 0  -2.8875 0 0  -2.875 0 0  -2.8625 0 0  -2.85 0 0  -2.8375 0 0  -2.825 0 0  -2.8125 0 0  -2.8 0 0  -2.7875 0 0  -2.775 0 0  -2.7625 0 0  -2.75 0 0  -2.7375 0 0  -2.725 0 0  -2.7125 0 0  -2.7 0 0  -2.6875 0 0  -2.675 0 0  -2.6625 0 0  -2.65 0 0  -2.6375 0 0  -2.625 0 0  -2.6125 0 0  -2.6 0 0  -2.5875 0 0  -2.575 0 0  -2.5625 0 0  -2.55 0 0  -2.5375 0 0  -2.525 0 0  -2.5125 0 0  -2.5 0 0  -2.4875 0 0  -2.475 0 0  -2.4625 0 0  -2.45 0 0  -2.4375 0 0  -2.425 0 0  -2.4125 0 0  -2.4 0 0  -2.3875 0 0  -2.375 0 0  -2.3625 0 0  -2.35 0 0  -2.3375 0 0  -2.325 0 0  -2.3125 0 0  -2.3 0 0  -2.2875 0 0  -2.275 0 0  -2.2625 0 0  -2.25 0 0  -2.2375 0 0  -2.225 0 0  -2.2125 0 0  -2.2 0 0  -2.1875 0 0  -2.175 0 0  -2.1625 0 0  -2.15 0 0  -2.1375 0 0  -2.125 0 0  -2.1125 0 0  -2.1 0 0  -2.0875 0 0  -2.075 0 0  -2.0625 0 0  -2.05 0 0  -2.0375 0 0  -2.025 0 0  -2.0125 0 0  -2 0 0  -1.9875 0 0  -1.975 0 0  -1.9625 0 0  -1.95 0 0  -1.9375 0 0  -1.925 0 0  -1.9125 0 0  -1.9 0 0  -1.8875 0 0  -1.875 0 0  -1.8625 0 0  -1.85 0 0  -1.8375 0 0  -1.825 0 0  -1.8125 0 0  -1.8 0 0  -1.7875 0 0  -1.775 0 0  -1.7625 0 0  -1.75 0 0  -1.7375 0 0  -1.725 0 0  -1.7125 0 0  -1.7 0 0  -1.6875 0 0  -1.675 0 0  -1.6625 0 0  -1.65 0 0  -1.6375 0 0  -1.625 0 0  -1.6125 0 0  -1.6 0 0  -1.5875 0 0  -1.575 0 0  -1.5625 0 0  -1.55 0 0  -1.5375 0 0  -1.525 0 0  -1.5125 0 0  -1.5 0 0  -1.4875 0 0  -1.475 0 0  -1.4625 0 0  -1.45 0 0  -1.4375 0 0  -1.425 0 0  -1.4125 0 0  -1.4 0 0  -1.3875 0 0  -1.375 0 0  -1.3625 0 0  -1.35 0 0  -1.3375 0 0  -1.325 0 0  -1.3125 0 0  -1.3 0 0  -1.2875 0 0  -1.275 0 0  -1.2625 0 0  -1.25 0 0  -1.2375 0 0  -1.225 0 0  -1.2125 0 0  -1.2 0 0  -1.1875 0 0  -1.175 0 0  -1.1625 0 0  -1.15 0 0  -1.1375 0 0  -1.125 0 0  -1.1125 0 0  -1.1 0 0  -1.0875 0 0  -1.075 0 0  -1.0625 0 0  -1.05 0 0  -1.0375 0 0  -1.025 0 0  -1.0125 0 0  -1 0 0  -0.9874999999999998 0 0  -0.9749999999999996 0 0  -0.9625000000000004 0 0  -0.9500000000000002 0 0  -0.9375 0 0  -0.9249999999999998 0 0  -0.9124999999999996 0 0  -0.9000000000000004 0 0  -0.8875000000000002 0 0  -0.875 0 0  -0.8624999999999998 0 0  -0.8499999999999996 0 0  -0.8375000000000004 0 0  -0.8250000000000002 0 0  -0.8125 0 0  -0.7999999999999998 0 0  -0.7874999999999996 0 0  -0.7750000000000004 0 0  -0.7625000000000002 0 0  -0.75 0 0  -0.7374999999999998 0 0  -0.7249999999999996 0 0  -0.7125000000000004 0 0  -0.7000000000000002 0 0  -0.6875 0 0  -0.6749999999999998 0 0  -0.6624999999999996 0 0  -0.6500000000000004 0 0  -0.6375000000000002 0 0  -0.625 0 0  -0.6124999999999998 0 0  -0.5999999999999996 0 0  -0.5875000000000004 0 0  -0.5750000000000002 0 0  -0.5625 0 0  -0.5499999999999998 0 0  -0.5374999999999996 0 0  -0.5250000000000004 0 0  -0.5125000000000002 0 0  -0.5 0 0  -0.4874999999999998 0 0  -0.4749999999999996 0 0  -0.4625000000000004 0 0  -0.4500000000000002 0 0  -0.4375 0 0  -0.4249999999999998 0 0  -0.4124999999999996 0 0  -0.4000000000000004 0 0  -0.3875000000000002 0 0  -0.375 0 0  -0.3624999999999998 0 0  -0.3499999999999996 0 0  -0.3375000000000004 0 0  -0.3250000000000002 0 0  -0.3125 0 0  -0.2999999999999998 0 0  -0.2874999999999996 0 0  -0.2750000000000004 0 0  -0.2625000000000002 0 0  -0.25 0 0  -0.2374999999999998 0 0  -0.2249999999999996 0 0  -0.2125000000000004 0 0  -0.2000000000000002 0 0  -0.1875 0 0  -0.1749999999999998 0 0  -0.1624999999999996 0 0  -0.1500000000000004 0 0  -0.1375000000000002 0 0  -0.125 0 0  -0.1124999999999998 0 0  -0.09999999999999964 0 0  -0.08750000000000036 0 0  -0.07500000000000018 0 0  -0.0625 0 0  -0.04999999999999982 0 0  -0.03749999999999964 0 0  -0.02500000000000036 0 0  -0.01250000000000018 0 0  0 0 0  0.01250000000000018 0 0  0.02500000000000036 0 0  0.03749999999999964 0 0  0.04999999999999982 0 0  0.0625 0 0  0.07500000000000018 0 0  0.08750000000000036 0 0  0.09999999999999964 0 0  0.1124999999999998 0 0  0.125 0 0  0.1375000000000002 0 0  0.1500000000000004 0 0  0.1624999999999996 0 0  0.1749999999999998 0 0  0.1875 0 0  0.2000000000000002 0 0  0.2125000000000004 0 0  0.2249999999999996 0 0  0.2374999999999998 0 0  0.25 0 0  0.2625000000000002 0 0  0.2750000000000004 0 0  0.2874999999999996 0 0  0.2999999999999998 0 0  0.3125 0 0  0.3250000000000002 0 0  0.3375000000000004 0 0  0.3499999999999996 0 0  0.3624999999999998 0 0  0.375 0 0  0.3875000000000002 0 0  0.4000000000000004 0 0  0.4124999999999996 0 0  0.4249999999999998 0 0  0.4375 0 0  0.4500000000000002 0 0  0.4625000000000004 0 0  0.4749999999999996 0 0  0.4874999999999998 0 0  0.5 0 0  0.5125000000000002 0 0  0.5250000000000004 0 0  0.5374999999999996 0 0  0.5499999999999998 0 0  0.5625 0 0  0.5750000000000002 0 0  0.5875000000000004 0 0  0.5999999999999996 0 0  0.6124999999999998 0 0  0.625 0 0  0.6375000000000002 0 0  0.6500000000000004 0 0  0.6624999999999996 0 0  0.6749999999999998 0 0  0.6875 0 0  0.7000000000000002 0 0  0.7125000000000004 0 0  0.7249999999999996 0 0  0.7374999999999998 0 0  0.75 0 0  0.7625000000000002 0 0  0.7750000000000004 0 0  0.7874999999999996 0 0  0.7999999999999998 0 0  0.8125 0 0  0.8250000000000002 0 0  0.8375000000000004 0 0  0.8499999999999996 0 0  0.8624999999999998 0 0  0.875 0 0  0.8875000000000002 0 0  0.9000000000000004 0 0  0.9124999999999996 0 0  0.9249999999999998 0 0  0.9375 0 0  0.9500000000000002 0 0  0.9625000000000004 0 0  0.9749999999999996 0 0  0.9874999999999998 0 0  1 0 0  1.0125 0 0  1.025 0 0  1.0375 0 0  1.05 0 0  1.0625 0 0  1.075 0 0  1.0875 0 0  1.1 0 0  1.1125 0 0  1.125 0 0  1.1375 0 0  1.15 0 0  1.1625 0 0  1.175 0 0  1.1875 0 0  1.2 0 0  1.2125 0 0  1.225 0 0  1.2375 0 0  1.25 0 0  1.2625 0 0  1.275 0 0  1.2875 0 0  1.3 0 0  1.3125 0 0  1.325 0 0  1.3375 0 0  1.35 0 0  1.3625 0 0  1.375 0 0  1.3875 0 0  1.4 0 0  1.4125 0 0  1.425 0 0  1.4375 0 0  1.45 0 0  1.4625 0 0  1.475 0 0  1.4875 0 0  1.5 0 0  1.5125 0 0  1.525 0 0  1.5375 0 0  1.55 0 0  1.5625 0 0  1.575 0 0  1.5875 0 0  1.6 0 0  1.6125 0 0  1.625 0 0  1.6375 0 0  1.65 0 0  1.6625 0 0  1.675 0 0  1.6875 0 0  1.7 0 0  1.7125 0 0  1.725 0 0  1.7375 0 0  1.75 0 0  1.7625 0 0  1.775 0 0  1.7875 0 0  1.8 0 0  1.8125 0 0  1.825 0 0  1.8375 0 0  1.85 0 0  1.8625 0 0  1.875 0 0  1.8875 0 0  1.9 0 0  1.9125 0 0  1.925 0 0  1.9375 0 0  1.95 0 0  1.9625 0 0  1.975 0 0  1.9875 0 0  2 0 0  2.0125 0 0  2.025 0 0  2.0375 0 0  2.05 0 0  2.0625 0 0  2.075 0 0  2.0875 0 0  2.1 0 0  2.1125 0 0  2.125 0 0  2.1375 0 0  2.15 0 0  2.1625 0 0  2.175 0 0  2.1875 0 0  2.2 0 0  2.2125 0 0  2.225 0 0  2.2375 0 0  2.25 0 0  2.2625 0 0  2.275 0 0  2.2875 0 0  2.3 0 0  2.3125 0 0  2.325 0 0  2.3375 0 0  2.35 0 0  2.3625 0 0  2.375 0 0  2.3875 0 0  2.4 0 0  2.4125 0 0  2.425 0 0  2.4375 0 0  2.45 0 0  2.4625 0 0  2.475 0 0  2.4875 0 0  2.5 0 0  2.5125 0 0  2.525 0 0  2.5375 0 0  2.55 0 0  2.5625 0 0  2.575 0 0  2.5875 0 0  2.6 0 0  2.6125 0 0  2.625 0 0  2.6375 0 0  2.65 0 0  2.6625 0 0  2.675 0 0  2.6875 0 0  2.7 0 0  2.7125 0 0  2.725 0 0  2.7375 0 0  2.75 0 0  2.7625 0 0  2.775 0 0  2.7875 0 0  2.8 0 0  2.8125 0 0  2.825 0 0  2.8375 0 0  2.85 0 0  2.8625 0 0  2.875 0 0  2.8875 0 0  2.9 0 0  2.9125 0 0  2.925 0 0  2.9375 0 0  2.95 0 0  2.9625 0 0  2.975 0 0  2.9875 0 0  3 0 0  3.012499999999999 0 0  3.025 0 0  3.0375 0 0  3.050000000000001 0 0  3.0625 0 0  3.074999999999999 0 0  3.0875 0 0  3.1 0 0  3.112500000000001 0 0  3.125 0 0  3.137499999999999 0 0  3.15 0 0  3.1625 0 0  3.175000000000001 0 0  3.1875 0 0  3.199999999999999 0 0  3.2125 0 0  3.225 0 0  3.237500000000001 0 0  3.25 0 0  3.262499999999999 0 0  3.275 0 0  3.2875 0 0  3.300000000000001 0 0  3.3125 0 0  3.324999999999999 0 0  3.3375 0 0  3.35 0 0  3.362500000000001 0 0  3.375 0 0  3.387499999999999 0 0  3.4 0 0  3.4125 0 0  3.425000000000001 0 0  3.4375 0 0  3.449999999999999 0 0  3.4625 0 0  3.475 0 0  3.4875
[...]
<PointData  Vectors="(h, u)"> 
<DataArray  type="Float64"  Name="(h, u)"  NumberOfComponents="3" format="ascii">1.0574153391840080e-01 0.0000000000000000e+00 0.0000000000000000e+00  1.0316528690294691e-01 3.5976469620825876e-03 0.0000000000000000e+00  1.0576056074035840e-01 9.1463257675139433e-03 0.0000000000000000e+00  1.0311967407432231e-01 1.0689078710008910e-02 0.0000000000000000e+00  1.0582240493629846e-01 1.8499373112139509e-02 0.0000000000000000e+00  1.0301854732230548e-01 1.7461693854036453e-02 0.0000000000000000e+00  1.0594106429859405e-01 2.8277375604714747e-02 0.0000000000000000e+00  1.0284351041332650e-01 2.3680698072230683e-02 0.0000000000000000e+00  1.0613856980181562e-01 3.8716564182300732e-02 0.0000000000000000e+00  1.0256993223654852e-01 2.9085603254761103e-02 0.0000000000000000e+00  1.0644239373589791e-01 5.0069450236165741e-02 0.0000000000000000e+00  1.0216971051275922e-01 3.3396306991408047e-02 0.0000000000000000e+00  1.0688160070015458e-01 6.2591771918837233e-02 0.0000000000000000e+00  1.0161486088881788e-01 3.6332200794077195e-02 0.0000000000000000e+00  1.0748245429456582e-01 7.6514270512369434e-02 0.0000000000000000e+00  1.0088238074517283e-01 3.7641265008188311e-02 0.0000000000000000e+00  1.0826387449302928e-01 9.2000043570138842e-02 0.0000000000000000e+00  9.9960035151495208e-02 3.7137717319061944e-02 0.0000000000000000e+00  1.0923236046752911e-01 1.0909766626766527e-01 0.0000000000000000e+00  9.8851905892104450e-02 3.4750178944547405e-02 0.0000000000000000e+00  1.1037613884916560e-01 1.2770393532790503e-01 0.0000000000000000e+00  9.7582759506086927e-02 3.0578000476673358e-02 0.0000000000000000e+00  1.1165976249378218e-01 1.4754213652639500e-01 0.0000000000000000e+00  9.6200989500714151e-02 2.4942557773710346e-02 0.0000000000000000e+00  1.1302161238533447e-01 1.6815358061778610e-01 0.0000000000000000e+00  9.4779538829533813e-02 1.8416199890148723e-02 0.0000000000000000e+00  1.1437606620914383e-01 1.8890579769748711e-01 0.0000000000000000e+00  9.3412844054716129e-02 1.1818836338340698e-02 0.0000000000000000e+00  1.1562020038906191e-01 2.0903219775511536e-01 0.0000000000000000e+00  9.2207778791502076e-02 6.1761885630401223e-03 0.0000000000000000e+00  1.1664422270907057e-01 2.2771191608467467e-01 0.0000000000000000e+00  9.1269235542351626e-02 2.6240939262611447e-03 0.0000000000000000e+00  1.1734577199654880e-01 2.4417371436447008e-01 0.0000000000000000e+00  9.0684033337296535e-02 2.2412389599652119e-03 0.0000000000000000e+00  1.1764775447777694e-01 2.5779514528759040e-01 0.0000000000000000e+00  9.0506820542827660e-02 5.8288749643906233e-03 0.0000000000000000e+00  1.1751562195596370e-01 2.6818682014465806e-01 0.0000000000000000e+00  9.0749282998059483e-02 1.3713293618284045e-02 0.0000000000000000e+00  1.1696686418203571e-01 2.7527079248330644e-01 0.0000000000000000e+00  9.1373749491002590e-02 2.5658041155412696e-02 0.0000000000000000e+00  1.1606856481273117e-01 2.7934073083654687e-01 0.0000000000000000e+00  9.2295111593502316e-02 4.0910641849925961e-02 0.0000000000000000e+00  1.1492581171178136e-01 2.8105313051056463e-01 0.0000000000000000e+00  9.3395107498791693e-02 5.8342248724557899e-02 0.0000000000000000e+00  1.1366572555206980e-01 2.8131432704674664e-01 0.0000000000000000e+00  9.4546277496161721e-02 7.6641772015760348e-02 0.0000000000000000e+00  1.1241744553463909e-01 2.8110466688146424e-01 0.0000000000000000e+00  9.5635451965274745e-02 9.4557549351415790e-02 0.0000000000000000e+00  1.1128792325807835e-01 2.8132014610865130e-01 0.0000000000000000e+00  9.6578844962368682e-02 1.1114666437249059e-01 0.0000000000000000e+00  1.1034160089445719e-01 2.8265083158590354e-01 0.0000000000000000e+00  9.7330255105111105e-02 1.2592634343227219e-01 0.0000000000000000e+00  1.0959614853586178e-01 2.8545900720730111e-01 0.0000000000000000e+00  9.7885684432390763e-02 1.3885637087438468e-01 0.0000000000000000e+00  1.0903449435182125e-01 2.8969148698560809e-01 0.0000000000000000e+00  9.8278856285022628e-02 1.5022082017339827e-01 0.0000000000000000e+00  1.0861848604148630e-01 2.9495127926122033e-01 0.0000000000000000e+00  9.8562004903750458e-02 1.6052216194420774e-01 0.0000000000000000e+00  1.0829587242137935e-01 3.0074144153184401e-01 0.0000000000000000e+00  9.8783300269998389e-02 1.7036324298779940e-01 0.0000000000000000e+00  1.0801143071300175e-01 3.0667806507158796e-01 0.0000000000000000e+00  9.8979008064430690e-02 1.8023085731598948e-01 0.0000000000000000e+00  1.0772881949451356e-01 3.1251283266246116e-01 0.0000000000000000e+00  9.9175910678717727e-02 1.9029915179686735e-01 0.0000000000000000e+00  1.0744307305147004e-01 3.1809652149664996e-01 0.0000000000000000e+00  9.9383618762860698e-02 2.0049142684154042e-01 0.0000000000000000e+00  1.0716714530669090e-01 3.2344113257984997e-01 0.0000000000000000e+00  9.9583993851613831e-02 2.1071069018762803e-01 0.0000000000000000e+00  1.0691470628306575e-01 3.2872533493854461e-01 0.0000000000000000e+00  9.9748053406263720e-02 2.2087121693681167e-01 0.0000000000000000e+00  1.0670214003579920e-01 3.3410105573204596e-01 0.0000000000000000e+00  9.9870261052480411e-02 2.3074812049602325e-01 0.0000000000000000e+00  1.0654495984563379e-01 3.3960007797896247e-01 0.0000000000000000e+00  9.9970678800588450e-02 2.4006537973881664e-01 0.0000000000000000e+00  1.0643091240829704e-01 3.4534404733717372e-01 0.0000000000000000e+00  1.0006908514650065e-01 2.4875150462946205e-01 0.0000000000000000e+00  1.0631763836952894e-01 3.5159850515969560e-01 0.0000000000000000e+00  1.0018607499141079e-01 2.5684445018449464e-01 0.0000000000000000e+00  1.0617557232703390e-01 3.5844157055399045e-01 0.0000000000000000e+00  1.0035506649556954e-01 2.6426516636829894e-01 0.0000000000000000e+00  1.0600140242634437e-01 3.6571811108760283e-01 0.0000000000000000e+00  1.0058859265901803e-01 2.7107283984096053e-01 0.0000000000000000e+00  1.0578606534164936e-01 3.7339466510558245e-01 0.0000000000000000e+00  1.0085525792795930e-01 2.7766164218939726e-01 0.0000000000000000e+00  1.0553138160979304e-01 3.8140293661998947e-01 0.0000000000000000e+00  1.0112489798455446e-01 2.8432185103284052e-01 0.0000000000000000e+00  1.0528773787853436e-01 3.8925180293818684e-01 0.0000000000000000e+00  1.0138068645233091e-01 2.9115774742350237e-01 0.0000000000000000e+00  1.0510078562096882e-01 3.9650825879590595e-01 0.0000000000000000e+00  1.0157864417228317e-01 2.9853581656648004e-01 0.0000000000000000e+00  1.0496971912008064e-01 4.0319117102831625e-01 0.0000000000000000e+00  1.0169067688808345e-01 3.0668964323678244e-01 0.0000000000000000e+00  1.0490675570244248e-01 4.0921528221307663e-01 0.0000000000000000e+00  1.0174954223525308e-01 3.1528147986006766e-01 0.0000000000000000e+00  1.0492519078872704e-01 4.1450539994569724e-01 0.0000000000000000e+00  1.0176065802837288e-01 3.2425663339236138e-01 0.0000000000000000e+00  1.0499426793000811e-01 4.1939903361312136e-01 0.0000000000000000e+00  1.0168292196930778e-01 3.3399422774547027e-01 0.0000000000000000e+00  1.0514147952406486e-01 4.2362843702016451e-01 0.0000000000000000e+00  1.0149860950346380e-01 3.4459674049083411e-01 0.0000000000000000e+00  1.0545516538770353e-01 4.2628333952266412e-01 0.0000000000000000e+00  1.0114612200665644e-01 3.5659069275098859e-01 0.0000000000000000e+00  1.0595219041375581e-01 4.2712058940904585e-01 0.0000000000000000e+00  1.0054860178771552e-01 3.7071692694449188e-01 0.0000000000000000e+00  1.0664162139125814e-01 4.2603087852870902e-01 0.0000000000000000e+00  9.9769758084609320e-02 3.8645586163615314e-01 0.0000000000000000e+00  1.0751160797494128e-01 4.2321116200022452e-01 0.0000000000000000e+00  9.8907732056937786e-02 4.0304258492207684e-01 0.0000000000000000e+00  1.0840083164808272e-01 4.2035257921858932e-01 0.0000000000000000e+00  9.8061680154577280e-02 4.1966875599594305e-01 0.0000000000000000e+00  1.0917871978937042e-01 4.1877546703315560e-01 0.0000000000000000e+00  9.7431386395565325e-02 4.3439570595423721e-01 0.0000000000000000e+00  1.0976067956912577e-01 4.1922378932943716e-01 0.0000000000000000e+00  9.7089305856887534e-02 4.4637179465044891e-01 0.0000000000000000e+00  1.1000289786466463e-01 4.2294222554719113e-01 0.0000000000000000e+00  9.7033557949407503e-02 4.5543084378480142e-01 0.0000000000000000e+00  1.0993491863570463e-01 4.2949844632210410e-01 0.0000000000000000e+00  9.7314972591254614e-02 4.6098122327883839e-01 0.0000000000000000e+00  1.0961868269311159e-01 4.3824572263883277e-01 0.0000000000000000e+00  9.7783875889086838e-02 4.6449073635660892e-01 0.0000000000000000e+00  1.0907862883630175e-01 4.4901665053826689e-01 0.0000000000000000e+00  9.8356138012433494e-02 4.6687799383503858e-01 0.0000000000000000e+00  1.0852113851750307e-01 4.5991529962365019e-01 0.0000000000000000e+00  9.8979996156127903e-02 4.6875712391394836e-01 0.0000000000000000e+00  1.0798755480753733e-01 4.7065145462906710e-01 0.0000000000000000e+00  9.9468942545533318e-02 4.7197517216872881e-01 0.0000000000000000e+00  1.0753159089712726e-01 4.8076649743078764e-01 0.0000000000000000e+00  9.9899875411573927e-02 4.7574145632770998e-01 0.0000000000000000e+00  1.0724380591651100e-01 4.8939901799575464e-01 0.0000000000000000e+00  1.0022567641109428e-01 4.8042661600348835e-01 0.0000000000000000e+00  1.0695306131312284e-01 4.9822644022600121e-01 0.0000000000000000e+00  1.0047610792054909e-01 4.8564897106282617e-01 0.0000000000000000e+00  1.0673282480417934e-01 5.0655227353760701e-01 0.0000000000000000e+00  1.0081428089125290e-01 4.8976477596832763e-01 0.0000000000000000e+00  1.0645680680586661e-01 5.1562256314174759e-01 0.0000000000000000e+00  1.0109893559787067e-01 4.9413949716619682e-01 0.0000000000000000e+00  1.0610809111256968e-01 5.2562236854282041e-01 0.0000000000000000e+00  1.0149334141806855e-01 4.9722746596711820e-01 0.0000000000000000e+00  1.0584483175579851e-01 5.3503635333483890e-01 0.0000000000000000e+00  1.0181114574946858e-01 5.0094357817189983e-01 0.0000000000000000e+00  1.0554223919355402e-01 5.4507114457256101e-01 0.0000000000000000e+00  1.0202660856695203e-01 5.0562668896484630e-01 0.0000000000000000e+00  1.0549817897860539e-01 5.5279527499075054e-01 0.0000000000000000e+00  1.0215757358259907e-01 5.1114192292129923e-01 0.0000000000000000e+00  1.0550820113182095e-01 5.6007651476781584e-01 0.0000000000000000e+00  1.0202774939781462e-01 5.1919056100843097e-01 0.0000000000000000e+00  1.0571339363836958e-01 5.6542854672745146e-01 0.0000000000000000e+00  1.0193859351515089e-01 5.2678601261222491e-01 0.0000000000000000e+00  1.0596479842800159e-01 5.7021781636452362e-01 0.0000000000000000e+00  1.0164654404126162e-01 5.3630211300419328e-01 0.0000000000000000e+00  1.0616237315060945e-01 5.7539865331570805e-01 0.0000000000000000e+00  1.0156822287475011e-01 5.4369587545780129e-01 0.0000000000000000e+00  1.0640967133832978e-01 5.8001158397048491e-01 0.0000000000000000e+00  1.0142502382975546e-01 5.5172138910486923e-01 0.0000000000000000e+00  1.0639953124655779e-01 5.8706078749573753e-01 0.0000000000000000e+00  1.0148241826790592e-01 5.5780906154064147e-01 0.0000000000000000e+00  1.0650297688080854e-01 5.9297377149705000e-01 0.0000000000000000e+00  1.0152443844084293e-01 5.6408092660882947e-01 0.0000000000000000e+00  1.0629888350475751e-01 6.0180837261970355e-01 0.0000000000000000e+00  1.0164963393510308e-01 5.6959843613414696e-01 0.0000000000000000e+00  1.0635327940695836e-01 6.0805736907606367e-01 0.0000000000000000e+00  1.0180797434313557e-01 5.7490762502496673e-01 0.0000000000000000e+00  1.0610313906939224e-01 6.1710312245509624e-01 0.0000000000000000e+00  1.0191311065040236e-01 5.8093058826635491e-01 0.0000000000000000e+00  1.0617788287712211e-01 6.2278150585071557e-01 0.0000000000000000e+00  1.0209813928694866e-01 5.8647860273533980e-01 0.0000000000000000e+00  1.0589464948929431e-01 6.3158031489657063e-01 0.0000000000000000e+00  1.0215700090774307e-01 5.9367385912315207e-01 0.0000000000000000e+00  1.0597775418675687e-01 6.3638795436470186e-01 0.0000000000000000e+00  1.0238496931092099e-01 5.9974916867604477e-01 0.0000000000000000e+00  1.0564077575342495e-01 6.4468514171976077e-01 0.0000000000000000e+00  1.0249247227471259e-01 6.0761478347805276e-01 0.0000000000000000e+00  1.0573907456669275e-01 6.4813280394130013e-01 0.0000000000000000e+00  1.0280870040119915e-01 6.1411603133015824e-01 0.0000000000000000e+00  1.0531753039005352e-01 6.5591805771850253e-01 0.0000000000000000e+00  1.0304689620321177e-01 6.2203209188099595e-01 0.0000000000000000e+00  1.0541394789359007e-01 6.5806408890432555e-01 0.0000000000000000e+00  1.0335472780052682e-01 6.2984836907013120e-01 0.0000000000000000e+00  1.0484054502170138e-01 6.6616581571079037e-01 0.0000000000000000e+00  1.0372657845087208e-01 6.3741845046650691e-01 0.0000000000000000e+00  1.0490922123925832e-01 6.6778745543330575e-01 0.0000000000000000e+00  1.0385994877326171e-01 6.4742010864604316e-01 0.0000000000000000e+00  1.0426025666345030e-01 6.7640539838874048e-01 0.0000000000000000e+00  1.0439592484716050e-01 6.5320206245279822e-01 0.0000000000000000e+00  1.0434000210200067e-01 6.7846270603933467e-01 0.0000000000000000e+00  1.0426086344911681e-01 6.6476586549561767e-01 0.0000000000000000e+00  1.0390808877970660e-01 6.8645575833788197e-01 0.0000000000000000e+00  1.0489855270942909e-01 6.6756126918507708e-01 0.0000000000000000e+00  1.0387254536297209e-01 6.9207852601793651e-01 0.0000000000000000e+00  1.0444601469698675e-01 6.7923239257761359e-01 0.0000000000000000e+00  1.0409985956804770e-01 6.9705318447412912e-01 0.0000000000000000e+00  1.0499320951336052e-01 6.7913164180651653e-01 0.0000000000000000e+00  1.0375880220917173e-01 7.0969666286379440e-01 0.0000000000000000e+00  1.0438754744492099e-01 6.8798025325157508e-01 0.0000000000000000e+00  1.0470499051218167e-01 7.1206985343317708e-01 0.0000000000000000e+00  1.0424936947086269e-01 6.9014000960757393e-01 0.0000000000000000e+00  1.0429537238659592e-01 7.2952444678779238e-01 0.0000000000000000e+00  1.0429444676619241e-01 6.8876475124959968e-01 0.0000000000000000e+00  1.0543704386460775e-01 7.3341747471376650e-01 0.0000000000000000e+00  1.0296897869970607e-01 6.9958302800019678e-01 0.0000000000000000e+00  1.0560697620701917e-01 7.4728720912877744e-01 0.0000000000000000e+00  1.0361075385762661e-01 6.9103776526498006e-01 0.0000000000000000e+00  1.0563524487784365e-01 7.6231116881601668e-01 0.0000000000000000e+00  1.0240784376502785e-01 7.0119691394901718e-01 0.0000000000000000e+00  1.0737887128190413e-01 7.5960400561790575e-01 0.0000000000000000e+00  1.0225379234085606e-01 7.0261827398516830e-01 0.0000000000000000e+00  1.0631529117772684e-01 7.8201338032371892e-01 0.0000000000000000e+00  1.0292283854272398e-01 6.9825478593871382e-01 0.0000000000000000e+00  1.0698454345963054e-01 7.8550853269139320e-01 0.0000000000000000e+00  1.0099652229722428e-01 7.2176868457795107e-01 0.0000000000000000e+00  1.0784194245222165e-01 7.8462070517484328e-01 0.0000000000000000e+00  1.0218305474402449e-01 7.1727199044449641e-01 0.0000000000000000e+00  1.0587119939309078e-01 8.0865226089908271e-01 0.0000000000000000e+00  1.0287576567539995e-01 7.1974259513535133e-01 0.0000000000000000e+00  1.0768998468586864e-01 7.9456431757761115e-01 0.0000000000000000e+00  1.0101809147473501e-01 7.4876681508417953e-01 0.0000000000000000e+00  1.0819242717692797e-01 7.9174064122287202e-01 0.0000000000000000e+00  1.0300829341148368e-01 7.4131023100973348e-01 0.0000000000000000e+00  1.0545631858791076e-01 8.1910388785313826e-01 0.0000000000000000e+00  1.0402372663376069e-01 7.4385770695616571e-01 0.0000000000000000e+00  1.0690824759400627e-01 8.0588834507494778e-01 0.0000000000000000e+00  1.0118359682220156e-01 7.8436901923840274e-01 0.0000000000000000e+00  1.0872142062673545e-01 7.8903229137684239e-01 0.0000000000000000e+00  1.0218195430344473e-01 7.8766442539703008e-01 0.0000000000000000e+00  1.0529428040697776e-01 8.2261357118028611e-01 0.0000000000000000e+00  1.0559998046844338e-01 7.6705612662622924e-01 0.0000000000000000e+00  1.0406048277917858e-01 8.3502847705475713e-01 0.0000000000000000e+00  1.0365322248302596e-01 7.9834146997257394e-01 0.0000000000000000e+00  1.0784983066760997e-01 7.9949508607357289e-01 0.0000000000000000e+00  1.0092621506443462e-01 8.3686886989400522e-01 0.0000000000000000e+00  1.0765659012870672e-01 8.0313130743903061e-01 0.0000000000000000e+00  1.0465765563537115e-01 8.1234461367084354e-01 0.0000000000000000e+00  1.0213683469508572e-01 8.5873770235890901e-01 0.0000000000000000e+00  1.0936191242508636e-01 7.7711691619172829e-01 0.0000000000000000e+00  9.9958471883923677e-02 8.8249389944375956e-01 0.0000000000000000e+00  1.0819103788640062e-01 7.9809729696235232e-01 0.0000000000000000e+00  1.0407620275531908e-01 8.4622532851652077e-01 0.0000000000000000e+00  1.0361896977974726e-01 8.5154013857980904e-01 0.0000000000000000e+00  1.0787485488455258e-01 8.1376949840440072e-01 0.0000000000000000e+00  1.0229926743037428e-01 8.7340111603838444e-01 0.0000000000000000e+00  1.0666464263966380e-01 8.3029324970559770e-01 0.0000000000000000e+00  1.0592498058562742e-01 8.4738454872644575e-01 0.0000000000000000e+00  1.0192321332654111e-01 8.8085407640644275e-01 0.0000000000000000e+00  1.1066774749311019e-01 8.1006228629932742e-01 0.0000000000000000e+00  9.7657215838479777e-02 9.2652111597125353e-01 0.0000000000000000e+00  1.1334955645858917e-01 7.9217689280496040e-01 0.0000000000000000e+00  9.6107157580738095e-02 9.4587416153525927e-01 0.0000000000000000e+00  1.1376145301550733e-01 7.9614639100450446e-01 0.0000000000000000e+00  9.6895862024644633e-02 9.4289129759548607e-01 0.0000000000000000e+00  1.1297291678812667e-01 8.1167816714142804e-01 0.0000000000000000e+00  9.8846692799541863e-02 9.2935764454197467e-01 0.0000000000000000e+00  1.1207622884225589e-01 8.2800350119917610e-01 0.0000000000000000e+00  1.0126702592062052e-01 9.1214153640186801e-01 0.0000000000000000e+00  1.1186360649286821e-01 8.3725586972409871e-01 0.0000000000000000e+00  1.0483221458348778e-01 8.8477628036537004e-01 0.0000000000000000e+00  1.1599868371273495e-01 8.0476594611099772e-01 0.0000000000000000e+00  1.0832286125773127e-01 8.5925721187437232e-01 0.0000000000000000e+00  1.1237719338394460e-01 8.4474802197792764e-01 0.0000000000000000e+00  1.0276977013796368e-01 9.1962976023728604e-01 0.0000000000000000e+00  1.1022521679809261e-01 8.7078824168816815e-01 0.0000000000000000e+00  9.9420230859218195e-02 9.5962408039794367e-01 0.0000000000000000e+00  1.1099929113084200e-01 8.6868325630625853e-01 0.0000000000000000e+00  9.4115122255347447e-02 1.0192194105556287e+00 0.0000000000000000e+00  9.5515844545577544e-02 1.0276349624407375e+00 0.0000000000000000e+00  9.0553602623758001e-02 1.0627453997152057e+00 0.0000000000000000e+00  1.1224396114935188e-01 8.6668466918114362e-01 0.0000000000000000e+00  9.4812462664128599e-02 1.0272163112676065e+00 0.0000000000000000e+00  1.1113639685452079e-01 8.8369321602550810e-01 0.0000000000000000e+00  9.5364484273850622e-02 1.0282779611428778e+00 0.0000000000000000e+00  1.0891214825679589e-01 9.1205710298550624e-01 0.0000000000000000e+00  1.0358998206257049e-01 9.5386186602941636e-01 0.0000000000000000e+00  1.0999960345038806e-01 9.0898683666279445e-01 0.0000000000000000e+00  1.0682329630291613e-01 9.2836142876361605e-01 0.0000000000000000e+00  1.0851290641239890e-01 9.3104685013773048e-01 0.0000000000000000e+00  1.1081062673577116e-01 8.9546232805484383e-01 0.0000000000000000e+00  1.0708377226219873e-01 9.5302249347500512e-01 0.0000000000000000e+00  1.0525007043807842e-01 9.5323733944500810e-01 0.0000000000000000e+00  9.2027190878083392e-02 1.1097792259253598e+00 0.0000000000000000e+00  1.0562957374723166e-01 9.5402610691480538e-01 0.0000000000000000e+00  1.0134726190994101e-01 1.0251957345480174e+00 0.0000000000000000e+00  1.1776608751825360e-01 8.4316331265027378e-01 0.0000000000000000e+00  1.1343313565941641e-01 9.1932334891459266e-01 0.0000000000000000e+00  1.1047002497521274e-01 9.1721363679668289e-01 0.0000000000000000e+00  1.0987300973584492e-01 9.5894407058406173e-01 0.0000000000000000e+00  9.889908