<?xml version="1.0"?>
<VTKFile type="UnstructuredGrid"  version="0.1"  >
<UnstructuredGrid>
<Piece  NumberOfPoints="801" NumberOfCells="800">
<Points>
<DataArray  type="Float64"  NumberOfComponents="3"  format="ascii">-5 0 0  -4.9875 0 0  -4.975 0 0  -4.9625 0 0  -4.95 0 0  -4.9375 0 0  -4.925 0 0  -4.9125 0 0  -4.9 0 0  -4.8875 0 0  -4.875 0 0  -4.8625 0 0  -4.85 0 0  -4.8375 0 0  -4.825 0 0  -4.8125 0 0  -4.8 0 0  -4.7875 0 0  -4.775 0 0  -4.7625 0 0  -4.75 0 0  -4.7375 0 0  -4.725 0 0  -4.7125 0 0  -4.7 0 0  -4.6875 0 0  -4.675 0 0  -4.6625 0 0  -4.65 0 0  -4.6375 0 0  -4.625 0 0  -4.6125 0 0  -4.6 0 0  -4.5875 0 0  -4.575 0 0  -4.5625 0 0  -4.55 0 0  -4.5375 0 0  -4.525 0 0  -4.5125 0 0  -4.5 0 0  -4.4875 0 0  -4.475 0 0  -4.4625 0 0  -4.45 0 0  -4.4375 0 0  -4.425 0 0  -4.4125 0 0  -4.4 0 0  -4.3875 0 0  -4.375 0 0  -4.3625 0 0  -4.35 0 0  -4.3375 0 0  -4.325 0 0  -4.3125 0 0  -4.3 0 0  -4.2875 0 0  -4.275 0 0  -4.2625 0 0  -4.25 0 0  -4.2375 0 0  -4.225 0 0  -4.2125 0 0  -4.2 0 0  -4.1875 0 0  -4.175 0 0  -4.1625 0 0  -4.15 0 0  -4.1375 0 0  -4.125 0 0  -4.1125 0 0  -4.1 0 0  -4.0875 0 0  -4.075 0 0  -4.0625 0 0  -4.05 0 0  -4.0375 0 0  -4.025 0 0  -4.0125 0 0  -4 0 0  -3.9875 0 0  -3.975 0 0  -3.9625 0 0  -3.95 0 0  -3.9375 0 0  -3.925 0 0  -3.9125 0 0  -3.9 0 0  -3.8875 0 0  -3.875 0 0  -3.8625 0 0  -3.85 0 0  -3.8375 0 0  -3.825 0 0  -3.8125 0 0  -3.8 0 0  -3.7875 0 0  -3.775 0 0  -3.7625 0 0  -3.75 0 0  -3.7375 0 0  -3.725 0 0  -3.7125 0 0  -3.7 0 0  -3.6875 0 0  -3.675 0 0  -3.6625 0 0  -3.65 0 0  -3.6375 0 0  -3.625 0 0  -3.6125 0 0  -3.6 0 0  -3.5875 0 0  -3.575 0 0  -3.5625 0 0  -3.55 0 0  -3.5375 0 0  -3.525 0 0  -3.5125 0 0  -3.5 0 0  -3.4875 0 0  -3.475 0 0  -3.4625 0 0  -3.45 0 0  -3.4375 0 0  -3.425 0 0  -3.4125 0 0  -3.4 0 0  -3.3875 0 0  -3.375 0 0  -3.3625 0 0  -3.35 0 0  -3.3375 0 0  -3.325 0 0  -3.3125 0 0  -3.3 0 0  -3.2875 0 0  -3.275 0 0  -3.2625 0 0  -3.25 0 0  -3.2375 0 0  -3.225 0 0  -3.2125 0 0  -3.2 0 0  -3.1875 0 0  -3.175 0 0  -3.1625 0 0  -3.15 0 0  -3.1375 0 0  -3.125 0 0  -3.1125 0 0  -3.1 0 0  -3.0875 0 0  -3.075 0 0  -3.0625 0 0  -3.05 0 0  -3.0375 0 0  -3.025 0 0  -3.0125 0 0  -3 0 0  -2.9875 0 0  -2.975 0 0  -2.9625 0 0  -2.95 0 0  -2.9375 0 0  -2.925 0 0  -2.9125 0 0  -2.9 0 0  -2.8875 0 0  -2.875 0 0  -2.8625 0 0  -2.85 0 0  -2.8375 0 0  -2.825 0 0  -2.8125 0 0  -2.8 0 0  -2.7875 0 0  -2.775 0 0  -2.7625 0 0  -2.75 0 0  -2.7375 0 0  -2.725 0 0  -2.7125 0 0  -2.7 0 0  -2.6875 0 0  -2.675 0 0  -2.6625 0 0  -2.65 0 0  -2.6375 0 0  -2.625 0 0  -2.6125 0 0  -2.6 0 0  -2.5875 0 0  -2.575 0 0  -2.5625 0 0  -2.55 0 0  -2.5375 0 0  -2.525 0 0  -2.5125 0 0  -2.5 0 0  -2.4875 0 0  -2.475 0 0  -2.4625 0 0  -2.45 0 0  -2.4375 0 0  -2.425 0 0  -2.4125 0 0  -2.4 0 0  -2.3875 0 0  -2.375 0 0  -2.3625 0 0  -2.35 0 0  -2.3375 0 0  -2.325 0 0  -2.3125 0 0  -2.3 0 0  -2.2875 0 0  -2.275 0 0  -2.2625 0 0  -2.25 0 0  -2.2375 0 0  -2.225 0 0  -2.2125 0 0  -2.2 0 0  -2.1875 0 0  -2.175 0 0  -2.1625 0 0  -2.15 0 0  -2.1375 0 0  -2.125 0 0  -2.1125 0 0  -2.1 0 0  -2.0875 0 0  -2.075 0 0  -2.0625 0 0  -2.05 0 0  -2.0375 0 0  -2.025 0 0  -2.0125 0 0  -2 0 0  -1.9875 0 0  -1.975 0 0  -1.9625 0 0  -1.95 0 0  -1.9375 0 0  -1.925 0 0  -1.9125 0 0  -1.9 0 0  -1.8875 0 0  -1.875 0 0  -1.8625 0 0  -1.85 0 0  -1.8375 0 0  -1.825 0 0  -1.8125 0 0  -1.8 0 0  -1.7875 0 0  -1.775 0 0  -1.7625 0 0  -1.75 0 0  -1.7375 0 0  -1.725 0 0  -1.7125 0 0  -1.7 0 0  -1.6875 0 0  -1.675 0 0  -1.6625 0 0  -1.65 0 0  -1.6375 0 0  -1.625 0 0  -1.6125 0 0  -1.6 0 0  -1.5875 0 0  -1.575 0 0  -1.5625 0 0  -1.55 0 0  -1.5375 0 0  -1.525 0 0  -1.5125 0 0  -1.5 0 0  -1.4875 0 0  -1.475 0 0  -1.4625 0 0  -1.45 0 0  -1.4375 0 0  -1.425 0 0  -1.4125 0 0  -1.4 0 0  -1.3875 0 0  -1.375 0 0  -1.3625 0 0  -1.35 0 0  -1.3375 0 0  -1.325 0 0  -1.3125 0 0  -1.3 0 0  -1.2875 0 0  -1.275 0 0  -1.2625 0 0  -1.25 0 0  -1.2375 0 0  -1.225 0 0  -1.2125 0 0  -1.2 0 0  -1.1875 0 0  -1.175 0 0  -1.1625 0 0  -1.15 0 0  -1.1375 0 0  -1.125 0 0  -1.1125 0 0  -1.1 0 0  -1.0875 0 0  -1.075 0 0  -1.0625 0 0  -1.05 0 0  -1.0375 0 0  -1.025 0 0  -1.0125 0 0  -1 0 0  -0.9874999999999998 0 0  -0.9749999999999996 0 0  -0.9625000000000004 0 0  -0.9500000000000002 0 0  -0.9375 0 0  -0.9249999999999998 0 0  -0.9124999999999996 0 0  -0.9000000000000004 0 0  -0.8875000000000002 0 0  -0.875 0 0  -0.8624999999999998 0 0  -0.8499999999999996 0 0  -0.8375000000000004 0 0  -0.8250000000000002 0 0  -0.8125 0 0  -0.7999999999999998 0 0  -0.7874999999999996 0 0  -0.7750000000000004 0 0  -0.7625000000000002 0 0  -0.75 0 0  -0.7374999999999998 0 0  -0.7249999999999996 0 0  -0.7125000000000004 0 0  -0.7000000000000002 0 0  -0.6875 0 0  -0.6749999999999998 0 0  -0.6624999999999996 0 0  -0.6500000000000004 0 0  -0.6375000000000002 0 0  -0.625 0 0  -0.6124999999999998 0 0  -0.5999999999999996 0 0  -0.5875000000000004 0 0  -0.5750000000000002 0 0  -0.5625 0 0  -0.5499999999999998 0 0  -0.5374999999999996 0 0  -0.5250000000000004 0 0  -0.5125000000000002 0 0  -0.5 0 0  -0.4874999999999998 0 0  -0.4749999999999996 0 0  -0.4625000000000004 0 0  -0.4500000000000002 0 0  -0.4375 0 0  -0.4249999999999998 0 0  -0.4124999999999996 0 0  -0.4000000000000004 0 0  -0.3875000000000002 0 0  -0.375 0 0  -0.3624999999999998 0 0  -0.3499999999999996 0 0  -0.3375000000000004 0 0  -0.3250000000000002 0 0  -0.3125 0 0  -0.2999999999999998 0 0  -0.2874999999999996 0 0  -0.2750000000000004 0 0  -0.2625000000000002 0 0  -0.25 0 0  -0.2374999999999998 0 0  -0.2249999999999996 0 0  -0.2125000000000004 0 0  -0.2000000000000002 0 0  -0.1875 0 0  -0.1749999999999998 0 0  -0.1624999999999996 0 0  -0.1500000000000004 0 0  -0.1375000000000002 0 0  -0.125 0 0  -0.1124999999999998 0 0  -0.09999999999999964 0 0  -0.08750000000000036 0 0  -0.07500000000000018 0 0  -0.0625 0 0  -0.04999999999999982 0 0  -0.03749999999999964 0 0  -0.02500000000000036 0 0  -0.01250000000000018 0 0  0 0 0  0.01250000000000018 0 0  0.02500000000000036 0 0  0.03749999999999964 0 0  0.04999999999999982 0 0  0.0625 0 0  0.07500000000000018 0 0  0.08750000000000036 0 0  0.09999999999999964 0 0  0.1124999999999998 0 0  0.125 0 0  0.1375000000000002 0 0  0.1500000000000004 0 0  0.1624999999999996 0 0  0.1749999999999998 0 0  0.1875 0 0  0.2000000000000002 0 0  0.2125000000000004 0 0  0.2249999999999996 0 0  0.2374999999999998 0 0  0.25 0 0  0.2625000000000002 0 0  0.2750000000000004 0 0  0.2874999999999996 0 0  0.2999999999999998 0 0  0.3125 0 0  0.3250000000000002 0 0  0.3375000000000004 0 0  0.3499999999999996 0 0  0.3624999999999998 0 0  0.375 0 0  0.3875000000000002 0 0  0.4000000000000004 0 0  0.4124999999999996 0 0  0.4249999999999998 0 0  0.4375 0 0  0.4500000000000002 0 0  0.4625000000000004 0 0  0.4749999999999996 0 0  0.4874999999999998 0 0  0.5 0 0  0.5125000000000002 0 0  0.5250000000000004 0 0  0.5374999999999996 0 0  0.5499999999999998 0 0  0.5625 0 0  0.5750000000000002 0 0  0.5875000000000004 0 0  0.5999999999999996 0 0  0.6124999999999998 0 0  0.625 0 0  0.6375000000000002 0 0  0.6500000000000004 0 0  0.6624999999999996 0 0  0.6749999999999998 0 0  0.6875 0 0  0.7000000000000002 0 0  0.7125000000000004 0 0  0.7249999999999996 0 0  0.7374999999999998 0 0  0.75 0 0  0.7625000000000002 0 0  0.7750000000000004 0 0  0.7874999999999996 0 0  0.7999999999999998 0 0  0.8125 0 0  0.8250000000000002 0 0  0.8375000000000004 0 0  0.8499999999999996 0 0  0.8624999999999998 0 0  0.875 0 0  0.8875000000000002 0 0  0.9000000000000004 0 0  0.9124999999999996 0 0  0.9249999999999998 0 0  0.9375 0 0  0.9500000000000002 0 0  0.9625000000000004 0 0  0.9749999999999996 0 0  0.9874999999999998 0 0  1 0 0  1.0125 0 0  1.025 0 0  1.0375 0 0  1.05 0 0  1.0625 0 0  1.075 0 0  1.0875 0 0  1.1 0 0  1.1125 0 0  1.125 0 0  1.1375 0 0  1.15 0 0  1.1625 0 0  1.175 0 0  1.1875 0 0  1.2 0 0  1.2125 0 0  1.225 0 0  1.2375 0 0  1.25 0 0  1.2625 0 0  1.275 0 0  1.2875 0 0  1.3 0 0  1.3125 0 0  1.325 0 0  1.3375 0 0  1.35 0 0  1.3625 0 0  1.375 0 0  1.3875 0 0  1.4 0 0  1.4125 0 0  1.425 0 0  1.4375 0 0  1.45 0 0  1.4625 0 0  1.475 0 0  1.4875 0 0  1.5 0 0  1.5125 0 0  1.525 0 0  1.5375 0 0  1.55 0 0  1.5625 0 0  1.575 0 0  1.5875 0 0  1.6 0 0  1.6125 0 0  1.625 0 0  1.6375 0 0  1.65 0 0  1.6625 0 0  1.675 0 0  1.6875 0 0  1.7 0 0  1.7125 0 0  1.725 0 0  1.7375 0 0  1.75 0 0  1.7625 0 0  1.775 0 0  1.7875 0 0  1.8 0 0  1.8125 0 0  1.825 0 0  1.8375 0 0  1.85 0 0  1.8625 0 0  1.875 0 0  1.8875 0 0  1.9 0 0  1.9125 0 0  1.925 0 0  1.9375 0 0  1.95 0 0  1.9625 0 0  1.975 0 0  1.9875 0 0  2 0 0  2.0125 0 0  2.025 0 0  2.0375 0 0  2.05 0 0  2.0625 0 0  2.075 0 0  2.0875 0 0  2.1 0 0  2.1125 0 0  2.125 0 0  2.1375 0 0  2.15 0 0  2.1625 0 0  2.175 0 0  2.1875 0 0  2.2 0 0  2.2125 0 0  2.225 0 0  2.2375 0 0  2.25 0 0  2.2625 0 0  2.275 0 0  2.2875 0 0  2.3 0 0  2.3125 0 0  2.325 0 0  2.3375 0 0  2.35 0 0  2.3625 0 0  2.375 0 0  2.3875 0 0  2.4 0 0  2.4125 0 0  2.425 0 0  2.4375 0 0  2.45 0 0  2.4625 0 0  2.475 0 0  2.4875 0 0  2.5 0 0  2.5125 0 0  2.525 0 0  2.5375 0 0  2.55 0 0  2.5625 0 0  2.575 0 0  2.5875 0 0  2.6 0 0  2.6125 0 0  2.625 0 0  2.6375 0 0  2.65 0 0  2.6625 0 0  2.675 0 0  2.6875 0 0  2.7 0 0  2.7125 0 0  2.725 0 0  2.7375 0 0  2.75 0 0  2.7625 0 0  2.775 0 0  2.7875 0 0  2.8 0 0  2.8125 0 0  2.825 0 0  2.8375 0 0  2.85 0 0  2.8625 0 0  2.875 0 0  2.8875 0 0  2.9 0 0  2.9125 0 0  2.925 0 0  2.9375 0 0  2.95 0 0  2.9625 0 0  2.975 0 0  2.9875 0 0  3 0 0  3.012499999999999 0 0  3.025 0 0  3.0375 0 0  3.050000000000001 0 0  3.0625 0 0  3.074999999999999 0 0  3.0875 0 0  3.1 0 0  3.112500000000001 0 0  3.125 0 0  3.137499999999999 0 0  3.15 0 0  3.1625 0 0  3.175000000000001 0 0  3.1875 0 0  3.199999999999999 0 0  3.2125 0 0  3.225 0 0  3.237500000000001 0 0  3.25 0 0  3.262499999999999 0 0  3.275 0 0  3.2875 0 0  3.300000000000001 0 0  3.3125 0 0  3.324999999999999 0 0  3.3375 0 0  3.35 0 0  3.362500000000001 0 0  3.375 0 0  3.387499999999999 0 0  3.4 0 0  3.4125 0 0  3.425000000000001 0 0  3.4375 0 0  3.449999999999999 0 0  3.4625 0 0  3.475 0 0  3.4875
[...]
<PointData  Vectors="(h, u)"> 
<DataArray  type="Float64"  Name="(h, u)"  NumberOfComponents="3" format="ascii">3.6896781496494074e-01 0.0000000000000000e+00 0.0000000000000000e+00  3.6908975344369527e-01 9.3747001212755188e-03 0.0000000000000000e+00  3.6896261416424059e-01 1.8765294107824796e-02 0.0000000000000000e+00  3.6907953230145318e-01 2.8124464590011555e-02 0.0000000000000000e+00  3.6894701010818587e-01 3.7531345550305434e-02 0.0000000000000000e+00  3.6905908649436314e-01 4.6875321989919470e-02 0.0000000000000000e+00  3.6892099773773096e-01 5.6298912023783620e-02 0.0000000000000000e+00  3.6902840881865207e-01 6.5628001791102022e-02 0.0000000000000000e+00  3.6888456840483258e-01 7.5068751818203133e-02 0.0000000000000000e+00  3.6898748818782723e-01 8.4383234459090309e-02 0.0000000000000000e+00  3.6883770961575157e-01 9.3841623855416556e-02 0.0000000000000000e+00  3.6893630929588045e-01 1.0314175182428836e-01 0.0000000000000000e+00  3.6878040464002809e-01 1.1261828803981587e-01 0.0000000000000000e+00  3.6887485226485167e-01 1.2190428746572819e-01 0.0000000000000000e+00  3.6871263225727363e-01 1.3139950515234713e-01 0.0000000000000000e+00  3.6880309245418558e-01 1.4067157677897330e-01 0.0000000000000000e+00  3.6863436651989900e-01 1.5018603740890696e-01 0.0000000000000000e+00  3.6872100015728226e-01 1.5944435859871456e-01 0.0000000000000000e+00  3.6854557654085102e-01 1.6897865011567961e-01 0.0000000000000000e+00  3.6862854066400319e-01 1.7822337637002209e-01 0.0000000000000000e+00  3.6844622679081107e-01 1.8777811228531760e-01 0.0000000000000000e+00  3.6852567447578727e-01 1.9700938012510391e-01 0.0000000000000000e+00  3.6833627704773381e-01 2.0658520056263344e-01 0.0000000000000000e+00  3.6841235724053467e-01 2.1580313120099340e-01 0.0000000000000000e+00  3.6821568283382183e-01 2.2540070166952636e-01 0.0000000000000000e+00  3.6828854065149585e-01 2.3460540261273036e-01 0.0000000000000000e+00  3.6808439604476906e-01 2.4422541404966941e-01 0.0000000000000000e+00  3.6815417214216267e-01 2.5341698526683698e-01 0.0000000000000000e+00  3.6794236433278266e-01 2.6306015502505842e-01 0.0000000000000000e+00  3.6800919522419367e-01 2.7223868937399304e-01 0.0000000000000000e+00  3.6778953253933139e-01 2.8190575544147073e-01 0.0000000000000000e+00  3.6785355007502368e-01 2.9107134222780084e-01 0.0000000000000000e+00  3.6762584098542295e-01 3.0076306795710478e-01 0.0000000000000000e+00  3.6768717113117649e-01 3.0991579871670849e-01 0.0000000000000000e+00  3.6745122577877154e-01 3.1963296235360555e-01 0.0000000000000000e+00  3.6750998984517202e-01 3.2877292283588749e-01 0.0000000000000000e+00  3.6726561916553946e-01 3.3851631882700733e-01 0.0000000000000000e+00  3.6732192969380001e-01 3.4764360796909510e-01 0.0000000000000000e+00  3.6706894478056995e-01 3.5741404709427077e-01 0.0000000000000000e+00  3.6712290907167294e-01 3.6652875679437291e-01 0.0000000000000000e+00  3.6686112475419436e-01 3.7632704536944966e-01 0.0000000000000000e+00  3.6691283973817662e-01 3.8542928621053496e-01 0.0000000000000000e+00  3.6664206767106539e-01 3.9525626064804265e-01 0.0000000000000000e+00  3.6669162187694632e-01 4.0434615277483649e-01 0.0000000000000000e+00  3.6641168254761997e-01 4.1420261780693857e-01 0.0000000000000000e+00  3.6645915731810574e-01 4.2328028742282997e-01 0.0000000000000000e+00  3.6616986496050680e-01 4.3316709594361219e-01 0.0000000000000000e+00  3.6621532466396745e-01 4.4223272916085521e-01 0.0000000000000000e+00  3.6591650660215963e-01 4.5215068564256294e-01 0.0000000000000000e+00  3.6596001850831761e-01 4.6120442794234107e-01 0.0000000000000000e+00  3.6565149746312342e-01 4.7115438455786196e-01 0.0000000000000000e+00  3.6569309515717713e-01 4.8019653083664271e-01 0.0000000000000000e+00  3.6537470457027660e-01 4.9017931121631331e-01 0.0000000000000000e+00  3.6541444242249471e-01 4.9921002466996084e-01 0.0000000000000000e+00  3.6508602284023750e-01 5.0922644206384626e-01 0.0000000000000000e+00  3.6512389603033668e-01 5.1824617045586663e-01 0.0000000000000000e+00  3.6478528116485398e-01 5.2829709450755435e-01 0.0000000000000000e+00  3.6482133374208359e-01 5.3730601325384020e-01 0.0000000000000000e+00  3.6447239325626030e-01 5.4739214144635417e-01 0.0000000000000000e+00  3.6450657287199911e-01 5.5639091075503733e-01 0.0000000000000000e+00  3.6414712790320575e-01 5.6651319342954465e-01 0.0000000000000000e+00  3.6417947720213162e-01 5.7550197816579296e-01 0.0000000000000000e+00  3.6380944024113127e-01 5.8566087686390000e-01 0.0000000000000000e+00  3.6383984260103408e-01 5.9464067037089297e-01 0.0000000000000000e+00  3.6345900447996798e-01 6.0483728508063528e-01 0.0000000000000000e+00  3.6348751753960074e-01 6.1380809967771033e-01 0.0000000000000000e+00  3.6309587131819365e-01 6.2404263865531462e-01 0.0000000000000000e+00  3.6312223127053422e-01 6.3300588485287101e-01 0.0000000000000000e+00  3.6271956757998597e-01 6.4327991966190490e-01 0.0000000000000000e+00  3.6274386888523813e-01 6.5223492807196570e-01 0.0000000000000000e+00  3.6233026201307350e-01 6.6254841632211470e-01 0.0000000000000000e+00  3.6235206538633746e-01 6.7149806561312753e-01 0.0000000000000000e+00  3.6192712890920375e-01 6.8185181603179290e-01 0.0000000000000000e+00  3.6194702297483000e-01 6.9079566464359043e-01 0.0000000000000000e+00  3.6151048831697424e-01 7.0118830288618050e-01 0.0000000000000000e+00  3.6152775469145693e-01 7.1013220595505733e-01 0.0000000000000000e+00  3.6107974313246971e-01 7.2056479071281820e-01 0.0000000000000000e+00  3.6109442198230784e-01 7.2950114232712537e-01 0.0000000000000000e+00  3.6063586995329527e-01 7.3998371276844455e-01 0.0000000000000000e+00  3.6064473052799878e-01 7.4891037563632701e-01 0.0000000000000000e+00  3.6017801704429103e-01 7.5944549522290983e-01 0.0000000000000000e+00  3.6018242330060868e-01 7.6836011697608142e-01 0.0000000000000000e+00  3.5970161678853074e-01 7.7893736564015981e-01 0.0000000000000000e+00  3.5970922935882432e-01 7.8788951352580283e-01 0.0000000000000000e+00  3.5920504943167186e-01 7.9843019149777117e-01 0.0000000000000000e+00  3.5922629444470860e-01 8.0748549987733254e-01 0.0000000000000000e+00  3.5869276558093510e-01 8.1799549600346455e-01 0.0000000000000000e+00  3.5871294825404210e-01 8.2704765262152491e-01 0.0000000000000000e+00  3.5819936969716915e-01 8.3775722809125019e-01 0.0000000000000000e+00  3.5813638828473349e-01 8.4644511397378452e-01 0.0000000000000000e+00  3.5772933944035573e-01 8.5780090213195259e-01 0.0000000000000000e+00  3.5753765647820440e-01 8.6580817000933463e-01 0.0000000000000000e+00  3.5718417339384972e-01 8.7761104484925823e-01 0.0000000000000000e+00  3.5707222443364028e-01 8.8608140421108805e-01 0.0000000000000000e+00  3.5636972056514737e-01 8.9607563956535397e-01 0.0000000000000000e+00  3.5689761395168190e-01 9.0802074479164641e-01 0.0000000000000000e+00  3.5530665055500255e-01 9.1350153099779929e-01 0.0000000000000000e+00  3.5663275830734636e-01 9.2954799295697077e-01 0.0000000000000000e+00  3.5484998813663787e-01 9.3420985791292621e-01 0.0000000000000000e+00  3.5501731305403794e-01 9.4435464383952772e-01 0.0000000000000000e+00  3.5628701639747895e-01 9.6489408014999734e-01 0.0000000000000000e+00  3.5141078147682775e-01 9.4866449878407511e-01 0.0000000000000000e+00  3.5867112945886537e-01 1.0010451643714711e+00 0.0000000000000000e+00  3.4916938794651242e-01 9.6010827666381426e-01 0.0000000000000000e+00  3.5575631972437832e-01 1.0097656881024426e+00 0.0000000000000000e+00  3.5645604136926373e-01 1.0229612133982862e+00 0.0000000000000000e+00  3.3962418074970502e-01 9.4764274185445585e-01 0.0000000000000000e+00  3.7581190253640578e-01 1.1463224151250486e+00 0.0000000000000000e+00  3.1689475586444404e-01 8.5382320741593598e-01 0.0000000000000000e+00  3.7952048775614605e-01 1.1648478682904835e+00 0.0000000000000000e+00  2.7058940166134499e-01 7.4930194713491294e-01 0.0000000000000000e+00  6.2675712389646518e-02 -1.6494663625296124e+00 0.0000000000000000e+00  8.4940344183490071e-02 -1.0562389885234547e+00 0.0000000000000000e+00  8.2279809061641465e-02 -1.3244634217609716e+00 0.0000000000000000e+00  7.8812878684749246e-02 -1.1980101362887376e+00 0.0000000000000000e+00  8.1260555992522868e-02 -1.2558336749173264e+00 0.0000000000000000e+00  7.8703893336002709e-02 -1.2287299227948187e+00 0.0000000000000000e+00  7.9529394076689228e-02 -1.2374339822963916e+00 0.0000000000000000e+00  7.8117350892719609e-02 -1.2336549968469075e+00 0.0000000000000000e+00  7.8341462208547027e-02 -1.2317921688279359e+00 0.0000000000000000e+00  7.7173307957917658e-02 -1.2324542035428194e+00 0.0000000000000000e+00  7.7336432633141952e-02 -1.2290874877734246e+00 0.0000000000000000e+00  7.6150282623783941e-02 -1.2302299222729898e+00 0.0000000000000000e+00  7.6351860552270043e-02 -1.2268868480608388e+00 0.0000000000000000e+00  7.5126015484210801e-02 -1.2280702458130219e+00 0.0000000000000000e+00  7.5357151746667878e-02 -1.2247863630573013e+00 0.0000000000000000e+00  7.4107746059214774e-02 -1.2260929168609973e+00 0.0000000000000000e+00  7.4353401634908972e-02 -1.2227942118086901e+00 0.0000000000000000e+00  7.3091451609981109e-02 -1.2242720027561371e+00 0.0000000000000000e+00  7.3343773908338253e-02 -1.2209477542676253e+00 0.0000000000000000e+00  7.2074264902935919e-02 -1.2225936641417703e+00 0.0000000000000000e+00  7.2329609389295113e-02 -1.2192650318104958e+00 0.0000000000000000e+00  7.1054796651550428e-02 -1.2210610392822416e+00 0.0000000000000000e+00  7.1311223692258160e-02 -1.2177537278145036e+00 0.0000000000000000e+00  7.0032238499303734e-02 -1.2196838341073735e+00 0.0000000000000000e+00  7.0288581345390649e-02 -1.2164191450835999e+00 0.0000000000000000e+00  6.9005942904049530e-02 -1.2184732525369621e+00 0.0000000000000000e+00  6.9261526891693154e-02 -1.2152670731175939e+00 0.0000000000000000e+00  6.7975313937702952e-02 -1.2174405522550582e+00 0.0000000000000000e+00  6.8229833109481205e-02 -1.2143044326705370e+00 0.0000000000000000e+00  6.6939795398184648e-02 -1.2165967891339553e+00 0.0000000000000000e+00  6.7193208353830150e-02 -1.2135393031734030e+00 0.0000000000000000e+00  6.5898875770294282e-02 -1.2159528061231255e+00 0.0000000000000000e+00  6.6151305210331121e-02 -1.2129807994430588e+00 0.0000000000000000e+00  6.4852092808271894e-02 -1.2155192343142913e+00 0.0000000000000000e+00  6.5103738121080237e-02 -1.2126388650387305e+00 0.0000000000000000e+00  6.3799038364761529e-02 -1.2153064572229408e+00 0.0000000000000000e+00  6.4050110524608558e-02 -1.2125239640690262e+00 0.0000000000000000e+00  6.2739367667310045e-02 -1.2153245013678566e+00 0.0000000000000000e+00  6.2990052085108938e-02 -1.2126466413576129e+00 0.0000000000000000e+00  6.1672818186521386e-02 -1.2155827944506803e+00 0.0000000000000000e+00  6.1923268038914347e-02 -1.2130169096870691e+00 0.0000000000000000e+00  6.0599244228784682e-02 -1.2160897074275945e+00 0.0000000000000000e+00  6.0849604689867900e-02 -1.2136433986118855e+00 0.0000000000000000e+00  5.9518674790516923e-02 -1.2168517690740646e+00 0.0000000000000000e+00  5.9769137663364474e-02 -1.2145321617285720e+00 0.0000000000000000e+00  5.8431404056119789e-02 -1.2178724076177716e+00 0.0000000000000000e+00  5.8682292579962901e-02 -1.2156849907530605e+00 0.0000000000000000e+00  5.7338126052343376e-02 -1.2191500332144489e+00 0.0000000000000000e+00  5.7590010807513373e-02 -1.2170970319879659e+00 0.0000000000000000e+00  5.6240126676875932e-02 -1.2206752356258603e+00 0.0000000000000000e+00  5.6493974547055535e-02 -1.2187534614509841e+00 0.0000000000000000e+00  5.5139545713848541e-02 -1.2224268589368752e+00 0.0000000000000000e+00  5.5396902875535281e-02 -1.2206249887627598e+00 0.0000000000000000e+00  5.4039714731003295e-02 -1.2243667846970765e+00 0.0000000000000000e+00  5.4302918576041234e-02 -1.2226621005584279e+00 0.0000000000000000e+00  5.2945558000258949e-02 -1.2264334985616629e+00 0.0000000000000000e+00  5.3217958278910779e-02 -1.2247883252956457e+00 0.0000000000000000e+00  5.1864006728769597e-02 -1.2285350405461943e+00 0.0000000000000000e+00  5.2150150662317485e-02 -1.2268935013923843e+00 0.0000000000000000e+00  5.0804317755157702e-02 -1.2305428402785386e+00 0.0000000000000000e+00  5.1110014986840410e-02 -1.2288291586485660e+00 0.0000000000000000e+00  4.9778102600028407e-02 -1.2322893128600672e+00 0.0000000000000000e+00  5.0110238729619339e-02 -1.2304096676717124e+00 0.0000000000000000e+00  4.8798788953743871e-02 -1.2335735802507073e+00 0.0000000000000000e+00  4.9164751147301719e-02 -1.2314237525638729e+00 0.0000000000000000e+00  4.7880280851589942e-02 -1.2341794268296249e+00 0.0000000000000000e+00  4.8286979612339610e-02 -1.2316588558993897e+00 0.0000000000000000e+00  4.7034897262851448e-02 -1.2339052695394166e+00 0.0000000000000000e+00  4.7487614390875336e-02 -1.2309344777350786e+00 0.0000000000000000e+00  4.6271173624419307e-02 -1.2325982188867801e+00 0.0000000000000000e+00  4.6772682946640103e-02 -1.2291330234580484e+00 0.0000000000000000e+00  4.5592435967826174e-02 -1.2301785682249926e+00 0.0000000000000000e+00  4.6142792036773059e-02 -1.2262147805309223e+00 0.0000000000000000e+00  4.4996776848585836e-02 -1.2266441625628057e+00 0.0000000000000000e+00  4.5593799156429540e-02 -1.2222117151531595e+00 0.0000000000000000e+00  4.4478278176837707e-02 -1.2220554709395055e+00 0.0000000000000000e+00  4.5118397489656244e-02 -1.2172065179005889e+00 0.0000000000000000e+00  4.4028744591042293e-02 -1.2165115234305006e+00 0.0000000000000000e+00  4.4707823746378779e-02 -1.2113082894104286e+00 0.0000000000000000e+00  4.3639248192087747e-02 -1.2101272333034527e+00 0.0000000000000000e+00  4.4353167897962849e-02 -1.2046329788154857e+00 0.0000000000000000e+00  4.3301169209368939e-02 -1.2030173652017648e+00 0.0000000000000000e+00  4.4046154580141515e-02 -1.1972910834132873e+00 0.0000000000000000e+00  4.3006742432722525e-02 -1.1952875398098686e+00 0.0000000000000000e+00  4.3779495536392758e-02 -1.1893815665676892e+00 0.0000000000000000e+00  4.2749253601014205e-02 -1.1870304525418527e+00 0.0000000000000000e+00  4.3546969848101101e-02 -1.1809898908442118e+00 0.0000000000000000e+00  4.2523034032766957e-02 -1.1783252345004780e+00 0.0000000000000000e+00  4.3343361200571251e-02 -1.1721883244918740e+00 0.0000000000000000e+00  4.2323359535858036e-02 -1.1692384042083741e+00 0.0000000000000000e+00  4.3164335413778461e-02 -1.1630372879847375e+00 0.0000000000000000e+00  4.2146316433135607e-02 -1.1598254553177849e+00 0.0000000000000000e+00  4.3006304084839936e-02 -1.1535870345658310e+00 0.0000000000000000e+00  4.1988667026218528e-02 -1.1501325671781022e+00 0.0000000000000000e+00  4.2866296242770982e-02 -1.1438793093963118e+00 0.0000000000000000e+00  4.1847728659844916e-02 -1.1401981972076924e+00 0.0000000000000000e+00  4.2741846508198449e-02 -1.1339488348489835e+00 0.0000000000000000e+00  4.1721270906834494e-02 -1.1300544636359984e+00 0.0000000000000000e+00  4.2630901494952245e-02 -1.1238245757445484e+00 0.0000000000000000e+00  4.1607430788889142e-02 -1.1197283020125470e+00 0.0000000000000000e+00  4.2531743172078695e-02 -1.1135307886300458e+00 0.0000000000000000e+00  4.1504644054195135e-02 -1.1092424122280766e+00 0.0000000000000000e+00  4.2442926814456786e-02 -1.1030878797085930e+00 0.0000000000000000e+00  4.1411589988815313e-02 -1.0986160247295838e+00 0.0000000000000000e+00  4.2363230999526387e-02 -1.0925131017336136e+00 0.0000000000000000e+00  4.1327147301340475e-02 -1.0878655164151390e+00 0.0000000000000000e+00  4.2291617330229937e-02 -1.0818211191204032e+00 0.0000000000000000e+00  4.1250358929055812e-02 -1.0770049039951257e+00 0.0000000000000000e+00  4.2227197893616807e-02 -1.0710244672096920e+00 0.0000000000000000e+00  4.1180403998329673e-02 -1.0660462381801945e+00 0.0000000000000000e+00  4.2169208827293504e-02 -1.0601339273128092e+00 0.0000000000000000e+00  4.1116575469589481e-02 -1.0549999185426731e+00 0.0000000000000000e+00  4.2116988737927040e-02 -1.0491588343721523e+00 0.0000000000000000e+00  4.1058262334817512e-02 -1.0438749444669266e+00 0.0000000000000000e+00  4.2069960784681525e-02 -1.0381073336561844e+00 0.0000000000000000e+00  4.1004935734716606e-02 -1.0326791104705837e+00 0.0000000000000000e+00  4.2027617453759672e-02 -1.0269866001016315e+00 0.0000000000000000e+00  4.0956138043541264e-02 -1.0214191594847049e+00 0.0000000000000000e+00  4.1989508031405033e-02 -1.0158030192431822e+00 0.0000000000000000e+00  4.0911473932934629e-02 -1.0101009085161947e+00 0.0000000000000000e+00  4.1955227460818374e-02 -1.0045623491558837e+00 0.0000000000000000e+00  4.0870605468089551e-02 -9.9872931445691193e-01 0.0000000000000000e+00  4.1924403330457147e-02 -9.9326991264018138e-01 0.0000000000000000e+00  4.0833250966995645e-02 -9.8730848382990766e-01 0.0000000000000000e+00  4.1896686086469334e-02 -9.8193074114685608e-01 0.0000000000000000e+00  4.0799177890579401e-02 -9.7584177622486756e-01 0.0000000000000000e+00  4.1871747972325110e-02 -9.7054958598584795e-01 0.0000000000000000e+00  4.0768198434533588e-02 -9.6433186709887841e-01 0.0000000000000000e+00  4.1849262124205124e-02 -9.5913123474185769e-01 0.0000000000000000e+00  4.0740203775717805e-02 -9.5278021526441103e-01 0.0000000000000000e+00  4.1828847567672515e-02 -9.4768135024943601e-01 0.0000000000000000e+00  4.0715195557449492e-02 -9.4118657577117493e-01 0.0000000000000000e+00  4.1810084615797043e-02 -9.3620622829092126e-01 0.0000000000000000e+00  4.0693190631439072e-02 -9.2955047125986778e-01 0.0000000000000000e+00  4.1792648802240623e-02 -9.2471073917547308e-01 0.0000000000000000e+00  4.0674130625806937e-02 -9.1787258401419713e-01 0.0000000000000000e+00  4.1776214440488367e-02 -9.1319981114900983e-01 0.0000000000000000e+00  4.0658262068715402e-02 -9.0614887792165622e-01 0.0000000000000000e+00  4.1759791956338152e-02 -9.0168859899957687e-01 0.0000000000000000e+00  4.0646874682871516e-02 -8.9435921115480554e-01 0.0000000000000000e+00  4.1741287159748133e-02 -8.9020921745716086e-01 0.0000000000000000e+00  4.0641968512968633e-02 -8.8247253658984670e-01 0.0000000000000000e+00  4.1718972481986555e-02 -8.7878810506981420e-01 0.0000000000000000e+00  4.0643575374725668e-02 -8.7048831465830379e-01 0.0000000000000000e+00  4.1695003182125184e-02 -8.6739203901722017e-01 0.0000000000000000e+00  4.0646211771778046e-02 -8.5849116873888220e-01 0.0000000000000000e+00  4.1677943700662363e-02 -8.5588946980326619e-01 0.0000000000000000e+00  4.0638374174961037e-02 -8.4665834726405709e-01 0.0000000000000000e+00  4.1680625646696438e-02 -8.4408372442434121e-01 0.0000000000000000e+00  4.0607312438393266e-02 -8.3518577591599152e-01 0.0000000000000000e+00  4.1713448898366021e-02 -8.3181630125271444e-01 0.0000000000000000e+00  4.0546403127639838e-02 -8.2417435461341559e-01 0.0000000000000000e+00  4.1777846120970179e-02 -8.1906732623822853e-01 0.0000000000000000e+00  4.0459573578383659e-02 -8.1356194632737844e-01 0.0000000000000000e+00  4.1864743206476610e-02 -8.0597852037274453e-01 0.0000000000000000e+00  4.0359845700713000e-02 -8.0314594255840333e-01 0.0000000000000000e+00  4.1958485875975726e-02 -7.9279182794805225e-01 0.0000000000000000e+00  4.0263608245957809e-02 -7.9267172645175532e-01 0.0000000000000000e+00  4.2043416921609678e-02 -7.7974785916358602e-01 0.0000000000000000e+00  4.0183960524594955e-02 -7.8193577212957366e-01 0.0000000000000000e+00  4.2109696361778276e-02 -7.6699688538968291e-01 0.0000000000000000e+00  4.0126600612197021e-02 -7.7084956602216437e-01 0.0000000000000000e+00  4.2155178923427981e-02 -7.5457082594626768e-01 0.0000000000000000e+00  4.0090422247874957e-02 -7.5943039495499587e-01 0.0000000000000000e+00  4.2182920698578784e-02 -7.4242208759878181e-01 0.0000000000000000e+00  4.0071073673824231e-02 -7.4774595910788766e-01 0.0000000000000000e+00  4.2197570415972628e-02 -7.3047908122015270e-01 0.0000000000000000e+00  4.0063886303168886e-02 -7.3586873994693136e-01 0.0000000000000000e+00  4.2203373316733878e-02 -7.1867676721490048e-01 0.0000000000000000e+00  4.0064987660711524e-02 -7.2385864818117740e-01 0.0000000000000000e+00  4.2203644082681714e-02 -7.0696463372128249e-01 0