<?xml version="1.0"?>
<VTKFile type="UnstructuredGrid"  version="0.1"  >
<UnstructuredGrid>
<Piece  NumberOfPoints="801" NumberOfCells="800">
<Points>
<DataArray  type="Float64"  NumberOfComponents="3"  format="ascii">-5 0 0  -4.9875 0 0  -4.975 0 0  -4.9625 0 0  -4.95 0 0  -4.9375 0 0  -4.925 0 0  -4.9125 0 0  -4.9 0 0  -4.8875 0 0  -4.875 0 0  -4.8625 0 0  -4.85 0 0  -4.8375 0 0  -4.825 0 0  -4.8125 0 0  -4.8 0 0  -4.7875 0 0  -4.775 0 0  -4.7625 0 0  -4.75 0 0  -4.7375 0 0  -4.725 0 0  -4.7125 0 0  -4.7 0 0  -4.6875 0 0  -4.675 0 0  -4.6625 0 0  -4.65 0 0  -4.6375 0 0  -4.625 0 0  -4.6125 0 0  -4.6 0 0  -4.5875 0 0  -4.575 0 0  -4.5625 0 0  -4.55 0 0  -4.5375 0 0  -4.525 0 0  -4.5125 0 0  -4.5 0 0  -4.4875 0 0  -4.475 0 0  -4.4625 0 0  -4.45 0 0  -4.4375 0 0  -4.425 0 0  -4.4125 0 0  -4.4 0 0  -4.3875 0 0  -4.375 0 0  -4.3625 0 0  -4.35 0 0  -4.3375 0 0  -4.325 0 0  -4.3125 0 0  -4.3 0 0  -4.2875 0 0  -4.275 0 0  -4.2625 0 0  -4.25 0 0  -4.2375 0 0  -4.225 0 0  -4.2125 0 0  -4.2 0 0  -4.1875 0 0  -4.175 0 0  -4.1625 0 0  -4.15 0 0  -4.1375 0 0  -4.125 0 0  -4.1125 0 0  -4.1 0 0  -4.0875 0 0  -4.075 0 0  -4.0625 0 0  -4.05 0 0  -4.0375 0 0  -4.025 0 0  -4.0125 0 0  -4 0 0  -3.9875 0 0  -3.975 0 0  -3.9625 0 0  -3.95 0 0  -3.9375 0 0  -3.925 0 0  -3.9125 0 0  -3.9 0 0  -3.8875 0 0  -3.875 0 0  -3.8625 0 0  -3.85 0 0  -3.8375 0 0  -3.825 0 0  -3.8125 0 0  -3.8 0 0  -3.7875 0 0  -3.775 0 0  -3.7625 0 0  -3.75 0 0  -3.7375 0 0  -3.725 0 0  -3.7125 0 0  -3.7 0 0  -3.6875 0 0  -3.675 0 0  -3.6625 0 0  -3.65 0 0  -3.6375 0 0  -3.625 0 0  -3.6125 0 0  -3.6 0 0  -3.5875 0 0  -3.575 0 0  -3.5625 0 0  -3.55 0 0  -3.5375 0 0  -3.525 0 0  -3.5125 0 0  -3.5 0 0  -3.4875 0 0  -3.475 0 0  -3.4625 0 0  -3.45 0 0  -3.4375 0 0  -3.425 0 0  -3.4125 0 0  -3.4 0 0  -3.3875 0 0  -3.375 0 0  -3.3625 0 0  -3.35 0 0  -3.3375 0 0  -3.325 0 0  -3.3125 0 0  -3.3 0 0  -3.2875 0 0  -3.275 0 0  -3.2625 0 0  -3.25 0 0  -3.2375 0 0  -3.225 0 0  -3.2125 0 0  -3.2 0 0  -3.1875 0 0  -3.175 0 0  -3.1625 0 0  -3.15 0 0  -3.1375 0 0  -3.125 0 0  -3.1125 0 0  -3.1 0 0  -3.0875 0 0  -3.075 0 0  -3.0625 0 0  -3.05 0 0  -3.0375 0 0  -3.025 0 0  -3.0125 0 0  -3 0 0  -2.9875 0 0  -2.975 0 0  -2.9625 0 0  -2.95 0 0  -2.9375 0 0  -2.925 0 0  -2.9125 0 0  -2.9 0 0  -2.8875 0 0  -2.875 0 0  -2.8625 0 0  -2.85 0 0  -2.8375 0 0  -2.825 0 0  -2.8125 0 0  -2.8 0 0  -2.7875 0 0  -2.775 0 0  -2.7625 0 0  -2.75 0 0  -2.7375 0 0  -2.725 0 0  -2.7125 0 0  -2.7 0 0  -2.6875 0 0  -2.675 0 0  -2.6625 0 0  -2.65 0 0  -2.6375 0 0  -2.625 0 0  -2.6125 0 0  -2.6 0 0  -2.5875 0 0  -2.575 0 0  -2.5625 0 0  -2.55 0 0  -2.5375 0 0  -2.525 0 0  -2.5125 0 0  -2.5 0 0  -2.4875 0 0  -2.475 0 0  -2.4625 0 0  -2.45 0 0  -2.4375 0 0  -2.425 0 0  -2.4125 0 0  -2.4 0 0  -2.3875 0 0  -2.375 0 0  -2.3625 0 0  -2.35 0 0  -2.3375 0 0  -2.325 0 0  -2.3125 0 0  -2.3 0 0  -2.2875 0 0  -2.275 0 0  -2.2625 0 0  -2.25 0 0  -2.2375 0 0  -2.225 0 0  -2.2125 0 0  -2.2 0 0  -2.1875 0 0  -2.175 0 0  -2.1625 0 0  -2.15 0 0  -2.1375 0 0  -2.125 0 0  -2.1125 0 0  -2.1 0 0  -2.0875 0 0  -2.075 0 0  -2.0625 0 0  -2.05 0 0  -2.0375 0 0  -2.025 0 0  -2.0125 0 0  -2 0 0  -1.9875 0 0  -1.975 0 0  -1.9625 0 0  -1.95 0 0  -1.9375 0 0  -1.925 0 0  -1.9125 0 0  -1.9 0 0  -1.8875 0 0  -1.875 0 0  -1.8625 0 0  -1.85 0 0  -1.8375 0 0  -1.825 0 0  -1.8125 0 0  -1.8 0 0  -1.7875 0 0  -1.775 0 0  -1.7625 0 0  -1.75 0 0  -1.7375 0 0  -1.725 0 0  -1.7125 0 0  -1.7 0 0  -1.6875 0 0  -1.675 0 0  -1.6625 0 0  -1.65 0 0  -1.6375 0 0  -1.625 0 0  -1.6125 0 0  -1.6 0 0  -1.5875 0 0  -1.575 0 0  -1.5625 0 0  -1.55 0 0  -1.5375 0 0  -1.525 0 0  -1.5125 0 0  -1.5 0 0  -1.4875 0 0  -1.475 0 0  -1.4625 0 0  -1.45 0 0  -1.4375 0 0  -1.425 0 0  -1.4125 0 0  -1.4 0 0  -1.3875 0 0  -1.375 0 0  -1.3625 0 0  -1.35 0 0  -1.3375 0 0  -1.325 0 0  -1.3125 0 0  -1.3 0 0  -1.2875 0 0  -1.275 0 0  -1.2625 0 0  -1.25 0 0  -1.2375 0 0  -1.225 0 0  -1.2125 0 0  -1.2 0 0  -1.1875 0 0  -1.175 0 0  -1.1625 0 0  -1.15 0 0  -1.1375 0 0  -1.125 0 0  -1.1125 0 0  -1.1 0 0  -1.0875 0 0  -1.075 0 0  -1.0625 0 0  -1.05 0 0  -1.0375 0 0  -1.025 0 0  -1.0125 0 0  -1 0 0  -0.9874999999999998 0 0  -0.9749999999999996 0 0  -0.9625000000000004 0 0  -0.9500000000000002 0 0  -0.9375 0 0  -0.9249999999999998 0 0  -0.9124999999999996 0 0  -0.9000000000000004 0 0  -0.8875000000000002 0 0  -0.875 0 0  -0.8624999999999998 0 0  -0.8499999999999996 0 0  -0.8375000000000004 0 0  -0.8250000000000002 0 0  -0.8125 0 0  -0.7999999999999998 0 0  -0.7874999999999996 0 0  -0.7750000000000004 0 0  -0.7625000000000002 0 0  -0.75 0 0  -0.7374999999999998 0 0  -0.7249999999999996 0 0  -0.7125000000000004 0 0  -0.7000000000000002 0 0  -0.6875 0 0  -0.6749999999999998 0 0  -0.6624999999999996 0 0  -0.6500000000000004 0 0  -0.6375000000000002 0 0  -0.625 0 0  -0.6124999999999998 0 0  -0.5999999999999996 0 0  -0.5875000000000004 0 0  -0.5750000000000002 0 0  -0.5625 0 0  -0.5499999999999998 0 0  -0.5374999999999996 0 0  -0.5250000000000004 0 0  -0.5125000000000002 0 0  -0.5 0 0  -0.4874999999999998 0 0  -0.4749999999999996 0 0  -0.4625000000000004 0 0  -0.4500000000000002 0 0  -0.4375 0 0  -0.4249999999999998 0 0  -0.4124999999999996 0 0  -0.4000000000000004 0 0  -0.3875000000000002 0 0  -0.375 0 0  -0.3624999999999998 0 0  -0.3499999999999996 0 0  -0.3375000000000004 0 0  -0.3250000000000002 0 0  -0.3125 0 0  -0.2999999999999998 0 0  -0.2874999999999996 0 0  -0.2750000000000004 0 0  -0.2625000000000002 0 0  -0.25 0 0  -0.2374999999999998 0 0  -0.2249999999999996 0 0  -0.2125000000000004 0 0  -0.2000000000000002 0 0  -0.1875 0 0  -0.1749999999999998 0 0  -0.1624999999999996 0 0  -0.1500000000000004 0 0  -0.1375000000000002 0 0  -0.125 0 0  -0.1124999999999998 0 0  -0.09999999999999964 0 0  -0.08750000000000036 0 0  -0.07500000000000018 0 0  -0.0625 0 0  -0.04999999999999982 0 0  -0.03749999999999964 0 0  -0.02500000000000036 0 0  -0.01250000000000018 0 0  0 0 0  0.01250000000000018 0 0  0.02500000000000036 0 0  0.03749999999999964 0 0  0.04999999999999982 0 0  0.0625 0 0  0.07500000000000018 0 0  0.08750000000000036 0 0  0.09999999999999964 0 0  0.1124999999999998 0 0  0.125 0 0  0.1375000000000002 0 0  0.1500000000000004 0 0  0.1624999999999996 0 0  0.1749999999999998 0 0  0.1875 0 0  0.2000000000000002 0 0  0.2125000000000004 0 0  0.2249999999999996 0 0  0.2374999999999998 0 0  0.25 0 0  0.2625000000000002 0 0  0.2750000000000004 0 0  0.2874999999999996 0 0  0.2999999999999998 0 0  0.3125 0 0  0.3250000000000002 0 0  0.3375000000000004 0 0  0.3499999999999996 0 0  0.3624999999999998 0 0  0.375 0 0  0.3875000000000002 0 0  0.4000000000000004 0 0  0.4124999999999996 0 0  0.4249999999999998 0 0  0.4375 0 0  0.4500000000000002 0 0  0.4625000000000004 0 0  0.4749999999999996 0 0  0.4874999999999998 0 0  0.5 0 0  0.5125000000000002 0 0  0.5250000000000004 0 0  0.5374999999999996 0 0  0.5499999999999998 0 0  0.5625 0 0  0.5750000000000002 0 0  0.5875000000000004 0 0  0.5999999999999996 0 0  0.6124999999999998 0 0  0.625 0 0  0.6375000000000002 0 0  0.6500000000000004 0 0  0.6624999999999996 0 0  0.6749999999999998 0 0  0.6875 0 0  0.7000000000000002 0 0  0.7125000000000004 0 0  0.7249999999999996 0 0  0.7374999999999998 0 0  0.75 0 0  0.7625000000000002 0 0  0.7750000000000004 0 0  0.7874999999999996 0 0  0.7999999999999998 0 0  0.8125 0 0  0.8250000000000002 0 0  0.8375000000000004 0 0  0.8499999999999996 0 0  0.8624999999999998 0 0  0.875 0 0  0.8875000000000002 0 0  0.9000000000000004 0 0  0.9124999999999996 0 0  0.9249999999999998 0 0  0.9375 0 0  0.9500000000000002 0 0  0.9625000000000004 0 0  0.9749999999999996 0 0  0.9874999999999998 0 0  1 0 0  1.0125 0 0  1.025 0 0  1.0375 0 0  1.05 0 0  1.0625 0 0  1.075 0 0  1.0875 0 0  1.1 0 0  1.1125 0 0  1.125 0 0  1.1375 0 0  1.15 0 0  1.1625 0 0  1.175 0 0  1.1875 0 0  1.2 0 0  1.2125 0 0  1.225 0 0  1.2375 0 0  1.25 0 0  1.2625 0 0  1.275 0 0  1.2875 0 0  1.3 0 0  1.3125 0 0  1.325 0 0  1.3375 0 0  1.35 0 0  1.3625 0 0  1.375 0 0  1.3875 0 0  1.4 0 0  1.4125 0 0  1.425 0 0  1.4375 0 0  1.45 0 0  1.4625 0 0  1.475 0 0  1.4875 0 0  1.5 0 0  1.5125 0 0  1.525 0 0  1.5375 0 0  1.55 0 0  1.5625 0 0  1.575 0 0  1.5875 0 0  1.6 0 0  1.6125 0 0  1.625 0 0  1.6375 0 0  1.65 0 0  1.6625 0 0  1.675 0 0  1.6875 0 0  1.7 0 0  1.7125 0 0  1.725 0 0  1.7375 0 0  1.75 0 0  1.7625 0 0  1.775 0 0  1.7875 0 0  1.8 0 0  1.8125 0 0  1.825 0 0  1.8375 0 0  1.85 0 0  1.8625 0 0  1.875 0 0  1.8875 0 0  1.9 0 0  1.9125 0 0  1.925 0 0  1.9375 0 0  1.95 0 0  1.9625 0 0  1.975 0 0  1.9875 0 0  2 0 0  2.0125 0 0  2.025 0 0  2.0375 0 0  2.05 0 0  2.0625 0 0  2.075 0 0  2.0875 0 0  2.1 0 0  2.1125 0 0  2.125 0 0  2.1375 0 0  2.15 0 0  2.1625 0 0  2.175 0 0  2.1875 0 0  2.2 0 0  2.2125 0 0  2.225 0 0  2.2375 0 0  2.25 0 0  2.2625 0 0  2.275 0 0  2.2875 0 0  2.3 0 0  2.3125 0 0  2.325 0 0  2.3375 0 0  2.35 0 0  2.3625 0 0  2.375 0 0  2.3875 0 0  2.4 0 0  2.4125 0 0  2.425 0 0  2.4375 0 0  2.45 0 0  2.4625 0 0  2.475 0 0  2.4875 0 0  2.5 0 0  2.5125 0 0  2.525 0 0  2.5375 0 0  2.55 0 0  2.5625 0 0  2.575 0 0  2.5875 0 0  2.6 0 0  2.6125 0 0  2.625 0 0  2.6375 0 0  2.65 0 0  2.6625 0 0  2.675 0 0  2.6875 0 0  2.7 0 0  2.7125 0 0  2.725 0 0  2.7375 0 0  2.75 0 0  2.7625 0 0  2.775 0 0  2.7875 0 0  2.8 0 0  2.8125 0 0  2.825 0 0  2.8375 0 0  2.85 0 0  2.8625 0 0  2.875 0 0  2.8875 0 0  2.9 0 0  2.9125 0 0  2.925 0 0  2.9375 0 0  2.95 0 0  2.9625 0 0  2.975 0 0  2.9875 0 0  3 0 0  3.012499999999999 0 0  3.025 0 0  3.0375 0 0  3.050000000000001 0 0  3.0625 0 0  3.074999999999999 0 0  3.0875 0 0  3.1 0 0  3.112500000000001 0 0  3.125 0 0  3.137499999999999 0 0  3.15 0 0  3.1625 0 0  3.175000000000001 0 0  3.1875 0 0  3.199999999999999 0 0  3.2125 0 0  3.225 0 0  3.237500000000001 0 0  3.25 0 0  3.262499999999999 0 0  3.275 0 0  3.2875 0 0  3.300000000000001 0 0  3.3125 0 0  3.324999999999999 0 0  3.3375 0 0  3.35 0 0  3.362500000000001 0 0  3.375 0 0  3.387499999999999 0 0  3.4 0 0  3.4125 0 0  3.425000000000001 0 0  3.4375 0 0  3.449999999999999 0 0  3.4625 0 0  3.475 0 0  3.4875
[...]
<PointData  Vectors="(h, u)"> 
<DataArray  type="Float64"  Name="(h, u)"  NumberOfComponents="3" format="ascii">5.5000000000000021e-02 0.0000000000000000e+00 0.0000000000000000e+00  5.5000000000000007e-02 -9.7516885405743444e-17 0.0000000000000000e+00  5.5000000000000021e-02 -2.3517845973962910e-16 0.0000000000000000e+00  5.5000000000000007e-02 -2.4588742644603184e-16 0.0000000000000000e+00  5.5000000000000021e-02 -3.7336952289437634e-16 0.0000000000000000e+00  5.5000000000000007e-02 4.0674765545209297e-17 0.0000000000000000e+00  5.5000000000000014e-02 -3.1189732462089922e-16 0.0000000000000000e+00  5.5000000000000007e-02 1.7330670465702966e-16 0.0000000000000000e+00  5.5000000000000014e-02 -6.5540826367454351e-17 0.0000000000000000e+00  5.5000000000000007e-02 2.9877097995104294e-18 0.0000000000000000e+00  5.5000000000000028e-02 -4.5748305594683162e-16 0.0000000000000000e+00  5.5000000000000021e-02 -1.6310723859154324e-16 0.0000000000000000e+00  5.5000000000000035e-02 -2.2705926626924221e-16 0.0000000000000000e+00  5.5000000000000035e-02 2.7205598362981404e-16 0.0000000000000000e+00  5.5000000000000049e-02 -4.0176972231882973e-16 0.0000000000000000e+00  5.5000000000000028e-02 2.9686772448134762e-16 0.0000000000000000e+00  5.5000000000000035e-02 -5.5414854267941735e-16 0.0000000000000000e+00  5.5000000000000021e-02 -6.4116456115265791e-17 0.0000000000000000e+00  5.5000000000000028e-02 -5.3623889941930708e-16 0.0000000000000000e+00  5.5000000000000021e-02 -8.7638314467540124e-18 0.0000000000000000e+00  5.5000000000000028e-02 -3.9446706130716807e-16 0.0000000000000000e+00  5.5000000000000021e-02 8.2008590916814706e-17 0.0000000000000000e+00  5.5000000000000028e-02 -2.9134906572482173e-16 0.0000000000000000e+00  5.5000000000000021e-02 1.4565690572491742e-16 0.0000000000000000e+00  5.5000000000000028e-02 -2.5531090314033993e-16 0.0000000000000000e+00  5.5000000000000021e-02 1.1945239329983459e-16 0.0000000000000000e+00  5.5000000000000028e-02 -2.4444454049362745e-16 0.0000000000000000e+00  5.5000000000000021e-02 1.2761395619319227e-16 0.0000000000000000e+00  5.5000000000000028e-02 -9.9047067721077344e-17 0.0000000000000000e+00  5.5000000000000021e-02 2.2697159221894072e-16 0.0000000000000000e+00  5.5000000000000028e-02 8.2339138566503107e-17 0.0000000000000000e+00  5.5000000000000021e-02 2.2643975377565039e-16 0.0000000000000000e+00  5.5000000000000028e-02 7.9994462258000861e-17 0.0000000000000000e+00  5.5000000000000021e-02 2.7063548151512433e-17 0.0000000000000000e+00  5.5000000000000028e-02 -3.1500243470937176e-17 0.0000000000000000e+00  5.5000000000000021e-02 -1.6158905752694564e-16 0.0000000000000000e+00  5.5000000000000028e-02 -3.0490741332203626e-17 0.0000000000000000e+00  5.5000000000000021e-02 -1.3772126624336397e-16 0.0000000000000000e+00  5.5000000000000028e-02 1.1845103271809205e-16 0.0000000000000000e+00  5.5000000000000021e-02 -9.0333234376058074e-17 0.0000000000000000e+00  5.5000000000000028e-02 1.7810595685088288e-16 0.0000000000000000e+00  5.5000000000000021e-02 -1.3705875242223878e-16 0.0000000000000000e+00  5.5000000000000028e-02 2.2933877321292241e-16 0.0000000000000000e+00  5.5000000000000021e-02 -1.9549257536298301e-16 0.0000000000000000e+00  5.5000000000000028e-02 4.6636158150539526e-16 0.0000000000000000e+00  5.5000000000000014e-02 -1.5088346831366663e-16 0.0000000000000000e+00  5.5000000000000028e-02 4.6126261677743205e-16 0.0000000000000000e+00  5.5000000000000014e-02 -1.8027662130121113e-17 0.0000000000000000e+00  5.5000000000000028e-02 3.2498730059128199e-16 0.0000000000000000e+00  5.5000000000000021e-02 7.1296003810519504e-18 0.0000000000000000e+00  5.5000000000000028e-02 3.0754801538919439e-16 0.0000000000000000e+00  5.5000000000000021e-02 -1.8635998275816038e-17 0.0000000000000000e+00  5.5000000000000028e-02 6.9011446798659376e-17 0.0000000000000000e+00  5.5000000000000021e-02 1.0360520054756451e-16 0.0000000000000000e+00  5.5000000000000021e-02 -2.1091772797932335e-16 0.0000000000000000e+00  5.5000000000000028e-02 -2.0518449723787695e-16 0.0000000000000000e+00  5.5000000000000028e-02 -1.0770780513387395e-16 0.0000000000000000e+00  5.5000000000000014e-02 -9.9257363823219644e-17 0.0000000000000000e+00  5.5000000000000028e-02 -2.3025604622835917e-16 0.0000000000000000e+00  5.5000000000000014e-02 2.8289579348108091e-17 0.0000000000000000e+00  5.5000000000000028e-02 -1.5222229085709604e-16 0.0000000000000000e+00  5.5000000000000014e-02 9.9598921317523834e-17 0.0000000000000000e+00  5.5000000000000028e-02 -1.3129658273859883e-16 0.0000000000000000e+00  5.5000000000000014e-02 4.1928006388014216e-17 0.0000000000000000e+00  5.5000000000000028e-02 -3.7531838000825612e-16 0.0000000000000000e+00  5.5000000000000021e-02 -7.3157845989129731e-18 0.0000000000000000e+00  5.5000000000000028e-02 -2.3442241800232991e-18 0.0000000000000000e+00  5.5000000000000021e-02 9.8102037505148596e-17 0.0000000000000000e+00  5.5000000000000028e-02 2.4120537170099826e-16 0.0000000000000000e+00  5.5000000000000021e-02 4.2164194286074305e-17 0.0000000000000000e+00  5.5000000000000028e-02 1.1000911046877853e-16 0.0000000000000000e+00  5.5000000000000021e-02 -1.2026104895502053e-16 0.0000000000000000e+00  5.5000000000000028e-02 1.6421384258767322e-16 0.0000000000000000e+00  5.5000000000000021e-02 -4.4805727678892071e-17 0.0000000000000000e+00  5.5000000000000028e-02 4.4189965010617161e-16 0.0000000000000000e+00  5.5000000000000014e-02 2.1083859042825994e-16 0.0000000000000000e+00  5.5000000000000021e-02 1.4879009971755874e-16 0.0000000000000000e+00  5.5000000000000014e-02 -1.6961050312893476e-16 0.0000000000000000e+00  5.5000000000000028e-02 -1.6969816629102825e-16 0.0000000000000000e+00  5.5000000000000021e-02 6.3235118042641489e-17 0.0000000000000000e+00  5.5000000000000028e-02 -2.0160659271095714e-16 0.0000000000000000e+00  5.5000000000000028e-02 -1.8483206703063377e-17 0.0000000000000000e+00  5.5000000000000028e-02 2.4597604738091244e-17 0.0000000000000000e+00  5.5000000000000028e-02 -1.3663172225159253e-16 0.0000000000000000e+00  5.5000000000000028e-02 3.3340261358155362e-16 0.0000000000000000e+00  5.5000000000000021e-02 -1.8706393034692255e-16 0.0000000000000000e+00  5.5000000000000028e-02 2.2794910763384632e-16 0.0000000000000000e+00  5.5000000000000014e-02 -1.3291049367098028e-16 0.0000000000000000e+00  5.5000000000000028e-02 -3.6729659928249995e-17 0.0000000000000000e+00  5.5000000000000014e-02 3.0993313733337717e-17 0.0000000000000000e+00  5.5000000000000028e-02 -1.2497780922963605e-16 0.0000000000000000e+00  5.5000000000000014e-02 1.2145157995941756e-16 0.0000000000000000e+00  5.5000000000000028e-02 -3.7630128867399368e-16 0.0000000000000000e+00  5.5000000000000021e-02 6.7527849786008392e-17 0.0000000000000000e+00  5.5000000000000028e-02 -2.3977069285645470e-17 0.0000000000000000e+00  5.5000000000000014e-02 1.1380455867733868e-16 0.0000000000000000e+00  5.5000000000000028e-02 8.7917284916935723e-17 0.0000000000000000e+00  5.5000000000000014e-02 4.9924888885688965e-16 0.0000000000000000e+00  5.5000000000000021e-02 3.1130491843629472e-16 0.0000000000000000e+00  5.5000000000000014e-02 3.2891568196482105e-16 0.0000000000000000e+00  5.5000000000000007e-02 -1.1929708879865526e-16 0.0000000000000000e+00  5.5000000000000035e-02 1.7270128489948750e-16 0.0000000000000000e+00  5.5000000000000007e-02 -3.7235023743225744e-16 0.0000000000000000e+00  5.5000000000000028e-02 3.4205366809643504e-17 0.0000000000000000e+00  5.5000000000000014e-02 -4.2389135251538419e-16 0.0000000000000000e+00  5.5000000000000021e-02 -4.4053148484256028e-17 0.0000000000000000e+00  5.5000000000000021e-02 -4.5625398102424167e-17 0.0000000000000000e+00  5.5000000000000014e-02 2.7323565700613843e-16 0.0000000000000000e+00  5.5000000000000028e-02 -1.8865677834809416e-16 0.0000000000000000e+00  5.5000000000000028e-02 2.5746676700981013e-16 0.0000000000000000e+00  5.5000000000000028e-02 -1.4279115399250125e-16 0.0000000000000000e+00  5.5000000000000028e-02 2.0198251354667112e-16 0.0000000000000000e+00  5.5000000000000014e-02 -2.7786708975083015e-16 0.0000000000000000e+00  5.5000000000000028e-02 -1.0877538488978035e-16 0.0000000000000000e+00  5.5000000000000014e-02 -1.7890562861849270e-16 0.0000000000000000e+00  5.5000000000000028e-02 -1.6831881156566272e-16 0.0000000000000000e+00  5.5000000000000021e-02 -1.0748165614932849e-16 0.0000000000000000e+00  5.5000000000000021e-02 -3.9929337768079016e-18 0.0000000000000000e+00  5.5000000000000028e-02 -1.2476692329425173e-16 0.0000000000000000e+00  5.5000000000000021e-02 1.6286357419082940e-16 0.0000000000000000e+00  5.5000000000000028e-02 -1.8591201147350755e-16 0.0000000000000000e+00  5.5000000000000021e-02 1.9313925990687110e-16 0.0000000000000000e+00  5.5000000000000028e-02 -1.6966808485677072e-16 0.0000000000000000e+00  5.5000000000000021e-02 1.5591820593959911e-16 0.0000000000000000e+00  5.5000000000000028e-02 -4.4774865726413431e-16 0.0000000000000000e+00  5.5000000000000028e-02 2.4155725164708426e-17 0.0000000000000000e+00  5.5000000000000028e-02 -1.6641757704397176e-16 0.0000000000000000e+00  5.5000000000000028e-02 1.4118458700913619e-17 0.0000000000000000e+00  5.5000000000000028e-02 1.1215569335350178e-17 0.0000000000000000e+00  5.5000000000000028e-02 6.8479652952683905e-17 0.0000000000000000e+00  5.5000000000000028e-02 2.7310328693975872e-16 0.0000000000000000e+00  5.5000000000000028e-02 1.1776593881021561e-16 0.0000000000000000e+00  5.5000000000000028e-02 -2.7257476264170863e-17 0.0000000000000000e+00  5.5000000000000028e-02 -1.2924883914892993e-16 0.0000000000000000e+00  5.5000000000000028e-02 -2.6225532675930270e-16 0.0000000000000000e+00  5.5000000000000028e-02 -4.2223618409530259e-17 0.0000000000000000e+00  5.5000000000000028e-02 -6.7455625595176653e-19 0.0000000000000000e+00  5.5000000000000028e-02 2.5316358913937558e-16 0.0000000000000000e+00  5.5000000000000028e-02 2.4761179080444926e-16 0.0000000000000000e+00  5.5000000000000028e-02 4.2560984828202721e-16 0.0000000000000000e+00  5.5000000000000028e-02 3.2232751989709246e-16 0.0000000000000000e+00  5.5000000000000021e-02 2.0213357156030765e-16 0.0000000000000000e+00  5.5000000000000028e-02 -1.1920796856166135e-16 0.0000000000000000e+00  5.5000000000000014e-02 1.0377275103522334e-16 0.0000000000000000e+00  5.5000000000000021e-02 -3.3876884395935711e-17 0.0000000000000000e+00  5.5000000000000014e-02 8.4448326709480677e-17 0.0000000000000000e+00  5.5000000000000014e-02 -1.5299522357880409e-16 0.0000000000000000e+00  5.5000000000000028e-02 -3.3286399733997352e-16 0.0000000000000000e+00  5.5000000000000035e-02 -2.5322653521557035e-16 0.0000000000000000e+00  5.5000000000000028e-02 1.4246884086987918e-16 0.0000000000000000e+00  5.5000000000000028e-02 1.2586056399800501e-16 0.0000000000000000e+00  5.5000000000000014e-02 -7.9337694244009974e-17 0.0000000000000000e+00  5.5000000000000035e-02 3.0580919923443044e-16 0.0000000000000000e+00  5.5000000000000007e-02 1.4417303674216569e-16 0.0000000000000000e+00  5.5000000000000028e-02 -1.9607972185382273e-17 0.0000000000000000e+00  5.5000000000000007e-02 1.0954343980271944e-16 0.0000000000000000e+00  5.5000000000000028e-02 -1.3222629378374033e-16 0.0000000000000000e+00  5.5000000000000000e-02 3.7698115598979685e-19 0.0000000000000000e+00  5.5000000000000028e-02 -3.1161653995933386e-17 0.0000000000000000e+00  5.5000000000000014e-02 1.1692152883040046e-16 0.0000000000000000e+00  5.5000000000000028e-02 -3.7042739281777143e-16 0.0000000000000000e+00  5.5000000000000021e-02 1.1634570825233511e-16 0.0000000000000000e+00  5.5000000000000014e-02 3.6856709392946946e-20 0.0000000000000000e+00  5.5000000000000021e-02 -4.2000981787554720e-18 0.0000000000000000e+00  5.5000000000000014e-02 -1.9287724974564464e-16 0.0000000000000000e+00  5.5000000000000028e-02 -2.9876596324058992e-16 0.0000000000000000e+00  5.5000000000000021e-02 8.4859781052942425e-17 0.0000000000000000e+00  5.5000000000000028e-02 -5.5001375815957303e-17 0.0000000000000000e+00  5.5000000000000021e-02 2.0797412204971300e-16 0.0000000000000000e+00  5.5000000000000028e-02 -3.6436936861059576e-16 0.0000000000000000e+00  5.5000000000000028e-02 2.8708686324575756e-16 0.0000000000000000e+00  5.5000000000000021e-02 -1.0111634890366128e-16 0.0000000000000000e+00  5.5000000000000028e-02 1.2652999366439477e-16 0.0000000000000000e+00  5.5000000000000021e-02 4.2656364436282938e-17 0.0000000000000000e+00  5.5000000000000028e-02 -9.0557383017003341e-17 0.0000000000000000e+00  5.5000000000000021e-02 1.9540343666412932e-16 0.0000000000000000e+00  5.5000000000000021e-02 -2.7177668373437129e-16 0.0000000000000000e+00  5.5000000000000028e-02 -1.1638779541779726e-16 0.0000000000000000e+00  5.5000000000000028e-02 -4.1187768919972419e-17 0.0000000000000000e+00  5.5000000000000021e-02 1.0053533813027795e-16 0.0000000000000000e+00  5.5000000000000021e-02 -1.1879922779698110e-16 0.0000000000000000e+00  5.5000000000000042e-02 3.9948384251777821e-17 0.0000000000000000e+00  5.5000000000000028e-02 8.9795245382838122e-17 0.0000000000000000e+00  5.5000000000000000e-02 4.1366129612418008e-17 0.0000000000000000e+00  5.5000000000000028e-02 1.5596218989770885e-16 0.0000000000000000e+00  5.4999999999999993e-02 -1.1185050726532284e-16 0.0000000000000000e+00  5.5000000000000063e-02 4.1922873129555779e-16 0.0000000000000000e+00  5.4999999999999945e-02 -1.3229264757576932e-15 0.0000000000000000e+00  5.5000000000000243e-02 3.0915513573342561e-15 0.0000000000000000e+00  5.4999999999999487e-02 -7.1783231625042481e-15 0.0000000000000000e+00  5.5000000000001117e-02 1.4529090701943774e-14 0.0000000000000000e+00  5.4999999999998085e-02 -2.5632428382198721e-14 0.0000000000000000e+00  5.5000000000002186e-02 2.8455308437024264e-14 0.0000000000000000e+00  5.5000000000003643e-02 4.8548187042637721e-14 0.0000000000000000e+00  5.4999999999961802e-02 -5.1055159582192748e-13 0.0000000000000000e+00  5.5000000000188905e-02 2.5223203786625642e-12 0.0000000000000000e+00  5.4999999999233370e-02 -1.0236949416466313e-11 0.0000000000000000e+00  5.5000000002836405e-02 3.7874233078266041e-11 0.0000000000000000e+00  5.4999999990061894e-02 -1.3270549394793994e-10 0.0000000000000000e+00  5.5000000033593448e-02 4.4858471781110376e-10 0.0000000000000000e+00  5.4999999889312493e-02 -1.4781043302587139e-09 0.0000000000000000e+00  5.5000000357767469e-02 4.7779546545596944e-09 0.0000000000000000e+00  5.4999998860861564e-02 -1.5215736019652379e-08 0.0000000000000000e+00  5.5000003583211513e-02 4.7879497697833895e-08 0.0000000000000000e+00  5.4999988842704413e-02 -1.4920268204869529e-07 0.0000000000000000e+00  5.5000034436780060e-02 4.6127091371568840e-07 0.0000000000000000e+00  5.4999894565376350e-02 -1.4171493284229635e-06 0.0000000000000000e+00  5.5000320205059315e-02 4.3348651533602286e-06 0.0000000000000000e+00  5.4999036613828399e-02 -1.3237841031993210e-05 0.0000000000000000e+00  5.5002860975046322e-02 4.0536892623264332e-05 0.0000000000000000e+00  5.4991686657230809e-02 -1.2550621336321409e-04 0.0000000000000000e+00  5.5023158189187446e-02 3.9822418733730645e-04 0.0000000000000000e+00  5.4941420074405049e-02 -1.3279206265007933e-03 0.0000000000000000e+00  5.5111113086793347e-02 4.7752869505308070e-03 0.0000000000000000e+00  5.5054967869124900e-02 -1.9357120109332247e-02 0.0000000000000000e+00  5.2685893958776771e-02 8.5746057000177442e-02 0.0000000000000000e+00  8.3549153447109475e-02 -5.2620492769439453e-01 0.0000000000000000e+00  1.9202310710869264e-01 -2.0470922117157451e+00 0.0000000000000000e+00  2.8164192804963051e-01 -2.7727926186206848e+00 0.0000000000000000e+00  3.3565581198266692e-01 -3.1187625706760049e+00 0.0000000000000000e+00  3.6477657081486164e-01 -3.2843967805791285e+00 0.0000000000000000e+00  3.7798552409990610e-01 -3.3583912901204593e+00 0.0000000000000000e+00  3.8383699616251055e-01 -3.3926688932474982e+00 0.0000000000000000e+00  3.8496629304438984e-01 -3.4031444868830540e+00 0.0000000000000000e+00  3.8429194822207507e-01 -3.4044044040843167e+00 0.0000000000000000e+00  3.8229260903468321e-01 -3.3990330530498820e+00 0.0000000000000000e+00  3.7983411171591536e-01 -3.3915066976755703e+00 0.0000000000000000e+00  3.7700881371401174e-01 -3.3820348786660714e+00 0.0000000000000000e+00  3.7407035169776420e-01 -3.3719613583826598e+00 0.0000000000000000e+00  3.7101880651639302e-01 -3.3613783145662368e+00 0.0000000000000000e+00  3.6794185395138562e-01 -3.3505931687698265e+00 0.0000000000000000e+00  3.6484128756404294e-01 -3.3396374422781330e+00 0.0000000000000000e+00  3.6172991814142902e-01 -3.3286520358987999e+00 0.0000000000000000e+00  3.5861789235198849e-01 -3.3176160982815319e+00 0.0000000000000000e+00  3.5551108833396128e-01 -3.3065532280161918e+00 0.0000000000000000e+00  3.5240632471498590e-01 -3.2955002699512517e+00 0.0000000000000000e+00  3.4930778539775437e-01 -3.2844508464099258e+00 0.0000000000000000e+00  3.4621860257497411e-01 -3.2733992781611914e+00 0.0000000000000000e+00  3.4313643519361398e-01 -3.2623641916544921e+00 0.0000000000000000e+00  3.4006191703254224e-01 -3.2513480989870196e+00 0.0000000000000000e+00  3.3699745658707420e-01 -3.2403422060553009e+00 0.0000000000000000e+00  3.3394245860842997e-01 -3.2293529507362879e+00 0.0000000000000000e+00  3.3089626123672150e-01 -3.2183873342104734e+00 0.0000000000000000e+00  3.2786007757143609e-01 -3.2074411759935861e+00 0.0000000000000000e+00  3.2483461722471169e-01 -3.1965134338498031e+00 0.0000000000000000e+00  3.2181923911225296e-01 -3.1856096399543929e+00 0.0000000000000000e+00  3.1881417560022218e-01 -3.1747310336461663e+00 0.0000000000000000e+00  3.1582017972379245e-01 -3.1638753596493059e+00 0.0000000000000000e+00  3.1283748687596735e-01 -3.1530434807576446e+00 0.0000000000000000e+00  3.0986581854049872e-01 -3.1422387427874456e+00 0.0000000000000000e+00  3.0690553496789691e-01 -3.1314611802711041e+00 0.0000000000000000e+00  3.0395710267295933e-01 -3.1207098152053798e+00 0.0000000000000000e+00  3.0102073339635388e-01 -3.1099853598881926e+00 0.0000000000000000e+00  2.9809634317107225e-01 -3.0992898014191317e+00 0.0000000000000000e+00  2.9518423130930660e-01 -3.0886232985020965e+00 0.0000000000000000e+00  2.9228477707681771e-01 -3.0779850475763304e+00 0.0000000000000000e+00  2.8939824835532718e-01 -3.0673752656099524e+00 0.0000000000000000e+00  2.8652469874174769e-01 -3.0567949030309305e+00 0.0000000000000000e+00  2.8366433466059593e-01 -3.0462444502696311e+00 0.0000000000000000e+00  2.8081752532378601e-01 -3.0357229248888711e+00 0.0000000000000000e+00  2.7798461133550201e-01 -3.0252298884948603e+00 0.0000000000000000e+00  2.7516581276900098e-01 -3.0147651273443978e+00 0.0000000000000000e+00  2.7236129582210294e-01 -3.0043291098690932e+00 0.0000000000000000e+00  2.6957139429443716e-01 -2.9939208712448933e+00 0.0000000000000000e+00  2.6679651699926760e-01 -2.9835392814562871e+00 0.0000000000000000e+00  2.6403708742776588e-01 -2.9731827123714547e+00 0.0000000000000000e+00  2.6129341415018081e-01 -2.9628504659074815e+00 0.0000000000000000e+00  2.5856580675440854e-01 -2.9525414952952240e+00 0.0000000000000000e+00  2.5585467618770869e-01 -2.9422543192384603e+00 0.0000000000000000e+00  2.5316055449199626e-01 -2.9319863894722760e+00 0.0000000000000000e+00  2.5048406437212217e-01 -2.9217346970245606e+00 0.0000000000000000e+00  2.4782576686566379e-01 -2.9114963196088133e+00 0.0000000000000000e+00  2.4518622960418232e-01 -2.9012683441217968e+00 0.0000000000000000e+00  2.4256600216286847e-01 -2.8910477270794024e+00 0.0000000000000000e+00  2.3996580180146665e-01 -2.8808303497423884e+00 0.0000000000000000e+00  2.3738647690074860e-01 -2.8706110284550905e+00 0.0000000000000000e+00  2.3482906129567904e-01 -2.8603832666178026e+00 0.0000000000000000e+00  2.3229467522732841e-01 -2.8501397814515159e+00 0.0000000000000000e+00  2.2978451656625787e-01 -2.8398725575274670e+00 0.0000000000000000e+00  2.2729987069780855e-01 -2.8295728041208288e+00 0.0000000000000000e+00  2.2484215907202840e-01 -2.8192305101289254e+00 0.0000000000000000e+00  2.2241306108247080e-01 -2.8088337632845781