<?xml version="1.0"?>
<VTKFile type="UnstructuredGrid"  version="0.1"  >
<UnstructuredGrid>
<Piece  NumberOfPoints="801" NumberOfCells="800">
<Points>
<DataArray  type="Float64"  NumberOfComponents="3"  format="ascii">-5 0 0  -4.9875 0 0  -4.975 0 0  -4.9625 0 0  -4.95 0 0  -4.9375 0 0  -4.925 0 0  -4.9125 0 0  -4.9 0 0  -4.8875 0 0  -4.875 0 0  -4.8625 0 0  -4.85 0 0  -4.8375 0 0  -4.825 0 0  -4.8125 0 0  -4.8 0 0  -4.7875 0 0  -4.775 0 0  -4.7625 0 0  -4.75 0 0  -4.7375 0 0  -4.725 0 0  -4.7125 0 0  -4.7 0 0  -4.6875 0 0  -4.675 0 0  -4.6625 0 0  -4.65 0 0  -4.6375 0 0  -4.625 0 0  -4.6125 0 0  -4.6 0 0  -4.5875 0 0  -4.575 0 0  -4.5625 0 0  -4.55 0 0  -4.5375 0 0  -4.525 0 0  -4.5125 0 0  -4.5 0 0  -4.4875 0 0  -4.475 0 0  -4.4625 0 0  -4.45 0 0  -4.4375 0 0  -4.425 0 0  -4.4125 0 0  -4.4 0 0  -4.3875 0 0  -4.375 0 0  -4.3625 0 0  -4.35 0 0  -4.3375 0 0  -4.325 0 0  -4.3125 0 0  -4.3 0 0  -4.2875 0 0  -4.275 0 0  -4.2625 0 0  -4.25 0 0  -4.2375 0 0  -4.225 0 0  -4.2125 0 0  -4.2 0 0  -4.1875 0 0  -4.175 0 0  -4.1625 0 0  -4.15 0 0  -4.1375 0 0  -4.125 0 0  -4.1125 0 0  -4.1 0 0  -4.0875 0 0  -4.075 0 0  -4.0625 0 0  -4.05 0 0  -4.0375 0 0  -4.025 0 0  -4.0125 0 0  -4 0 0  -3.9875 0 0  -3.975 0 0  -3.9625 0 0  -3.95 0 0  -3.9375 0 0  -3.925 0 0  -3.9125 0 0  -3.9 0 0  -3.8875 0 0  -3.875 0 0  -3.8625 0 0  -3.85 0 0  -3.8375 0 0  -3.825 0 0  -3.8125 0 0  -3.8 0 0  -3.7875 0 0  -3.775 0 0  -3.7625 0 0  -3.75 0 0  -3.7375 0 0  -3.725 0 0  -3.7125 0 0  -3.7 0 0  -3.6875 0 0  -3.675 0 0  -3.6625 0 0  -3.65 0 0  -3.6375 0 0  -3.625 0 0  -3.6125 0 0  -3.6 0 0  -3.5875 0 0  -3.575 0 0  -3.5625 0 0  -3.55 0 0  -3.5375 0 0  -3.525 0 0  -3.5125 0 0  -3.5 0 0  -3.4875 0 0  -3.475 0 0  -3.4625 0 0  -3.45 0 0  -3.4375 0 0  -3.425 0 0  -3.4125 0 0  -3.4 0 0  -3.3875 0 0  -3.375 0 0  -3.3625 0 0  -3.35 0 0  -3.3375 0 0  -3.325 0 0  -3.3125 0 0  -3.3 0 0  -3.2875 0 0  -3.275 0 0  -3.2625 0 0  -3.25 0 0  -3.2375 0 0  -3.225 0 0  -3.2125 0 0  -3.2 0 0  -3.1875 0 0  -3.175 0 0  -3.1625 0 0  -3.15 0 0  -3.1375 0 0  -3.125 0 0  -3.1125 0 0  -3.1 0 0  -3.0875 0 0  -3.075 0 0  -3.0625 0 0  -3.05 0 0  -3.0375 0 0  -3.025 0 0  -3.0125 0 0  -3 0 0  -2.9875 0 0  -2.975 0 0  -2.9625 0 0  -2.95 0 0  -2.9375 0 0  -2.925 0 0  -2.9125 0 0  -2.9 0 0  -2.8875 0 0  -2.875 0 0  -2.8625 0 0  -2.85 0 0  -2.8375 0 0  -2.825 0 0  -2.8125 0 0  -2.8 0 0  -2.7875 0 0  -2.775 0 0  -2.7625 0 0  -2.75 0 0  -2.7375 0 0  -2.725 0 0  -2.7125 0 0  -2.7 0 0  -2.6875 0 0  -2.675 0 0  -2.6625 0 0  -2.65 0 0  -2.6375 0 0  -2.625 0 0  -2.6125 0 0  -2.6 0 0  -2.5875 0 0  -2.575 0 0  -2.5625 0 0  -2.55 0 0  -2.5375 0 0  -2.525 0 0  -2.5125 0 0  -2.5 0 0  -2.4875 0 0  -2.475 0 0  -2.4625 0 0  -2.45 0 0  -2.4375 0 0  -2.425 0 0  -2.4125 0 0  -2.4 0 0  -2.3875 0 0  -2.375 0 0  -2.3625 0 0  -2.35 0 0  -2.3375 0 0  -2.325 0 0  -2.3125 0 0  -2.3 0 0  -2.2875 0 0  -2.275 0 0  -2.2625 0 0  -2.25 0 0  -2.2375 0 0  -2.225 0 0  -2.2125 0 0  -2.2 0 0  -2.1875 0 0  -2.175 0 0  -2.1625 0 0  -2.15 0 0  -2.1375 0 0  -2.125 0 0  -2.1125 0 0  -2.1 0 0  -2.0875 0 0  -2.075 0 0  -2.0625 0 0  -2.05 0 0  -2.0375 0 0  -2.025 0 0  -2.0125 0 0  -2 0 0  -1.9875 0 0  -1.975 0 0  -1.9625 0 0  -1.95 0 0  -1.9375 0 0  -1.925 0 0  -1.9125 0 0  -1.9 0 0  -1.8875 0 0  -1.875 0 0  -1.8625 0 0  -1.85 0 0  -1.8375 0 0  -1.825 0 0  -1.8125 0 0  -1.8 0 0  -1.7875 0 0  -1.775 0 0  -1.7625 0 0  -1.75 0 0  -1.7375 0 0  -1.725 0 0  -1.7125 0 0  -1.7 0 0  -1.6875 0 0  -1.675 0 0  -1.6625 0 0  -1.65 0 0  -1.6375 0 0  -1.625 0 0  -1.6125 0 0  -1.6 0 0  -1.5875 0 0  -1.575 0 0  -1.5625 0 0  -1.55 0 0  -1.5375 0 0  -1.525 0 0  -1.5125 0 0  -1.5 0 0  -1.4875 0 0  -1.475 0 0  -1.4625 0 0  -1.45 0 0  -1.4375 0 0  -1.425 0 0  -1.4125 0 0  -1.4 0 0  -1.3875 0 0  -1.375 0 0  -1.3625 0 0  -1.35 0 0  -1.3375 0 0  -1.325 0 0  -1.3125 0 0  -1.3 0 0  -1.2875 0 0  -1.275 0 0  -1.2625 0 0  -1.25 0 0  -1.2375 0 0  -1.225 0 0  -1.2125 0 0  -1.2 0 0  -1.1875 0 0  -1.175 0 0  -1.1625 0 0  -1.15 0 0  -1.1375 0 0  -1.125 0 0  -1.1125 0 0  -1.1 0 0  -1.0875 0 0  -1.075 0 0  -1.0625 0 0  -1.05 0 0  -1.0375 0 0  -1.025 0 0  -1.0125 0 0  -1 0 0  -0.9874999999999998 0 0  -0.9749999999999996 0 0  -0.9625000000000004 0 0  -0.9500000000000002 0 0  -0.9375 0 0  -0.9249999999999998 0 0  -0.9124999999999996 0 0  -0.9000000000000004 0 0  -0.8875000000000002 0 0  -0.875 0 0  -0.8624999999999998 0 0  -0.8499999999999996 0 0  -0.8375000000000004 0 0  -0.8250000000000002 0 0  -0.8125 0 0  -0.7999999999999998 0 0  -0.7874999999999996 0 0  -0.7750000000000004 0 0  -0.7625000000000002 0 0  -0.75 0 0  -0.7374999999999998 0 0  -0.7249999999999996 0 0  -0.7125000000000004 0 0  -0.7000000000000002 0 0  -0.6875 0 0  -0.6749999999999998 0 0  -0.6624999999999996 0 0  -0.6500000000000004 0 0  -0.6375000000000002 0 0  -0.625 0 0  -0.6124999999999998 0 0  -0.5999999999999996 0 0  -0.5875000000000004 0 0  -0.5750000000000002 0 0  -0.5625 0 0  -0.5499999999999998 0 0  -0.5374999999999996 0 0  -0.5250000000000004 0 0  -0.5125000000000002 0 0  -0.5 0 0  -0.4874999999999998 0 0  -0.4749999999999996 0 0  -0.4625000000000004 0 0  -0.4500000000000002 0 0  -0.4375 0 0  -0.4249999999999998 0 0  -0.4124999999999996 0 0  -0.4000000000000004 0 0  -0.3875000000000002 0 0  -0.375 0 0  -0.3624999999999998 0 0  -0.3499999999999996 0 0  -0.3375000000000004 0 0  -0.3250000000000002 0 0  -0.3125 0 0  -0.2999999999999998 0 0  -0.2874999999999996 0 0  -0.2750000000000004 0 0  -0.2625000000000002 0 0  -0.25 0 0  -0.2374999999999998 0 0  -0.2249999999999996 0 0  -0.2125000000000004 0 0  -0.2000000000000002 0 0  -0.1875 0 0  -0.1749999999999998 0 0  -0.1624999999999996 0 0  -0.1500000000000004 0 0  -0.1375000000000002 0 0  -0.125 0 0  -0.1124999999999998 0 0  -0.09999999999999964 0 0  -0.08750000000000036 0 0  -0.07500000000000018 0 0  -0.0625 0 0  -0.04999999999999982 0 0  -0.03749999999999964 0 0  -0.02500000000000036 0 0  -0.01250000000000018 0 0  0 0 0  0.01250000000000018 0 0  0.02500000000000036 0 0  0.03749999999999964 0 0  0.04999999999999982 0 0  0.0625 0 0  0.07500000000000018 0 0  0.08750000000000036 0 0  0.09999999999999964 0 0  0.1124999999999998 0 0  0.125 0 0  0.1375000000000002 0 0  0.1500000000000004 0 0  0.1624999999999996 0 0  0.1749999999999998 0 0  0.1875 0 0  0.2000000000000002 0 0  0.2125000000000004 0 0  0.2249999999999996 0 0  0.2374999999999998 0 0  0.25 0 0  0.2625000000000002 0 0  0.2750000000000004 0 0  0.2874999999999996 0 0  0.2999999999999998 0 0  0.3125 0 0  0.3250000000000002 0 0  0.3375000000000004 0 0  0.3499999999999996 0 0  0.3624999999999998 0 0  0.375 0 0  0.3875000000000002 0 0  0.4000000000000004 0 0  0.4124999999999996 0 0  0.4249999999999998 0 0  0.4375 0 0  0.4500000000000002 0 0  0.4625000000000004 0 0  0.4749999999999996 0 0  0.4874999999999998 0 0  0.5 0 0  0.5125000000000002 0 0  0.5250000000000004 0 0  0.5374999999999996 0 0  0.5499999999999998 0 0  0.5625 0 0  0.5750000000000002 0 0  0.5875000000000004 0 0  0.5999999999999996 0 0  0.6124999999999998 0 0  0.625 0 0  0.6375000000000002 0 0  0.6500000000000004 0 0  0.6624999999999996 0 0  0.6749999999999998 0 0  0.6875 0 0  0.7000000000000002 0 0  0.7125000000000004 0 0  0.7249999999999996 0 0  0.7374999999999998 0 0  0.75 0 0  0.7625000000000002 0 0  0.7750000000000004 0 0  0.7874999999999996 0 0  0.7999999999999998 0 0  0.8125 0 0  0.8250000000000002 0 0  0.8375000000000004 0 0  0.8499999999999996 0 0  0.8624999999999998 0 0  0.875 0 0  0.8875000000000002 0 0  0.9000000000000004 0 0  0.9124999999999996 0 0  0.9249999999999998 0 0  0.9375 0 0  0.9500000000000002 0 0  0.9625000000000004 0 0  0.9749999999999996 0 0  0.9874999999999998 0 0  1 0 0  1.0125 0 0  1.025 0 0  1.0375 0 0  1.05 0 0  1.0625 0 0  1.075 0 0  1.0875 0 0  1.1 0 0  1.1125 0 0  1.125 0 0  1.1375 0 0  1.15 0 0  1.1625 0 0  1.175 0 0  1.1875 0 0  1.2 0 0  1.2125 0 0  1.225 0 0  1.2375 0 0  1.25 0 0  1.2625 0 0  1.275 0 0  1.2875 0 0  1.3 0 0  1.3125 0 0  1.325 0 0  1.3375 0 0  1.35 0 0  1.3625 0 0  1.375 0 0  1.3875 0 0  1.4 0 0  1.4125 0 0  1.425 0 0  1.4375 0 0  1.45 0 0  1.4625 0 0  1.475 0 0  1.4875 0 0  1.5 0 0  1.5125 0 0  1.525 0 0  1.5375 0 0  1.55 0 0  1.5625 0 0  1.575 0 0  1.5875 0 0  1.6 0 0  1.6125 0 0  1.625 0 0  1.6375 0 0  1.65 0 0  1.6625 0 0  1.675 0 0  1.6875 0 0  1.7 0 0  1.7125 0 0  1.725 0 0  1.7375 0 0  1.75 0 0  1.7625 0 0  1.775 0 0  1.7875 0 0  1.8 0 0  1.8125 0 0  1.825 0 0  1.8375 0 0  1.85 0 0  1.8625 0 0  1.875 0 0  1.8875 0 0  1.9 0 0  1.9125 0 0  1.925 0 0  1.9375 0 0  1.95 0 0  1.9625 0 0  1.975 0 0  1.9875 0 0  2 0 0  2.0125 0 0  2.025 0 0  2.0375 0 0  2.05 0 0  2.0625 0 0  2.075 0 0  2.0875 0 0  2.1 0 0  2.1125 0 0  2.125 0 0  2.1375 0 0  2.15 0 0  2.1625 0 0  2.175 0 0  2.1875 0 0  2.2 0 0  2.2125 0 0  2.225 0 0  2.2375 0 0  2.25 0 0  2.2625 0 0  2.275 0 0  2.2875 0 0  2.3 0 0  2.3125 0 0  2.325 0 0  2.3375 0 0  2.35 0 0  2.3625 0 0  2.375 0 0  2.3875 0 0  2.4 0 0  2.4125 0 0  2.425 0 0  2.4375 0 0  2.45 0 0  2.4625 0 0  2.475 0 0  2.4875 0 0  2.5 0 0  2.5125 0 0  2.525 0 0  2.5375 0 0  2.55 0 0  2.5625 0 0  2.575 0 0  2.5875 0 0  2.6 0 0  2.6125 0 0  2.625 0 0  2.6375 0 0  2.65 0 0  2.6625 0 0  2.675 0 0  2.6875 0 0  2.7 0 0  2.7125 0 0  2.725 0 0  2.7375 0 0  2.75 0 0  2.7625 0 0  2.775 0 0  2.7875 0 0  2.8 0 0  2.8125 0 0  2.825 0 0  2.8375 0 0  2.85 0 0  2.8625 0 0  2.875 0 0  2.8875 0 0  2.9 0 0  2.9125 0 0  2.925 0 0  2.9375 0 0  2.95 0 0  2.9625 0 0  2.975 0 0  2.9875 0 0  3 0 0  3.012499999999999 0 0  3.025 0 0  3.0375 0 0  3.050000000000001 0 0  3.0625 0 0  3.074999999999999 0 0  3.0875 0 0  3.1 0 0  3.112500000000001 0 0  3.125 0 0  3.137499999999999 0 0  3.15 0 0  3.1625 0 0  3.175000000000001 0 0  3.1875 0 0  3.199999999999999 0 0  3.2125 0 0  3.225 0 0  3.237500000000001 0 0  3.25 0 0  3.262499999999999 0 0  3.275 0 0  3.2875 0 0  3.300000000000001 0 0  3.3125 0 0  3.324999999999999 0 0  3.3375 0 0  3.35 0 0  3.362500000000001 0 0  3.375 0 0  3.387499999999999 0 0  3.4 0 0  3.4125 0 0  3.425000000000001 0 0  3.4375 0 0  3.449999999999999 0 0  3.4625 0 0  3.475 0 0  3.4875
[...]
<PointData  Vectors="(h, u)"> 
<DataArray  type="Float64"  Name="(h, u)"  NumberOfComponents="3" format="ascii">4.6391889615004112e-01 0.0000000000000000e+00 0.0000000000000000e+00  4.6426660335055314e-01 1.1021791855900180e-02 0.0000000000000000e+00  4.6391144818130930e-01 2.2051789883080906e-02 0.0000000000000000e+00  4.6425161447450902e-01 3.3065872009632465e-02 0.0000000000000000e+00  4.6388911161164970e-01 4.4104562170059404e-02 0.0000000000000000e+00  4.6422164947146533e-01 5.5111437519401639e-02 0.0000000000000000e+00  4.6385190112091107e-01 6.6159295656485290e-02 0.0000000000000000e+00  4.6417672227928714e-01 7.7159475580095102e-02 0.0000000000000000e+00  4.6379982687861432e-01 8.8216964616312898e-02 0.0000000000000000e+00  4.6411683784731372e-01 9.9210961897007899e-02 0.0000000000000000e+00  4.6373288436250304e-01 1.1027853062783356e-01 0.0000000000000000e+00  4.6404197963538441e-01 1.2126687184455220e-01 0.0000000000000000e+00  4.6365104212374603e-01 1.3234497397051265e-01 0.0000000000000000e+00  4.6395210477627280e-01 1.4332820070289934e-01 0.0000000000000000e+00  4.6355425009569934e-01 1.5441727976963543e-01 0.0000000000000000e+00  4.6384715965063383e-01 1.6539593719384274e-01 0.0000000000000000e+00  4.6344244715926280e-01 1.7649644895765182e-01 0.0000000000000000e+00  4.6372707737086849e-01 1.8747113792868389e-01 0.0000000000000000e+00  4.6331556030043231e-01 1.9858354394651812e-01 0.0000000000000000e+00  4.6359179829997010e-01 2.0955486249223590e-01 0.0000000000000000e+00  4.6317353976940812e-01 2.2067957188823464e-01 0.0000000000000000e+00  4.6344127005012659e-01 2.3164812326472292e-01 0.0000000000000000e+00  4.6301632683970512e-01 2.4278566507767285e-01 0.0000000000000000e+00  4.6327540994669308e-01 2.5375200707756634e-01 0.0000000000000000e+00  4.6284387301304980e-01 2.6490287990135453e-01 0.0000000000000000e+00  4.6309419334586566e-01 2.7586742933901764e-01 0.0000000000000000e+00  4.6265610384985101e-01 2.8703202836798419e-01 0.0000000000000000e+00  4.6289756932420956e-01 2.9799577945158789e-01 0.0000000000000000e+00  4.6245283478312377e-01 3.0917405252283836e-01 0.0000000000000000e+00  4.6268551166300886e-01 3.2013814519488870e-01 0.0000000000000000e+00  4.6223410130730136e-01 3.3132978579199979e-01 0.0000000000000000e+00  4.6245777815694372e-01 3.4229469338680701e-01 0.0000000000000000e+00  4.6199999110875206e-01 3.5350220917244973e-01 0.0000000000000000e+00  4.6221381832296493e-01 3.6446530515516518e-01 0.0000000000000000e+00  4.6175072148315222e-01 3.7569280241813358e-01 0.0000000000000000e+00  4.6195396289356444e-01 3.8665124207552404e-01 0.0000000000000000e+00  4.6148513992848078e-01 3.9789874750575494e-01 0.0000000000000000e+00  4.6167944063083433e-01 4.0886314833529264e-01 0.0000000000000000e+00  4.6120104460963124e-01 4.2011189908689495e-01 0.0000000000000000e+00  4.6139201029155641e-01 4.3110606613161734e-01 0.0000000000000000e+00  4.6089940989556333e-01 4.4233621053294347e-01 0.0000000000000000e+00  4.6108622681878142e-01 4.5336326026764678e-01 0.0000000000000000e+00  4.6058832537533184e-01 4.6461682417006173e-01 0.0000000000000000e+00  4.6075128613788063e-01 4.7557873247552479e-01 0.0000000000000000e+00  4.6027831051390572e-01 4.8699288167859645e-01 0.0000000000000000e+00  4.6038636564065305e-01 4.9775939970882943e-01 0.0000000000000000e+00  4.5994849681980554e-01 5.0939003380963532e-01 0.0000000000000000e+00  4.6003418296476684e-01 5.2009551555536060e-01 0.0000000000000000e+00  4.5954105559257757e-01 5.3151087556713572e-01 0.0000000000000000e+00  4.5975526952587292e-01 5.4287725991344060e-01 0.0000000000000000e+00  4.5902332132173784e-01 5.5325583152848579e-01 0.0000000000000000e+00  4.5949759341032120e-01 5.6586162355398506e-01 0.0000000000000000e+00  4.5857352413593283e-01 5.7537354914379657e-01 0.0000000000000000e+00  4.5896766116956639e-01 5.8769753305092531e-01 0.0000000000000000e+00  4.5853665942462635e-01 5.9958256126369314e-01 0.0000000000000000e+00  4.5788173710794111e-01 6.0706472213525531e-01 0.0000000000000000e+00  4.5892780710818393e-01 6.2577858861505775e-01 0.0000000000000000e+00  4.5676196582048234e-01 6.2638945428403758e-01 0.0000000000000000e+00  4.5852114344468042e-01 6.4857537279567390e-01 0.0000000000000000e+00  4.5739904063929721e-01 6.5394277965753866e-01 0.0000000000000000e+00  4.5541291354299446e-01 6.5872976575401365e-01 0.0000000000000000e+00  4.6100900179987092e-01 6.9545388612219705e-01 0.0000000000000000e+00  4.5017279589692133e-01 6.5928292858936544e-01 0.0000000000000000e+00  4.6392089545821436e-01 7.3364969445155059e-01 0.0000000000000000e+00  4.5012435638183224e-01 6.8397369955721565e-01 0.0000000000000000e+00  4.5579360585445317e-01 7.2199220128359032e-01 0.0000000000000000e+00  4.6542900936793125e-01 7.8068719020193134e-01 0.0000000000000000e+00  4.3078080585907469e-01 6.2786346903497414e-01 0.0000000000000000e+00  4.9083554909094790e-01 9.2172777166334485e-01 0.0000000000000000e+00  4.0889654456990876e-01 5.4896966185531715e-01 0.0000000000000000e+00  4.8250546384905135e-01 9.0555208395869791e-01 0.0000000000000000e+00  3.9300354996899822e-01 6.0707739039869757e-01 0.0000000000000000e+00  9.7848133874559637e-02 -1.8887786590872859e+00 0.0000000000000000e+00  1.3105203182632685e-01 -1.3190838525800592e+00 0.0000000000000000e+00  1.2596618873926863e-01 -1.6126220000993947e+00 0.0000000000000000e+00  1.2114557894247224e-01 -1.4493577037270020e+00 0.0000000000000000e+00  1.2503805600491780e-01 -1.5364331802319353e+00 0.0000000000000000e+00  1.2156133803541952e-01 -1.4864615185044889e+00 0.0000000000000000e+00  1.2217510217097563e-01 -1.5068034680555633e+00 0.0000000000000000e+00  1.2143775030929241e-01 -1.4946227628739464e+00 0.0000000000000000e+00  1.2035125951331987e-01 -1.4944525729881963e+00 0.0000000000000000e+00  1.2047579720861350e-01 -1.4922122031708578e+00 0.0000000000000000e+00  1.1905899028231223e-01 -1.4880985961263431e+00 0.0000000000000000e+00  1.1924471763591059e-01 -1.4867941864859424e+00 0.0000000000000000e+00  1.1787650151280216e-01 -1.4831546523971550e+00 0.0000000000000000e+00  1.1799791453418354e-01 -1.4809786676643601e+00 0.0000000000000000e+00  1.1667682219474547e-01 -1.4783019456692608e+00 0.0000000000000000e+00  1.1678350625430127e-01 -1.4753327182153302e+00 0.0000000000000000e+00  1.1545318199924326e-01 -1.4733680608094955e+00 0.0000000000000000e+00  1.1559049333571565e-01 -1.4698589662992416e+00 0.0000000000000000e+00  1.1422096293150689e-01 -1.4684091908140304e+00 0.0000000000000000e+00  1.1440489528934468e-01 -1.4645026793544653e+00 0.0000000000000000e+00  1.1299048291627642e-01 -1.4634672873914438e+00 0.0000000000000000e+00  1.1321981399275735e-01 -1.4592426073842117e+00 0.0000000000000000e+00  1.1176566989602549e-01 -1.4585544370810621e+00 0.0000000000000000e+00  1.1203316197885482e-01 -1.4540770217521592e+00 0.0000000000000000e+00  1.1054720227319188e-01 -1.4536731417065609e+00 0.0000000000000000e+00  1.1084485773189438e-01 -1.4490070881960686e+00 0.0000000000000000e+00  1.0933460682255422e-01 -1.4488268826160464e+00 0.0000000000000000e+00  1.0965541537364090e-01 -1.4440317064240589e+00 0.0000000000000000e+00  1.0812713460633906e-01 -1.4440216506834374e+00 0.0000000000000000e+00  1.0846543388527748e-01 -1.4391479977283039e+00 0.0000000000000000e+00  1.0692404075954851e-01 -1.4392646555556279e+00 0.0000000000000000e+00  1.0727545291504155e-01 -1.4343527031171159e+00 0.0000000000000000e+00  1.0572465154347052e-01 -1.4345631764595554e+00 0.0000000000000000e+00  1.0608592610690212e-01 -1.4296429990144792e+00 0.0000000000000000e+00  1.0452836987743866e-01 -1.4299240698472833e+00 0.0000000000000000e+00  1.0489722400694468e-01 -1.4250167666719245e+00 0.0000000000000000e+00  1.0333466935417754e-01 -1.4253536561179367e+00 0.0000000000000000e+00  1.0370963841296309e-01 -1.4204726454371994e+00 0.0000000000000000e+00  1.0214309207003930e-01 -1.4208576998231595e+00 0.0000000000000000e+00  1.0252338074608583e-01 -1.4160100725035816e+00 0.0000000000000000e+00  1.0095325236574645e-01 -1.4164413660341610e+00 0.0000000000000000e+00  1.0133857604579639e-01 -1.4116293546934071e+00 0.0000000000000000e+00  9.9764842412751034e-02 -1.4121091588755561e+00 0.0000000000000000e+00  1.0015525801464198e-01 -1.4073317348015435e+00 0.0000000000000000e+00  9.8577633861516342e-02 -1.4078648940470764e+00 0.0000000000000000e+00  9.8973370416480966e-02 -1.4031193998839249e+00 0.0000000000000000e+00  9.7391471378871511e-02 -1.4037117496504783e+00 0.0000000000000000e+00  9.7792777474621409e-02 -1.3989954013546186e+00 0.0000000000000000e+00  9.6206257135541692e-02 -1.3996524088936180e+00 0.0000000000000000e+00  9.6613282547785811e-02 -1.3949634901250745e+00 0.0000000000000000e+00  9.5021928435191236e-02 -1.3956892764026190e+00 0.0000000000000000e+00  9.5434651748314114e-02 -1.3910278971615908e+00 0.0000000000000000e+00  9.3838432600035701e-02 -1.3918247291846986e+00 0.0000000000000000e+00  9.4256638015566885e-02 -1.3871931030201892e+00 0.0000000000000000e+00  9.2655703618201454e-02 -1.3880613575402116e+00 0.0000000000000000e+00  9.3079001466265687e-02 -1.3834636386429113e+00 0.0000000000000000e+00  9.1473644176635255e-02 -1.3844021583423964e+00 0.0000000000000000e+00  9.1901523166880716e-02 -1.3798439478999291e+00 0.0000000000000000e+00  9.0292115105205684e-02 -1.3808506579851136e+00 0.0000000000000000e+00  9.0724011214571479e-02 -1.3763383256664317e+00 0.0000000000000000e+00  8.9110932526326833e-02 -1.3774109592944110e+00 0.0000000000000000e+00  8.9546299644315902e-02 -1.3729509288527941e+00 0.0000000000000000e+00  8.7929871584697838e-02 -1.3740877212797873e+00 0.0000000000000000e+00  8.8368241856875029e-02 -1.3696858453659815e+00 0.0000000000000000e+00  8.6748674761789643e-02 -1.3708860901238948e+00 0.0000000000000000e+00  8.7189700851353080e-02 -1.3665471990909026e+00 0.0000000000000000e+00  8.5567062501276575e-02 -1.3678116035441530e+00 0.0000000000000000e+00  8.6010538586494531e-02 -1.3635392675403037e+00 0.0000000000000000e+00  8.4384744085765712e-02 -1.3648700893286663e+00 0.0000000000000000e+00  8.4830606433365055e-02 -1.3606665915826412e+00 0.0000000000000000e+00  8.3201427241294257e-02 -1.3620675739943968e+00 0.0000000000000000e+00  8.3649738106175917e-02 -1.3579340618630811e+00 0.0000000000000000e+00  8.2016825623387413e-02 -1.3594102108953503e+00 0.0000000000000000e+00  8.2467745843275458e-02 -1.3553469724488207e+00 0.0000000000000000e+00  8.0830664008619754e-02 -1.3569042302485517e+00 0.0000000000000000e+00  8.1284420089560008e-02 -1.3529110374748690e+00 0.0000000000000000e+00  7.9642681582818939e-02 -1.3545559074963955e+00 0.0000000000000000e+00  8.0099532584046090e-02 -1.3506323702458383e+00 0.0000000000000000e+00  7.8452634140656313e-02 -1.3523715416867275e+00 0.0000000000000000e+00  7.8912842612135672e-02 -1.3485174259316606e+00 0.0000000000000000e+00  7.7260296296324985e-02 -1.3503574321290059e+00 0.0000000000000000e+00  7.7724106234665358e-02 -1.3465729085891796e+00 0.0000000000000000e+00  7.6065464987068634e-02 -1.3485198390917283e+00 0.0000000000000000e+00  7.6533088528043483e-02 -1.3448056408343707e+00 0.0000000000000000e+00  7.4867965682714199e-02 -1.3468649121021741e+00 0.0000000000000000e+00  7.5339579229148357e-02 -1.3432223901980282e+00 0.0000000000000000e+00  7.3667662853254823e-02 -1.3453985667166843e+00 0.0000000000000000e+00  7.4143412649674348e-02 -1.3418296400623106e+00 0.0000000000000000e+00  7.2464476450929891e-02 -1.3441262866371153e+00 0.0000000000000000e+00  7.2944493296976012e-02 -1.3406332850140015e+00 0.0000000000000000e+00  7.1258406487709591e-02 -1.3430528219984137e+00 0.0000000000000000e+00  7.1742829318101886e-02 -1.3396382202750945e+00 0.0000000000000000e+00  7.0049568279792349e-02 -1.3421817459206515e+00 0.0000000000000000e+00  7.0538576684056623e-02 -1.3388477823793028e+00 0.0000000000000000e+00  6.8838241612151352e-02 -1.3415148196553697e+00 0.0000000000000000e+00  6.9332097949196092e-02 -1.3382629834602866e+00 0.0000000000000000e+00  6.7624937922056344e-02 -1.3410511020745308e+00 0.0000000000000000e+00  6.8124040390389606e-02 -1.3378814651053743e+00 0.0000000000000000e+00  6.6410490479219333e-02 -1.3407857232757776e+00 0.0000000000000000e+00  6.6915439148681241e-02 -1.3376960820495980e+00 0.0000000000000000e+00  6.5196173129016266e-02 -1.3407082285309573e+00 0.0000000000000000e+00  6.5707851218357788e-02 -1.3376930165221019e+00 0.0000000000000000e+00  6.3983852844289396e-02 -1.3408003956054118e+00 0.0000000000000000e+00  6.4503524960384584e-02 -1.3378493313140598e+00 0.0000000000000000e+00  6.2776179084350653e-02 -1.3410334495814018e+00 0.0000000000000000e+00  6.3305606041694301e-02 -1.3381299108812883e+00 0.0000000000000000e+00  6.1576807406721487e-02 -1.3413646652972055e+00 0.0000000000000000e+00  6.2118372983682772e-02 -1.3384838362302129e+00 0.0000000000000000e+00  6.0390644914827568e-02 -1.3417334770599749e+00 0.0000000000000000e+00  6.0947483324408885e-02 -1.3388404046961635e+00 0.0000000000000000e+00  5.9224090237711212e-02 -1.3420574259549443e+00 0.0000000000000000e+00  5.9800191848810205e-02 -1.3391052860949377e+00 0.0000000000000000e+00  5.8085213060203922e-02 -1.3422286775612895e+00 0.0000000000000000e+00  5.8685462267061207e-02 -1.3391578850231698e+00 0.0000000000000000e+00  5.6983764600976552e-02 -1.3421126286787932e+00 0.0000000000000000e+00  5.7613831877757447e-02 -1.3388518979878656e+00 0.0000000000000000e+00  5.5930854007033216e-02 -1.3415510146763638e+00 0.0000000000000000e+00  5.6596855368454518e-02 -1.3380216669743585e+00 0.0000000000000000e+00  5.4938131331701071e-02 -1.3403720446013598e+00 0.0000000000000000e+00  5.5646010393097425e-02 -1.3364963520843289e+00 0.0000000000000000e+00  5.4016435575826471e-02 -1.3384086343388240e+00 0.0000000000000000e+00  5.4771139853319654e-02 -1.3341214038889808e+00 0.0000000000000000e+00  5.3174139698726502e-02 -1.3355220127657832e+00 0.0000000000000000e+00  5.3978842030240955e-02 -1.3307820307415139e+00 0.0000000000000000e+00  5.2415759973028483e-02 -1.3316229728951219e+00 0.0000000000000000e+00  5.3271454382874145e-02 -1.3264196073740531e+00 0.0000000000000000e+00  5.1741429973353105e-02 -1.3266819435013499e+00 0.0000000000000000e+00  5.2647058074366017e-02 -1.3210343866530547e+00 0.0000000000000000e+00  5.1147402812941077e-02 -1.3207246820729464e+00 0.0000000000000000e+00  5.2100382093747732e-02 -1.3146752893974623e+00 0.0000000000000000e+00  5.0627224779049476e-02 -1.3138177876512438e+00 0.0000000000000000e+00  5.1624107582172965e-02 -1.3074231727998977e+00 0.0000000000000000e+00  5.0173045709217781e-02 -1.3060512526766284e+00 0.0000000000000000e+00  5.1210089359043663e-02 -1.2993742854067458e+00 0.0000000000000000e+00  4.9776690794555704e-02 -1.2975235043056028e+00 0.0000000000000000e+00  5.0850246014872924e-02 -1.2906276699584194e+00 0.0000000000000000e+00  4.9430365310604435e-02 -1.2883310951628997e+00 0.0000000000000000e+00  5.0537086778915885e-02 -1.2812772979293634e+00 0.0000000000000000e+00  4.9127028802624671e-02 -1.2785628394633819e+00 0.0000000000000000e+00  5.0263952761738340e-02 -1.2714080990527108e+00 0.0000000000000000e+00  4.8860535524748713e-02 -1.2682972249827551e+00 0.0000000000000000e+00  5.0025072885343962e-02 -1.2610946187667926e+00 0.0000000000000000e+00  4.8625635177826414e-02 -1.2576018674255216e+00 0.0000000000000000e+00  4.9815516919473314e-02 -1.2504012051498601e+00 0.0000000000000000e+00  4.8417902912505716e-02 -1.2465340629852661e+00 0.0000000000000000e+00  4.9631101028210341e-02 -1.2393829595120367e+00 0.0000000000000000e+00  4.8233641645429468e-02 -1.2351418284738849e+00 0.0000000000000000e+00  4.9468278784392465e-02 -1.2280869788899982e+00 0.0000000000000000e+00  4.8069780051425065e-02 -1.2234650839661658e+00 0.0000000000000000e+00  4.9324035462271459e-02 -1.2165536245691160e+00 0.0000000000000000e+00  4.7923777395910409e-02 -1.2115368028048965e+00 0.0000000000000000e+00  4.9195793189559335e-02 -1.2048176943447657e+00 0.0000000000000000e+00  4.7793540703762794e-02 -1.1993840354672101e+00 0.0000000000000000e+00  4.9081328703412842e-02 -1.1929094607091071e+00 0.0000000000000000e+00  4.7677353225594556e-02 -1.1870288093154420e+00 0.0000000000000000e+00  4.8978712980941815e-02 -1.1808554334100625e+00 0.0000000000000000e+00  4.7573790359311759e-02 -1.1744892340803006e+00 0.0000000000000000e+00  4.8886313881090465e-02 -1.1686782558439781e+00 0.0000000000000000e+00  4.7481557768625032e-02 -1.1617817364426679e+00 0.0000000000000000e+00  4.8802939772327837e-02 -1.1563946240180152e+00 0.0000000000000000e+00  4.7399170425193995e-02 -1.1489255769218003e+00 0.0000000000000000e+00  4.8728176124032511e-02 -1.1440104870851120e+00 0.0000000000000000e+00  4.7324475567399923e-02 -1.1359495967369528e+00 0.0000000000000000e+00  4.8662820739622067e-02 -1.1315148689757775e+00 0.0000000000000000e+00  4.7254216286906944e-02 -1.1228983718298704e+00 0.0000000000000000e+00  4.8609118671726959e-02 -1.1188765643261986e+00 0.0000000000000000e+00  4.7183996941923677e-02 -1.1098326064176767e+00 0.0000000000000000e+00  4.8570430326390954e-02 -1.1060489263469595e+00 0.0000000000000000e+00  4.7108939439139665e-02 -1.0968196482882624e+00 0.0000000000000000e+00  4.8550196006583002e-02 -1.0929846852532914e+00 0.0000000000000000e+00  4.7024953792865962e-02 -1.0839152486709842e+00 0.0000000000000000e+00  4.8550504941073921e-02 -1.0796563719606662e+00 0.0000000000000000e+00  4.6930106705606732e-02 -1.0711439631232718e+00 0.0000000000000000e+00  4.8570919064094414e-02 -1.0660730212824490e+00 0.0000000000000000e+00  4.6825403258248854e-02 -1.0584879770530060e+00 0.0000000000000000e+00  4.8608152548699220e-02 -1.0522845608292235e+00 0.0000000000000000e+00  4.6714562300190596e-02 -1.0458903425628383e+00 0.0000000000000000e+00  4.8656773585753543e-02 -1.0383715728095706e+00 0.0000000000000000e+00  4.6602892420529909e-02 -1.0332711067061822e+00 0.0000000000000000e+00  4.8710575807292655e-02 -1.0244255818255001e+00 0.0000000000000000e+00  4.6495801342479985e-02 -1.0205487144742111e+00 0.0000000000000000e+00  4.8764002709410802e-02 -1.0105287565186001e+00 0.0000000000000000e+00  4.6397544396050934e-02 -1.0076579880153615e+00 0.0000000000000000e+00  4.8813118081620185e-02 -9.9674025220724949e-01 0.0000000000000000e+00  4.6310562221638041e-02 -9.9455960827223677e-01 0.0000000000000000e+00  4.8855953603741654e-02 -9.8309152786116194e-01 0.0000000000000000e+00  4.6235400464402610e-02 -9.8124115430880710e-01 0.0000000000000000e+00  4.8892373837069757e-02 -9.6958856647191183e-01 0.0000000000000000e+00  4.6170997309186314e-02 -9.6771275319538574e-01 0.0000000000000000e+00  4.8923670281581566e-02 -9.5621795944048349e-01 0.0000000000000000e+00  4.6115185543323001e-02 -9.5399953232372370e-01 0.0000000000000000e+00  4.8951958363167535e-02 -9.4295582746933415e-01 0.0000000000000000e+00  4.6065375087108437e-02 -9.4013135144178395e-01 0.0000000000000000e+00  4.8979449321694575e-02 -9.2977860032167114e-01 0.0000000000000000e+00  4.6019228315046172e-02 -9.2613251536056884e-01 0.0000000000000000e+00  4.9007919518229311e-02 -9.1667110686515108e-01 0.0000000000000000e+00  4.5974945332324470e-02 -9.1201699565281291e-01 0.0000000000000000e+00  4.9038686599830669e-02 -9.0362757833062413e-01 0.0000000000000000e+00  4.5931064045640076e-02 -8.9779057132162332e-01 0.0000000000000000e+00  4.9072922244383088e-02 -8.9064790219913781e-01 0.0000000000000000e+00  4.5886149611150423e-02 -8.8345463680814107e-01 0.0000000000000000e+00  4.9111869042703274e-02 -8.7773501062446946e-01 0.0000000000000000e+00  4.5838702115550981e-02 -8.6900732293615224e-01 0.0000000000000000e+00  4.9156822159433462e-02 -8.6489484985729381e-01 0.0000000000000000e+00  4.5787239113922629e-02 -8.5444325644783048e-01 0.0000000000000000e+00  4.9209017015988600e-02 -8.5213608989857403e-01 0.0000000000000000e+00  4.5730416943605114e-02 -8.3975491865042629e-01 0.0000000000000000e+00  4.9269486996604467e-02 -8.3946758475662775e-01 0.0000000000000000e+00  4.5667214192458470e-02 -8.2493646557481670e-01 0.0000000000000000e+00  4.9338809