<?xml version="1.0"?>
<VTKFile type="UnstructuredGrid"  version="0.1"  >
<UnstructuredGrid>
<Piece  NumberOfPoints="801" NumberOfCells="800">
<Points>
<DataArray  type="Float64"  NumberOfComponents="3"  format="ascii">-5 0 0  -4.9875 0 0  -4.975 0 0  -4.9625 0 0  -4.95 0 0  -4.9375 0 0  -4.925 0 0  -4.9125 0 0  -4.9 0 0  -4.8875 0 0  -4.875 0 0  -4.8625 0 0  -4.85 0 0  -4.8375 0 0  -4.825 0 0  -4.8125 0 0  -4.8 0 0  -4.7875 0 0  -4.775 0 0  -4.7625 0 0  -4.75 0 0  -4.7375 0 0  -4.725 0 0  -4.7125 0 0  -4.7 0 0  -4.6875 0 0  -4.675 0 0  -4.6625 0 0  -4.65 0 0  -4.6375 0 0  -4.625 0 0  -4.6125 0 0  -4.6 0 0  -4.5875 0 0  -4.575 0 0  -4.5625 0 0  -4.55 0 0  -4.5375 0 0  -4.525 0 0  -4.5125 0 0  -4.5 0 0  -4.4875 0 0  -4.475 0 0  -4.4625 0 0  -4.45 0 0  -4.4375 0 0  -4.425 0 0  -4.4125 0 0  -4.4 0 0  -4.3875 0 0  -4.375 0 0  -4.3625 0 0  -4.35 0 0  -4.3375 0 0  -4.325 0 0  -4.3125 0 0  -4.3 0 0  -4.2875 0 0  -4.275 0 0  -4.2625 0 0  -4.25 0 0  -4.2375 0 0  -4.225 0 0  -4.2125 0 0  -4.2 0 0  -4.1875 0 0  -4.175 0 0  -4.1625 0 0  -4.15 0 0  -4.1375 0 0  -4.125 0 0  -4.1125 0 0  -4.1 0 0  -4.0875 0 0  -4.075 0 0  -4.0625 0 0  -4.05 0 0  -4.0375 0 0  -4.025 0 0  -4.0125 0 0  -4 0 0  -3.9875 0 0  -3.975 0 0  -3.9625 0 0  -3.95 0 0  -3.9375 0 0  -3.925 0 0  -3.9125 0 0  -3.9 0 0  -3.8875 0 0  -3.875 0 0  -3.8625 0 0  -3.85 0 0  -3.8375 0 0  -3.825 0 0  -3.8125 0 0  -3.8 0 0  -3.7875 0 0  -3.775 0 0  -3.7625 0 0  -3.75 0 0  -3.7375 0 0  -3.725 0 0  -3.7125 0 0  -3.7 0 0  -3.6875 0 0  -3.675 0 0  -3.6625 0 0  -3.65 0 0  -3.6375 0 0  -3.625 0 0  -3.6125 0 0  -3.6 0 0  -3.5875 0 0  -3.575 0 0  -3.5625 0 0  -3.55 0 0  -3.5375 0 0  -3.525 0 0  -3.5125 0 0  -3.5 0 0  -3.4875 0 0  -3.475 0 0  -3.4625 0 0  -3.45 0 0  -3.4375 0 0  -3.425 0 0  -3.4125 0 0  -3.4 0 0  -3.3875 0 0  -3.375 0 0  -3.3625 0 0  -3.35 0 0  -3.3375 0 0  -3.325 0 0  -3.3125 0 0  -3.3 0 0  -3.2875 0 0  -3.275 0 0  -3.2625 0 0  -3.25 0 0  -3.2375 0 0  -3.225 0 0  -3.2125 0 0  -3.2 0 0  -3.1875 0 0  -3.175 0 0  -3.1625 0 0  -3.15 0 0  -3.1375 0 0  -3.125 0 0  -3.1125 0 0  -3.1 0 0  -3.0875 0 0  -3.075 0 0  -3.0625 0 0  -3.05 0 0  -3.0375 0 0  -3.025 0 0  -3.0125 0 0  -3 0 0  -2.9875 0 0  -2.975 0 0  -2.9625 0 0  -2.95 0 0  -2.9375 0 0  -2.925 0 0  -2.9125 0 0  -2.9 0 0  -2.8875 0 0  -2.875 0 0  -2.8625 0 0  -2.85 0 0  -2.8375 0 0  -2.825 0 0  -2.8125 0 0  -2.8 0 0  -2.7875 0 0  -2.775 0 0  -2.7625 0 0  -2.75 0 0  -2.7375 0 0  -2.725 0 0  -2.7125 0 0  -2.7 0 0  -2.6875 0 0  -2.675 0 0  -2.6625 0 0  -2.65 0 0  -2.6375 0 0  -2.625 0 0  -2.6125 0 0  -2.6 0 0  -2.5875 0 0  -2.575 0 0  -2.5625 0 0  -2.55 0 0  -2.5375 0 0  -2.525 0 0  -2.5125 0 0  -2.5 0 0  -2.4875 0 0  -2.475 0 0  -2.4625 0 0  -2.45 0 0  -2.4375 0 0  -2.425 0 0  -2.4125 0 0  -2.4 0 0  -2.3875 0 0  -2.375 0 0  -2.3625 0 0  -2.35 0 0  -2.3375 0 0  -2.325 0 0  -2.3125 0 0  -2.3 0 0  -2.2875 0 0  -2.275 0 0  -2.2625 0 0  -2.25 0 0  -2.2375 0 0  -2.225 0 0  -2.2125 0 0  -2.2 0 0  -2.1875 0 0  -2.175 0 0  -2.1625 0 0  -2.15 0 0  -2.1375 0 0  -2.125 0 0  -2.1125 0 0  -2.1 0 0  -2.0875 0 0  -2.075 0 0  -2.0625 0 0  -2.05 0 0  -2.0375 0 0  -2.025 0 0  -2.0125 0 0  -2 0 0  -1.9875 0 0  -1.975 0 0  -1.9625 0 0  -1.95 0 0  -1.9375 0 0  -1.925 0 0  -1.9125 0 0  -1.9 0 0  -1.8875 0 0  -1.875 0 0  -1.8625 0 0  -1.85 0 0  -1.8375 0 0  -1.825 0 0  -1.8125 0 0  -1.8 0 0  -1.7875 0 0  -1.775 0 0  -1.7625 0 0  -1.75 0 0  -1.7375 0 0  -1.725 0 0  -1.7125 0 0  -1.7 0 0  -1.6875 0 0  -1.675 0 0  -1.6625 0 0  -1.65 0 0  -1.6375 0 0  -1.625 0 0  -1.6125 0 0  -1.6 0 0  -1.5875 0 0  -1.575 0 0  -1.5625 0 0  -1.55 0 0  -1.5375 0 0  -1.525 0 0  -1.5125 0 0  -1.5 0 0  -1.4875 0 0  -1.475 0 0  -1.4625 0 0  -1.45 0 0  -1.4375 0 0  -1.425 0 0  -1.4125 0 0  -1.4 0 0  -1.3875 0 0  -1.375 0 0  -1.3625 0 0  -1.35 0 0  -1.3375 0 0  -1.325 0 0  -1.3125 0 0  -1.3 0 0  -1.2875 0 0  -1.275 0 0  -1.2625 0 0  -1.25 0 0  -1.2375 0 0  -1.225 0 0  -1.2125 0 0  -1.2 0 0  -1.1875 0 0  -1.175 0 0  -1.1625 0 0  -1.15 0 0  -1.1375 0 0  -1.125 0 0  -1.1125 0 0  -1.1 0 0  -1.0875 0 0  -1.075 0 0  -1.0625 0 0  -1.05 0 0  -1.0375 0 0  -1.025 0 0  -1.0125 0 0  -1 0 0  -0.9874999999999998 0 0  -0.9749999999999996 0 0  -0.9625000000000004 0 0  -0.9500000000000002 0 0  -0.9375 0 0  -0.9249999999999998 0 0  -0.9124999999999996 0 0  -0.9000000000000004 0 0  -0.8875000000000002 0 0  -0.875 0 0  -0.8624999999999998 0 0  -0.8499999999999996 0 0  -0.8375000000000004 0 0  -0.8250000000000002 0 0  -0.8125 0 0  -0.7999999999999998 0 0  -0.7874999999999996 0 0  -0.7750000000000004 0 0  -0.7625000000000002 0 0  -0.75 0 0  -0.7374999999999998 0 0  -0.7249999999999996 0 0  -0.7125000000000004 0 0  -0.7000000000000002 0 0  -0.6875 0 0  -0.6749999999999998 0 0  -0.6624999999999996 0 0  -0.6500000000000004 0 0  -0.6375000000000002 0 0  -0.625 0 0  -0.6124999999999998 0 0  -0.5999999999999996 0 0  -0.5875000000000004 0 0  -0.5750000000000002 0 0  -0.5625 0 0  -0.5499999999999998 0 0  -0.5374999999999996 0 0  -0.5250000000000004 0 0  -0.5125000000000002 0 0  -0.5 0 0  -0.4874999999999998 0 0  -0.4749999999999996 0 0  -0.4625000000000004 0 0  -0.4500000000000002 0 0  -0.4375 0 0  -0.4249999999999998 0 0  -0.4124999999999996 0 0  -0.4000000000000004 0 0  -0.3875000000000002 0 0  -0.375 0 0  -0.3624999999999998 0 0  -0.3499999999999996 0 0  -0.3375000000000004 0 0  -0.3250000000000002 0 0  -0.3125 0 0  -0.2999999999999998 0 0  -0.2874999999999996 0 0  -0.2750000000000004 0 0  -0.2625000000000002 0 0  -0.25 0 0  -0.2374999999999998 0 0  -0.2249999999999996 0 0  -0.2125000000000004 0 0  -0.2000000000000002 0 0  -0.1875 0 0  -0.1749999999999998 0 0  -0.1624999999999996 0 0  -0.1500000000000004 0 0  -0.1375000000000002 0 0  -0.125 0 0  -0.1124999999999998 0 0  -0.09999999999999964 0 0  -0.08750000000000036 0 0  -0.07500000000000018 0 0  -0.0625 0 0  -0.04999999999999982 0 0  -0.03749999999999964 0 0  -0.02500000000000036 0 0  -0.01250000000000018 0 0  0 0 0  0.01250000000000018 0 0  0.02500000000000036 0 0  0.03749999999999964 0 0  0.04999999999999982 0 0  0.0625 0 0  0.07500000000000018 0 0  0.08750000000000036 0 0  0.09999999999999964 0 0  0.1124999999999998 0 0  0.125 0 0  0.1375000000000002 0 0  0.1500000000000004 0 0  0.1624999999999996 0 0  0.1749999999999998 0 0  0.1875 0 0  0.2000000000000002 0 0  0.2125000000000004 0 0  0.2249999999999996 0 0  0.2374999999999998 0 0  0.25 0 0  0.2625000000000002 0 0  0.2750000000000004 0 0  0.2874999999999996 0 0  0.2999999999999998 0 0  0.3125 0 0  0.3250000000000002 0 0  0.3375000000000004 0 0  0.3499999999999996 0 0  0.3624999999999998 0 0  0.375 0 0  0.3875000000000002 0 0  0.4000000000000004 0 0  0.4124999999999996 0 0  0.4249999999999998 0 0  0.4375 0 0  0.4500000000000002 0 0  0.4625000000000004 0 0  0.4749999999999996 0 0  0.4874999999999998 0 0  0.5 0 0  0.5125000000000002 0 0  0.5250000000000004 0 0  0.5374999999999996 0 0  0.5499999999999998 0 0  0.5625 0 0  0.5750000000000002 0 0  0.5875000000000004 0 0  0.5999999999999996 0 0  0.6124999999999998 0 0  0.625 0 0  0.6375000000000002 0 0  0.6500000000000004 0 0  0.6624999999999996 0 0  0.6749999999999998 0 0  0.6875 0 0  0.7000000000000002 0 0  0.7125000000000004 0 0  0.7249999999999996 0 0  0.7374999999999998 0 0  0.75 0 0  0.7625000000000002 0 0  0.7750000000000004 0 0  0.7874999999999996 0 0  0.7999999999999998 0 0  0.8125 0 0  0.8250000000000002 0 0  0.8375000000000004 0 0  0.8499999999999996 0 0  0.8624999999999998 0 0  0.875 0 0  0.8875000000000002 0 0  0.9000000000000004 0 0  0.9124999999999996 0 0  0.9249999999999998 0 0  0.9375 0 0  0.9500000000000002 0 0  0.9625000000000004 0 0  0.9749999999999996 0 0  0.9874999999999998 0 0  1 0 0  1.0125 0 0  1.025 0 0  1.0375 0 0  1.05 0 0  1.0625 0 0  1.075 0 0  1.0875 0 0  1.1 0 0  1.1125 0 0  1.125 0 0  1.1375 0 0  1.15 0 0  1.1625 0 0  1.175 0 0  1.1875 0 0  1.2 0 0  1.2125 0 0  1.225 0 0  1.2375 0 0  1.25 0 0  1.2625 0 0  1.275 0 0  1.2875 0 0  1.3 0 0  1.3125 0 0  1.325 0 0  1.3375 0 0  1.35 0 0  1.3625 0 0  1.375 0 0  1.3875 0 0  1.4 0 0  1.4125 0 0  1.425 0 0  1.4375 0 0  1.45 0 0  1.4625 0 0  1.475 0 0  1.4875 0 0  1.5 0 0  1.5125 0 0  1.525 0 0  1.5375 0 0  1.55 0 0  1.5625 0 0  1.575 0 0  1.5875 0 0  1.6 0 0  1.6125 0 0  1.625 0 0  1.6375 0 0  1.65 0 0  1.6625 0 0  1.675 0 0  1.6875 0 0  1.7 0 0  1.7125 0 0  1.725 0 0  1.7375 0 0  1.75 0 0  1.7625 0 0  1.775 0 0  1.7875 0 0  1.8 0 0  1.8125 0 0  1.825 0 0  1.8375 0 0  1.85 0 0  1.8625 0 0  1.875 0 0  1.8875 0 0  1.9 0 0  1.9125 0 0  1.925 0 0  1.9375 0 0  1.95 0 0  1.9625 0 0  1.975 0 0  1.9875 0 0  2 0 0  2.0125 0 0  2.025 0 0  2.0375 0 0  2.05 0 0  2.0625 0 0  2.075 0 0  2.0875 0 0  2.1 0 0  2.1125 0 0  2.125 0 0  2.1375 0 0  2.15 0 0  2.1625 0 0  2.175 0 0  2.1875 0 0  2.2 0 0  2.2125 0 0  2.225 0 0  2.2375 0 0  2.25 0 0  2.2625 0 0  2.275 0 0  2.2875 0 0  2.3 0 0  2.3125 0 0  2.325 0 0  2.3375 0 0  2.35 0 0  2.3625 0 0  2.375 0 0  2.3875 0 0  2.4 0 0  2.4125 0 0  2.425 0 0  2.4375 0 0  2.45 0 0  2.4625 0 0  2.475 0 0  2.4875 0 0  2.5 0 0  2.5125 0 0  2.525 0 0  2.5375 0 0  2.55 0 0  2.5625 0 0  2.575 0 0  2.5875 0 0  2.6 0 0  2.6125 0 0  2.625 0 0  2.6375 0 0  2.65 0 0  2.6625 0 0  2.675 0 0  2.6875 0 0  2.7 0 0  2.7125 0 0  2.725 0 0  2.7375 0 0  2.75 0 0  2.7625 0 0  2.775 0 0  2.7875 0 0  2.8 0 0  2.8125 0 0  2.825 0 0  2.8375 0 0  2.85 0 0  2.8625 0 0  2.875 0 0  2.8875 0 0  2.9 0 0  2.9125 0 0  2.925 0 0  2.9375 0 0  2.95 0 0  2.9625 0 0  2.975 0 0  2.9875 0 0  3 0 0  3.012499999999999 0 0  3.025 0 0  3.0375 0 0  3.050000000000001 0 0  3.0625 0 0  3.074999999999999 0 0  3.0875 0 0  3.1 0 0  3.112500000000001 0 0  3.125 0 0  3.137499999999999 0 0  3.15 0 0  3.1625 0 0  3.175000000000001 0 0  3.1875 0 0  3.199999999999999 0 0  3.2125 0 0  3.225 0 0  3.237500000000001 0 0  3.25 0 0  3.262499999999999 0 0  3.275 0 0  3.2875 0 0  3.300000000000001 0 0  3.3125 0 0  3.324999999999999 0 0  3.3375 0 0  3.35 0 0  3.362500000000001 0 0  3.375 0 0  3.387499999999999 0 0  3.4 0 0  3.4125 0 0  3.425000000000001 0 0  3.4375 0 0  3.449999999999999 0 0  3.4625 0 0  3.475 0 0  3.4875
[...]
<PointData  Vectors="(h, u)"> 
<DataArray  type="Float64"  Name="(h, u)"  NumberOfComponents="3" format="ascii">4.0564188769234205e-01 0.0000000000000000e+00 0.0000000000000000e+00  4.0587570609747853e-01 1.0024941446966081e-02 0.0000000000000000e+00  4.0563586313450062e-01 2.0076037466211165e-02 0.0000000000000000e+00  4.0586373761335032e-01 3.0075223837597472e-02 0.0000000000000000e+00  4.0561778732001735e-01 4.0152852120264870e-02 0.0000000000000000e+00  4.0583979601529785e-01 5.0126709557324477e-02 0.0000000000000000e+00  4.0558765407616065e-01 6.0231230766437056e-02 0.0000000000000000e+00  4.0580387234379689e-01 7.0180216738654794e-02 0.0000000000000000e+00  4.0554545338113845e-01 8.0311978369016768e-02 0.0000000000000000e+00  4.0575595344249038e-01 9.0236584256083580e-02 0.0000000000000000e+00  4.0549117162289200e-01 1.0039592108177245e-01 0.0000000000000000e+00  4.0569602231686175e-01 1.1029667145757741e-01 0.0000000000000000e+00  4.0542479167735740e-01 1.2048390418936382e-01 0.0000000000000000e+00  4.0562405757726289e-01 1.3036135593770912e-01 0.0000000000000000e+00  4.0534629186829640e-01 1.4057678889757719e-01 0.0000000000000000e+00  4.0554003258224386e-01 1.5043152677325763e-01 0.0000000000000000e+00  4.0525564564790961e-01 1.6067544112132109e-01 0.0000000000000000e+00  4.0544391508624894e-01 1.7050807298232387e-01 0.0000000000000000e+00  4.0515282024176930e-01 1.8078072542520476e-01 0.0000000000000000e+00  4.0533566506895990e-01 1.9059188329919885e-01 0.0000000000000000e+00  4.0503777537182323e-01 2.0089350312470466e-01 0.0000000000000000e+00  4.0521523573543622e-01 2.1068383686099232e-01 0.0000000000000000e+00  4.0491046521045021e-01 2.2101462254155380e-01 0.0000000000000000e+00  4.0508257343473764e-01 2.3078480809074525e-01 0.0000000000000000e+00  4.0477083581741180e-01 2.4114494028360806e-01 0.0000000000000000e+00  4.0493761679346252e-01 2.5089568327597200e-01 0.0000000000000000e+00  4.0461882972282798e-01 2.6128531345706657e-01 0.0000000000000000e+00  4.0478030328125664e-01 2.7101734425145391e-01 0.0000000000000000e+00  4.0445438602427897e-01 2.8143661480923365e-01 0.0000000000000000e+00  4.0461056173696924e-01 2.9115071910122786e-01 0.0000000000000000e+00  4.0427743687421791e-01 3.0159976064188510e-01 0.0000000000000000e+00  4.0442832237554693e-01 3.1129673967873656e-01 0.0000000000000000e+00  4.0408791987227555e-01 3.2177565183076978e-01 0.0000000000000000e+00  4.0423350996639545e-01 3.3145637242158127e-01 0.0000000000000000e+00  4.0388575475139404e-01 3.4196528176778934e-01 0.0000000000000000e+00  4.0402603805161524e-01 3.5163063573704084e-01 0.0000000000000000e+00  4.0367087196246892e-01 3.6216958328709681e-01 0.0000000000000000e+00  4.0380583076476406e-01 3.7182047937622320e-01 0.0000000000000000e+00  4.0344317955320713e-01 3.8238957743757607e-01 0.0000000000000000e+00  4.0357277083718734e-01 3.9202703301287345e-01 0.0000000000000000e+00  4.0320258168321682e-01 4.0262627056485772e-01 0.0000000000000000e+00  4.0332678357592849e-01 4.1225119073075506e-01 0.0000000000000000e+00  4.0294898929812162e-01 4.2288060668806715e-01 0.0000000000000000e+00  4.0306771677787623e-01 4.3249419286251939e-01 0.0000000000000000e+00  4.0268225661076074e-01 4.4315381193174747e-01 0.0000000000000000e+00  4.0279548511442420e-01 4.5275689755149612e-01 0.0000000000000000e+00  4.0240233633967176e-01 4.6344664683596515e-01 0.0000000000000000e+00  4.0250991805071323e-01 4.7304058238110497e-01 0.0000000000000000e+00  4.0210899062463046e-01 4.8376073035748385e-01 0.0000000000000000e+00  4.0221091537047371e-01 4.9334635116521963e-01 0.0000000000000000e+00  4.0180222148974820e-01 5.0409626090632242e-01 0.0000000000000000e+00  4.0189837262692568e-01 5.1367551911781639e-01 0.0000000000000000e+00  4.0148163327511616e-01 5.2445546136955967e-01 0.0000000000000000e+00  4.0157205923050049e-01 5.3402947485397179e-01 0.0000000000000000e+00  4.0114749637001912e-01 5.4483840197814493e-01 0.0000000000000000e+00  4.0123176411916012e-01 5.5440796635590484e-01 0.0000000000000000e+00  4.0079941576111228e-01 5.6524964641393471e-01 0.0000000000000000e+00  4.0087693968111243e-01 5.7481270888101810e-01 0.0000000000000000e+00  4.0043773827666362e-01 5.8568682626925084e-01 0.0000000000000000e+00  4.0050831681651183e-01 5.9524600762763302e-01 0.0000000000000000e+00  4.0006031533937902e-01 6.0615035426319563e-01 0.0000000000000000e+00  4.0012657217035669e-01 6.1571864972263324e-01 0.0000000000000000e+00  3.9966716129167645e-01 6.2662997131629128e-01 0.0000000000000000e+00  3.9973186245772890e-01 6.3622738212667196e-01 0.0000000000000000e+00  3.9925902893676107e-01 6.4715035773220819e-01 0.0000000000000000e+00  3.9931720392878151e-01 6.5674741996312069e-01 0.0000000000000000e+00  3.9884689897200482e-01 6.6774149690507167e-01 0.0000000000000000e+00  3.9887510327730169e-01 6.7723843535480455e-01 0.0000000000000000e+00  3.9842818396347823e-01 6.8843270418280322e-01 0.0000000000000000e+00  3.9841702327272166e-01 6.9775943891471848e-01 0.0000000000000000e+00  3.9797778480550883e-01 7.0904745068800057e-01 0.0000000000000000e+00  3.9798927477251173e-01 7.1855965633652807e-01 0.0000000000000000e+00  3.9743473165933224e-01 7.2935695177527260e-01 0.0000000000000000e+00  3.9762781112657680e-01 7.3977479154798798e-01 0.0000000000000000e+00  3.9683662506636536e-01 7.4946803614867630e-01 0.0000000000000000e+00  3.9719266357799099e-01 7.6081146305024472e-01 0.0000000000000000e+00  3.9642200633376934e-01 7.7064127196376231e-01 0.0000000000000000e+00  3.9637428461438151e-01 7.7996343991842820e-01 0.0000000000000000e+00  3.9648390397630701e-01 7.9432969577731605e-01 0.0000000000000000e+00  3.9508482146373131e-01 7.9702222826622116e-01 0.0000000000000000e+00  3.9662844492442406e-01 8.1846349548764685e-01 0.0000000000000000e+00  3.9441044106576006e-01 8.1715936408102696e-01 0.0000000000000000e+00  3.9510221928359407e-01 8.3465311814345777e-01 0.0000000000000000e+00  3.9634663198895803e-01 8.5046491480444864e-01 0.0000000000000000e+00  3.9046451917832758e-01 8.3506423274699138e-01 0.0000000000000000e+00  4.0056931457621564e-01 8.9544658132292865e-01 0.0000000000000000e+00  3.8605144531322882e-01 8.3686198728657779e-01 0.0000000000000000e+00  3.9964611976653630e-01 9.1491488447050540e-01 0.0000000000000000e+00  3.9276521220261135e-01 8.9559083600100253e-01 0.0000000000000000e+00  3.8126400285924672e-01 8.4781313820033122e-01 0.0000000000000000e+00  4.1822828990157979e-01 1.0432487451409609e+00 0.0000000000000000e+00  3.4738564932292981e-01 7.0347364579840366e-01 0.0000000000000000e+00  4.3581460492401430e-01 1.1194213406037201e+00 0.0000000000000000e+00  2.6654986390924168e-01 4.4117393081241424e-01 0.0000000000000000e+00  7.7152626097440391e-02 -1.8493157610771154e+00 0.0000000000000000e+00  1.0179242540208525e-01 -1.1293183262866271e+00 0.0000000000000000e+00  9.9082099643267599e-02 -1.4320699351359356e+00 0.0000000000000000e+00  9.6011302567019827e-02 -1.2981139747876365e+00 0.0000000000000000e+00  9.7368788893895802e-02 -1.3537200918314940e+00 0.0000000000000000e+00  9.6162451653201877e-02 -1.3290050480012177e+00 0.0000000000000000e+00  9.5451895303313855e-02 -1.3345181197966702e+00 0.0000000000000000e+00  9.5504686254821003e-02 -1.3311303919224324e+00 0.0000000000000000e+00  9.4229422748750971e-02 -1.3287542071244185e+00 0.0000000000000000e+00  9.4455527291662900e-02 -1.3272958928182430e+00 0.0000000000000000e+00  9.3177766232932474e-02 -1.3254404684007501e+00 0.0000000000000000e+00  9.3359772609477684e-02 -1.3228635371722348e+00 0.0000000000000000e+00  9.2121202580946221e-02 -1.3221959380598058e+00 0.0000000000000000e+00  9.2285681508327500e-02 -1.3187410919607412e+00 0.0000000000000000e+00  9.1045361205747813e-02 -1.3187957647188320e+00 0.0000000000000000e+00  9.1225738743552845e-02 -1.3148944949339838e+00 0.0000000000000000e+00  8.9962603186287904e-02 -1.3153518085638842e+00 0.0000000000000000e+00  9.0168929016537780e-02 -1.3112247214372730e+00 0.0000000000000000e+00  8.8880255892303153e-02 -1.3119412785275408e+00 0.0000000000000000e+00  8.9110743348730287e-02 -1.3076886053087904e+00 0.0000000000000000e+00  8.7800305536894233e-02 -1.3085943288890838e+00 0.0000000000000000e+00  8.8050258115561553e-02 -1.3042749003069354e+00 0.0000000000000000e+00  8.6722609062825431e-02 -1.3053228669758858e+00 0.0000000000000000e+00  8.6987647176764119e-02 -1.3009818845065262e+00 0.0000000000000000e+00  8.5646516545932833e-02 -1.3021349568926157e+00 0.0000000000000000e+00  8.5923243620101952e-02 -1.2978094325382772e+00 0.0000000000000000e+00  8.4571355067836848e-02 -1.2990385966800584e+00 0.0000000000000000e+00  8.4857317528482884e-02 -1.2947576299179808e+00 0.0000000000000000e+00  8.3496513335022185e-02 -1.2960419840541584e+00 0.0000000000000000e+00  8.3790051360901258e-02 -1.2918269956578419e+00 0.0000000000000000e+00  8.2421442045041204e-02 -1.2931532053009538e+00 0.0000000000000000e+00  8.2721543197633626e-02 -1.2890187997515035e+00 0.0000000000000000e+00  8.1345650404275285e-02 -1.2903800133734145e+00 0.0000000000000000e+00  8.1651806410959440e-02 -1.2863352519471638e+00 0.0000000000000000e+00  8.0268706598702180e-02 -1.2877297256438869e+00 0.0000000000000000e+00  8.0580767827348521e-02 -1.2837795941824250e+00 0.0000000000000000e+00  7.9190237354868936e-02 -1.2852092031982301e+00 0.0000000000000000e+00  7.9508269253667510e-02 -1.2813561215184570e+00 0.0000000000000000e+00  7.8109922996752443e-02 -1.2828248993509226e+00 0.0000000000000000e+00  7.8434074704826204e-02 -1.2790701354709126e+00 0.0000000000000000e+00  7.7027487094657926e-02 -1.2805829735904086e+00 0.0000000000000000e+00  7.7357883283092704e-02 -1.2769278349094699e+00 0.0000000000000000e+00  7.5942681833917766e-02 -1.2784894582346884e+00 0.0000000000000000e+00  7.6279346079935903e-02 -1.2749361604127440e+00 0.0000000000000000e+00  7.4855271456476538e-02 -1.2765504533228016e+00 0.0000000000000000e+00  7.5198084722638017e-02 -1.2731026160887846e+00 0.0000000000000000e+00  7.3765016576401332e-02 -1.2747723188484459e+00 0.0000000000000000e+00  7.4113709221205804e-02 -1.2714350937490793e+00 0.0000000000000000e+00  7.2671661958898098e-02 -1.2731618340303037e+00 0.0000000000000000e+00  7.3025833425116926e-02 -1.2699417181836417e+00 0.0000000000000000e+00  7.1574929716114524e-02 -1.2717262990593206e+00 0.0000000000000000e+00  7.1934087422552431e-02 -1.2686307214929662e+00 0.0000000000000000e+00  7.0474519102132441e-02 -1.2704735625219770e+00 0.0000000000000000e+00  7.0838127348522947e-02 -1.2675103417075595e+00 0.0000000000000000e+00  6.9370113449113507e-02 -1.2694119643589079e+00 0.0000000000000000e+00  6.9737644121172310e-02 -1.2665887283321589e+00 0.0000000000000000e+00  6.8261394465705297e-02 -1.2685501873643756e+00 0.0000000000000000e+00  6.8632373509084077e-02 -1.2658738259494235e+00 0.0000000000000000e+00  6.7148064219761869e-02 -1.2678970083229197e+00 0.0000000000000000e+00  6.7522110660782717e-02 -1.2653731964125405e+00 0.0000000000000000e+00  6.6029875681870617e-02 -1.2674609321095804e+00 0.0000000000000000e+00  6.6406732893737358e-02 -1.2650937292976332e+00 0.0000000000000000e+00  6.4906673702039772e-02 -1.2672496781018265e+00 0.0000000000000000e+00  6.5286235278458934e-02 -1.2650411774293975e+00 0.0000000000000000e+00  6.3778449692669756e-02 -1.2672694679617138e+00 0.0000000000000000e+00  6.4160784492481318e-02 -1.2652194376045778e+00 0.0000000000000000e+00  6.2645415029744078e-02 -1.2675240374743522e+00 0.0000000000000000e+00  6.3030797614860648e-02 -1.2656294750224708e+00 0.0000000000000000e+00  6.1508100109210005e-02 -1.2680132639673594e+00 0.0000000000000000e+00  6.1897053855676884e-02 -1.2662677645285891e+00 0.0000000000000000e+00  6.0367487736314028e-02 -1.2687312691147192e+00 0.0000000000000000e+00  6.0760848164429275e-02 -1.2671240986850398e+00 0.0000000000000000e+00  5.9225190255904302e-02 -1.2696638353158631e+00 0.0000000000000000e+00  5.9624195079820523e-02 -1.2681786072757346e+00 0.0000000000000000e+00  5.8083677948475694e-02 -1.2707849845975669e+00 0.0000000000000000e+00  5.8490086947989864e-02 -1.2693978752252761e+00 0.0000000000000000e+00  5.6946559084202333e-02 -1.2720526510938934e+00 0.0000000000000000e+00  5.7362799644815540e-02 -1.2707301831823141e+00 0.0000000000000000e+00  5.5818896450222540e-02 -1.2734035835329685e+00 0.0000000000000000e+00  5.6248218294041627e-02 -1.2721001780559893e+00 0.0000000000000000e+00  5.4707518871988166e-02 -1.2747479894806062e+00 0.0000000000000000e+00  5.5154122771244429e-02 -1.2734037603302844e+00 0.0000000000000000e+00  5.3621244845441111e-02 -1.2759650588873774e+00 0.0000000000000000e+00  5.4090319820510248e-02 -1.2745047840600143e+00 0.0000000000000000e+00  5.2570869151918130e-02 -1.2769015392302601e+00 0.0000000000000000e+00  5.3068434115671220e-02 -1.2752363496803771e+00 0.0000000000000000e+00  5.1568696164460678e-02 -1.2773766768922330e+00 0.0000000000000000e+00  5.2101137434769150e-02 -1.2754101751372020e+00 0.0000000000000000e+00  5.0627434547137043e-02 -1.2771966774571433e+00 0.0000000000000000e+00  5.1200714890553937e-02 -1.2748360991527627e+00 0.0000000000000000e+00  4.9758486882607124e-02 -1.2761789107620394e+00 0.0000000000000000e+00  5.0377180024585758e-02 -1.2733493727430363e+00 0.0000000000000000e+00  4.8970047982992225e-02 -1.2741804777147854e+00 0.0000000000000000e+00  4.9636544306711501e-02 -1.2708373839079590e+00 0.0000000000000000e+00  4.8265743828547293e-02 -1.2711205404493511e+00 0.0000000000000000e+00  4.8979982310865505e-02 -1.2672547373492664e+00 0.0000000000000000e+00  4.7644411112522496e-02 -1.2669868971661256e+00 0.0000000000000000e+00  4.8404219984844093e-02 -1.2626208968699684e+00 0.0000000000000000e+00  4.7101003796466603e-02 -1.2618258046850099e+00 0.0000000000000000e+00  4.7902811547551369e-02 -1.2570041629749813e+00 0.0000000000000000e+00  4.6628067759769978e-02 -1.2557223726142450e+00 0.0000000000000000e+00  4.7467653385966299e-02 -1.2505009703095409e+00 0.0000000000000000e+00  4.6217165743820197e-02 -1.2487804365737949e+00 0.0000000000000000e+00  4.7090237408745170e-02 -1.2432178934974185e+00 0.0000000000000000e+00  4.5859915380190033e-02 -1.2411072013544009e+00 0.0000000000000000e+00  4.6762464588374672e-02 -1.2352594001139388e+00 0.0000000000000000e+00  4.5548591350014843e-02 -1.2328038210080365e+00 0.0000000000000000e+00  4.6477061790613582e-02 -1.2267211164214431e+00 0.0000000000000000e+00  4.5276389424673609e-02 -1.2239608122761323e+00 0.0000000000000000e+00  4.6227724311699567e-02 -1.2176870666366755e+00 0.0000000000000000e+00  4.5037478071609613e-02 -1.2146566334066344e+00 0.0000000000000000e+00  4.6009100368652266e-02 -1.2082293036570957e+00 0.0000000000000000e+00  4.4826937790865148e-02 -1.2049580248985505e+00 0.0000000000000000e+00  4.5816699701859427e-02 -1.1984087651680184e+00 0.0000000000000000e+00  4.4640652850117007e-02 -1.1949211711094401e+00 0.0000000000000000e+00  4.5646775518478483e-02 -1.1882766309055734e+00 0.0000000000000000e+00  4.4475191712756053e-02 -1.1845931339902618e+00 0.0000000000000000e+00  4.5496205684176484e-02 -1.1778757835728004e+00 0.0000000000000000e+00  4.4327694031830733e-02 -1.1740132744598348e+00 0.0000000000000000e+00  4.5362384906880132e-02 -1.1672421809298679e+00 0.0000000000000000e+00  4.4195771502593510e-02 -1.1632145337169688e+00 0.0000000000000000e+00  4.5243131905758412e-02 -1.1564060625544630e+00 0.0000000000000000e+00  4.4077424365862400e-02 -1.1522245314036801e+00 0.0000000000000000e+00  4.5136611698725453e-02 -1.1453929750353675e+00 0.0000000000000000e+00  4.3970972787115488e-02 -1.1410664792295235e+00 0.0000000000000000e+00  4.5041271480924773e-02 -1.1342246272208647e+00 0.0000000000000000e+00  4.3875001302392282e-02 -1.1297599272234622e+00 0.0000000000000000e+00  4.4955788023491684e-02 -1.1229195979778690e+00 0.0000000000000000e+00  4.3788314374931483e-02 -1.1183213645238634e+00 0.0000000000000000e+00  4.4879024319918942e-02 -1.1114939240871675e+00 0.0000000000000000e+00  4.3709901439772915e-02 -1.1067646935959894e+00 0.0000000000000000e+00  4.4809993414303494e-02 -1.0999615944688097e+00 0.0000000000000000e+00  4.3638909657589535e-02 -1.0951016005303043e+00 0.0000000000000000e+00  4.4747828371403633e-02 -1.0883349629341730e+00 0.0000000000000000e+00  4.3574622429529426e-02 -1.0833418476588026e+00 0.0000000000000000e+00  4.4691756784351160e-02 -1.0766251008768601e+00 0.0000000000000000e+00  4.3516444729770107e-02 -1.0714934706454209e+00 0.0000000000000000e+00  4.4641074719082872e-02 -1.0648421637641117e+00 0.0000000000000000e+00  4.3463898278377815e-02 -1.0595628334501792e+00 0.0000000000000000e+00  4.4595119473177083e-02 -1.0529957792356726e+00 0.0000000000000000e+00  4.3416617517059962e-02 -1.0475546752677021e+00 0.0000000000000000e+00  4.4553257009439400e-02 -1.0410952203183845e+00 0.0000000000000000e+00  4.3374328628554247e-02 -1.0354724140274336e+00 0.0000000000000000e+00  4.4514886047275458e-02 -1.0291493339607813e+00 0.0000000000000000e+00  4.3336840557503621e-02 -1.0233182720928828e+00 0.0000000000000000e+00  4.4479390003745116e-02 -1.0171672470636814e+00 0.0000000000000000e+00  4.3304138105764861e-02 -1.0110918766286350e+00 0.0000000000000000e+00  4.4445970958180737e-02 -1.0051608262929355e+00 0.0000000000000000e+00  4.3276548031525329e-02 -9.9878777381139361e-01 0.0000000000000000e+00  4.4413553178276298e-02 -9.9314609928146835e-01 0.0000000000000000e+00  4.3254608890045475e-02 -9.8639738772390306e-01 0.0000000000000000e+00  4.4381253775651414e-02 -9.8113623852986942e-01 0.0000000000000000e+00  4.3238158830419565e-02 -9.7392268150622763e-01 0.0000000000000000e+00  4.4349694299524650e-02 -9.6912205022681197e-01 0.0000000000000000e+00  4.3224779370322639e-02 -9.6139940814195035e-01 0.0000000000000000e+00  4.4322482580813359e-02 -9.5704997471389142e-01 0.0000000000000000e+00  4.3208767660542352e-02 -9.4891235661629680e-01 0.0000000000000000e+00  4.4306391232744810e-02 -9.4481956025969449e-01 0.0000000000000000e+00  4.3182063521568635e-02 -9.3658129467722329e-01 0.0000000000000000e+00  4.4309254129780658e-02 -9.3231498618674213e-01 0.0000000000000000e+00  4.3137329152108883e-02 -9.2451479303639883e-01 0.0000000000000000e+00  4.4336329295108480e-02 -9.1945939584138825e-01 0.0000000000000000e+00  4.3071567196161488e-02 -9.1275616199462617e-01 0.0000000000000000e+00  4.4387303851093803e-02 -9.0625941956108425e-01 0.0000000000000000e+00  4.2987986625653549e-02 -9.0125567155804565e-01 0.0000000000000000e+00  4.4455847493004207e-02 -8.9281137232089669e-01 0.0000000000000000e+00  4.2894975023656169e-02 -8.8988602841066322e-01 0.0000000000000000e+00  4.4531863798921406e-02 -8.7926712927169248e-01 0.0000000000000000e+00  4.2803000276920640e-02 -8.7848884555793483e-01 0.0000000000000000e+00  4.4604910049129615e-02 -8.6578286940255134e-01 0.0000000000000000e+00  4.2721280258451740e-02 -8.6692467159471454e-01 0.0000000000000000e+00  4.4667106473813237e-02 -8.5247587534731761e-01 0.0000000000000000e+00  4.2655473141859204e-02 -8.5510778106546736e-01 0.0000000000000000e+00  4.4714757351493307e-02 -8.3940080840832176e-01 0.0000000000000000e+00  4.2606866553558206e-02 -8.4301840077508183e-01 0.0000000000000000e+00  4.4748304538329280e-02 -8.2655082412090064e-01 0.0000000000000000e+00  4.2573328353501014e-02 -8.3068830165091689e-01 0.0000000000000000e+00  4.4770648741399112e-02 -8.1388280581620231e-01 0.0000000000000000e+00  4.2551391489817132e-02 -8.1816924344084374e-01 0.0000000000000000e+00  4.4785087534132760e-02 -8.0134810226370068e-01 0.0000000000000000e+00  4.2537889928048203e-02 -8.0550822867448935e-01 0.0000000000000000e+00  4.4794284470911744e-02 -7.8890781764557716e-01 0.0000000000000000e+00  4.2530387286938025e-02 -7.9274102125108414e-01 0.0000000000000000e+00  4.4800245199025708e-02 -7.7653310779700047e-01 0.0000000000000000e+00  4.2527014658020328e-02 -7.7989459725089394e-01 0.0000000000000000e+00  4.4804493681528959e-02 -7.6420252338347860e-01 0.0000000000000000e+00  4.2526350093849523e-02 -7.6698896885711954e-01 0.0000000000000000e+00  4.4808139191308022e-02 -7.51900