<?xml version="1.0"?>
<VTKFile type="UnstructuredGrid"  version="0.1"  >
<UnstructuredGrid>
<Piece  NumberOfPoints="801" NumberOfCells="800">
<Points>
<DataArray  type="Float64"  NumberOfComponents="3"  format="ascii">-5 0 0  -4.9875 0 0  -4.975 0 0  -4.9625 0 0  -4.95 0 0  -4.9375 0 0  -4.925 0 0  -4.9125 0 0  -4.9 0 0  -4.8875 0 0  -4.875 0 0  -4.8625 0 0  -4.85 0 0  -4.8375 0 0  -4.825 0 0  -4.8125 0 0  -4.8 0 0  -4.7875 0 0  -4.775 0 0  -4.7625 0 0  -4.75 0 0  -4.7375 0 0  -4.725 0 0  -4.7125 0 0  -4.7 0 0  -4.6875 0 0  -4.675 0 0  -4.6625 0 0  -4.65 0 0  -4.6375 0 0  -4.625 0 0  -4.6125 0 0  -4.6 0 0  -4.5875 0 0  -4.575 0 0  -4.5625 0 0  -4.55 0 0  -4.5375 0 0  -4.525 0 0  -4.5125 0 0  -4.5 0 0  -4.4875 0 0  -4.475 0 0  -4.4625 0 0  -4.45 0 0  -4.4375 0 0  -4.425 0 0  -4.4125 0 0  -4.4 0 0  -4.3875 0 0  -4.375 0 0  -4.3625 0 0  -4.35 0 0  -4.3375 0 0  -4.325 0 0  -4.3125 0 0  -4.3 0 0  -4.2875 0 0  -4.275 0 0  -4.2625 0 0  -4.25 0 0  -4.2375 0 0  -4.225 0 0  -4.2125 0 0  -4.2 0 0  -4.1875 0 0  -4.175 0 0  -4.1625 0 0  -4.15 0 0  -4.1375 0 0  -4.125 0 0  -4.1125 0 0  -4.1 0 0  -4.0875 0 0  -4.075 0 0  -4.0625 0 0  -4.05 0 0  -4.0375 0 0  -4.025 0 0  -4.0125 0 0  -4 0 0  -3.9875 0 0  -3.975 0 0  -3.9625 0 0  -3.95 0 0  -3.9375 0 0  -3.925 0 0  -3.9125 0 0  -3.9 0 0  -3.8875 0 0  -3.875 0 0  -3.8625 0 0  -3.85 0 0  -3.8375 0 0  -3.825 0 0  -3.8125 0 0  -3.8 0 0  -3.7875 0 0  -3.775 0 0  -3.7625 0 0  -3.75 0 0  -3.7375 0 0  -3.725 0 0  -3.7125 0 0  -3.7 0 0  -3.6875 0 0  -3.675 0 0  -3.6625 0 0  -3.65 0 0  -3.6375 0 0  -3.625 0 0  -3.6125 0 0  -3.6 0 0  -3.5875 0 0  -3.575 0 0  -3.5625 0 0  -3.55 0 0  -3.5375 0 0  -3.525 0 0  -3.5125 0 0  -3.5 0 0  -3.4875 0 0  -3.475 0 0  -3.4625 0 0  -3.45 0 0  -3.4375 0 0  -3.425 0 0  -3.4125 0 0  -3.4 0 0  -3.3875 0 0  -3.375 0 0  -3.3625 0 0  -3.35 0 0  -3.3375 0 0  -3.325 0 0  -3.3125 0 0  -3.3 0 0  -3.2875 0 0  -3.275 0 0  -3.2625 0 0  -3.25 0 0  -3.2375 0 0  -3.225 0 0  -3.2125 0 0  -3.2 0 0  -3.1875 0 0  -3.175 0 0  -3.1625 0 0  -3.15 0 0  -3.1375 0 0  -3.125 0 0  -3.1125 0 0  -3.1 0 0  -3.0875 0 0  -3.075 0 0  -3.0625 0 0  -3.05 0 0  -3.0375 0 0  -3.025 0 0  -3.0125 0 0  -3 0 0  -2.9875 0 0  -2.975 0 0  -2.9625 0 0  -2.95 0 0  -2.9375 0 0  -2.925 0 0  -2.9125 0 0  -2.9 0 0  -2.8875 0 0  -2.875 0 0  -2.8625 0 0  -2.85 0 0  -2.8375 0 0  -2.825 0 0  -2.8125 0 0  -2.8 0 0  -2.7875 0 0  -2.775 0 0  -2.7625 0 0  -2.75 0 0  -2.7375 0 0  -2.725 0 0  -2.7125 0 0  -2.7 0 0  -2.6875 0 0  -2.675 0 0  -2.6625 0 0  -2.65 0 0  -2.6375 0 0  -2.625 0 0  -2.6125 0 0  -2.6 0 0  -2.5875 0 0  -2.575 0 0  -2.5625 0 0  -2.55 0 0  -2.5375 0 0  -2.525 0 0  -2.5125 0 0  -2.5 0 0  -2.4875 0 0  -2.475 0 0  -2.4625 0 0  -2.45 0 0  -2.4375 0 0  -2.425 0 0  -2.4125 0 0  -2.4 0 0  -2.3875 0 0  -2.375 0 0  -2.3625 0 0  -2.35 0 0  -2.3375 0 0  -2.325 0 0  -2.3125 0 0  -2.3 0 0  -2.2875 0 0  -2.275 0 0  -2.2625 0 0  -2.25 0 0  -2.2375 0 0  -2.225 0 0  -2.2125 0 0  -2.2 0 0  -2.1875 0 0  -2.175 0 0  -2.1625 0 0  -2.15 0 0  -2.1375 0 0  -2.125 0 0  -2.1125 0 0  -2.1 0 0  -2.0875 0 0  -2.075 0 0  -2.0625 0 0  -2.05 0 0  -2.0375 0 0  -2.025 0 0  -2.0125 0 0  -2 0 0  -1.9875 0 0  -1.975 0 0  -1.9625 0 0  -1.95 0 0  -1.9375 0 0  -1.925 0 0  -1.9125 0 0  -1.9 0 0  -1.8875 0 0  -1.875 0 0  -1.8625 0 0  -1.85 0 0  -1.8375 0 0  -1.825 0 0  -1.8125 0 0  -1.8 0 0  -1.7875 0 0  -1.775 0 0  -1.7625 0 0  -1.75 0 0  -1.7375 0 0  -1.725 0 0  -1.7125 0 0  -1.7 0 0  -1.6875 0 0  -1.675 0 0  -1.6625 0 0  -1.65 0 0  -1.6375 0 0  -1.625 0 0  -1.6125 0 0  -1.6 0 0  -1.5875 0 0  -1.575 0 0  -1.5625 0 0  -1.55 0 0  -1.5375 0 0  -1.525 0 0  -1.5125 0 0  -1.5 0 0  -1.4875 0 0  -1.475 0 0  -1.4625 0 0  -1.45 0 0  -1.4375 0 0  -1.425 0 0  -1.4125 0 0  -1.4 0 0  -1.3875 0 0  -1.375 0 0  -1.3625 0 0  -1.35 0 0  -1.3375 0 0  -1.325 0 0  -1.3125 0 0  -1.3 0 0  -1.2875 0 0  -1.275 0 0  -1.2625 0 0  -1.25 0 0  -1.2375 0 0  -1.225 0 0  -1.2125 0 0  -1.2 0 0  -1.1875 0 0  -1.175 0 0  -1.1625 0 0  -1.15 0 0  -1.1375 0 0  -1.125 0 0  -1.1125 0 0  -1.1 0 0  -1.0875 0 0  -1.075 0 0  -1.0625 0 0  -1.05 0 0  -1.0375 0 0  -1.025 0 0  -1.0125 0 0  -1 0 0  -0.9874999999999998 0 0  -0.9749999999999996 0 0  -0.9625000000000004 0 0  -0.9500000000000002 0 0  -0.9375 0 0  -0.9249999999999998 0 0  -0.9124999999999996 0 0  -0.9000000000000004 0 0  -0.8875000000000002 0 0  -0.875 0 0  -0.8624999999999998 0 0  -0.8499999999999996 0 0  -0.8375000000000004 0 0  -0.8250000000000002 0 0  -0.8125 0 0  -0.7999999999999998 0 0  -0.7874999999999996 0 0  -0.7750000000000004 0 0  -0.7625000000000002 0 0  -0.75 0 0  -0.7374999999999998 0 0  -0.7249999999999996 0 0  -0.7125000000000004 0 0  -0.7000000000000002 0 0  -0.6875 0 0  -0.6749999999999998 0 0  -0.6624999999999996 0 0  -0.6500000000000004 0 0  -0.6375000000000002 0 0  -0.625 0 0  -0.6124999999999998 0 0  -0.5999999999999996 0 0  -0.5875000000000004 0 0  -0.5750000000000002 0 0  -0.5625 0 0  -0.5499999999999998 0 0  -0.5374999999999996 0 0  -0.5250000000000004 0 0  -0.5125000000000002 0 0  -0.5 0 0  -0.4874999999999998 0 0  -0.4749999999999996 0 0  -0.4625000000000004 0 0  -0.4500000000000002 0 0  -0.4375 0 0  -0.4249999999999998 0 0  -0.4124999999999996 0 0  -0.4000000000000004 0 0  -0.3875000000000002 0 0  -0.375 0 0  -0.3624999999999998 0 0  -0.3499999999999996 0 0  -0.3375000000000004 0 0  -0.3250000000000002 0 0  -0.3125 0 0  -0.2999999999999998 0 0  -0.2874999999999996 0 0  -0.2750000000000004 0 0  -0.2625000000000002 0 0  -0.25 0 0  -0.2374999999999998 0 0  -0.2249999999999996 0 0  -0.2125000000000004 0 0  -0.2000000000000002 0 0  -0.1875 0 0  -0.1749999999999998 0 0  -0.1624999999999996 0 0  -0.1500000000000004 0 0  -0.1375000000000002 0 0  -0.125 0 0  -0.1124999999999998 0 0  -0.09999999999999964 0 0  -0.08750000000000036 0 0  -0.07500000000000018 0 0  -0.0625 0 0  -0.04999999999999982 0 0  -0.03749999999999964 0 0  -0.02500000000000036 0 0  -0.01250000000000018 0 0  0 0 0  0.01250000000000018 0 0  0.02500000000000036 0 0  0.03749999999999964 0 0  0.04999999999999982 0 0  0.0625 0 0  0.07500000000000018 0 0  0.08750000000000036 0 0  0.09999999999999964 0 0  0.1124999999999998 0 0  0.125 0 0  0.1375000000000002 0 0  0.1500000000000004 0 0  0.1624999999999996 0 0  0.1749999999999998 0 0  0.1875 0 0  0.2000000000000002 0 0  0.2125000000000004 0 0  0.2249999999999996 0 0  0.2374999999999998 0 0  0.25 0 0  0.2625000000000002 0 0  0.2750000000000004 0 0  0.2874999999999996 0 0  0.2999999999999998 0 0  0.3125 0 0  0.3250000000000002 0 0  0.3375000000000004 0 0  0.3499999999999996 0 0  0.3624999999999998 0 0  0.375 0 0  0.3875000000000002 0 0  0.4000000000000004 0 0  0.4124999999999996 0 0  0.4249999999999998 0 0  0.4375 0 0  0.4500000000000002 0 0  0.4625000000000004 0 0  0.4749999999999996 0 0  0.4874999999999998 0 0  0.5 0 0  0.5125000000000002 0 0  0.5250000000000004 0 0  0.5374999999999996 0 0  0.5499999999999998 0 0  0.5625 0 0  0.5750000000000002 0 0  0.5875000000000004 0 0  0.5999999999999996 0 0  0.6124999999999998 0 0  0.625 0 0  0.6375000000000002 0 0  0.6500000000000004 0 0  0.6624999999999996 0 0  0.6749999999999998 0 0  0.6875 0 0  0.7000000000000002 0 0  0.7125000000000004 0 0  0.7249999999999996 0 0  0.7374999999999998 0 0  0.75 0 0  0.7625000000000002 0 0  0.7750000000000004 0 0  0.7874999999999996 0 0  0.7999999999999998 0 0  0.8125 0 0  0.8250000000000002 0 0  0.8375000000000004 0 0  0.8499999999999996 0 0  0.8624999999999998 0 0  0.875 0 0  0.8875000000000002 0 0  0.9000000000000004 0 0  0.9124999999999996 0 0  0.9249999999999998 0 0  0.9375 0 0  0.9500000000000002 0 0  0.9625000000000004 0 0  0.9749999999999996 0 0  0.9874999999999998 0 0  1 0 0  1.0125 0 0  1.025 0 0  1.0375 0 0  1.05 0 0  1.0625 0 0  1.075 0 0  1.0875 0 0  1.1 0 0  1.1125 0 0  1.125 0 0  1.1375 0 0  1.15 0 0  1.1625 0 0  1.175 0 0  1.1875 0 0  1.2 0 0  1.2125 0 0  1.225 0 0  1.2375 0 0  1.25 0 0  1.2625 0 0  1.275 0 0  1.2875 0 0  1.3 0 0  1.3125 0 0  1.325 0 0  1.3375 0 0  1.35 0 0  1.3625 0 0  1.375 0 0  1.3875 0 0  1.4 0 0  1.4125 0 0  1.425 0 0  1.4375 0 0  1.45 0 0  1.4625 0 0  1.475 0 0  1.4875 0 0  1.5 0 0  1.5125 0 0  1.525 0 0  1.5375 0 0  1.55 0 0  1.5625 0 0  1.575 0 0  1.5875 0 0  1.6 0 0  1.6125 0 0  1.625 0 0  1.6375 0 0  1.65 0 0  1.6625 0 0  1.675 0 0  1.6875 0 0  1.7 0 0  1.7125 0 0  1.725 0 0  1.7375 0 0  1.75 0 0  1.7625 0 0  1.775 0 0  1.7875 0 0  1.8 0 0  1.8125 0 0  1.825 0 0  1.8375 0 0  1.85 0 0  1.8625 0 0  1.875 0 0  1.8875 0 0  1.9 0 0  1.9125 0 0  1.925 0 0  1.9375 0 0  1.95 0 0  1.9625 0 0  1.975 0 0  1.9875 0 0  2 0 0  2.0125 0 0  2.025 0 0  2.0375 0 0  2.05 0 0  2.0625 0 0  2.075 0 0  2.0875 0 0  2.1 0 0  2.1125 0 0  2.125 0 0  2.1375 0 0  2.15 0 0  2.1625 0 0  2.175 0 0  2.1875 0 0  2.2 0 0  2.2125 0 0  2.225 0 0  2.2375 0 0  2.25 0 0  2.2625 0 0  2.275 0 0  2.2875 0 0  2.3 0 0  2.3125 0 0  2.325 0 0  2.3375 0 0  2.35 0 0  2.3625 0 0  2.375 0 0  2.3875 0 0  2.4 0 0  2.4125 0 0  2.425 0 0  2.4375 0 0  2.45 0 0  2.4625 0 0  2.475 0 0  2.4875 0 0  2.5 0 0  2.5125 0 0  2.525 0 0  2.5375 0 0  2.55 0 0  2.5625 0 0  2.575 0 0  2.5875 0 0  2.6 0 0  2.6125 0 0  2.625 0 0  2.6375 0 0  2.65 0 0  2.6625 0 0  2.675 0 0  2.6875 0 0  2.7 0 0  2.7125 0 0  2.725 0 0  2.7375 0 0  2.75 0 0  2.7625 0 0  2.775 0 0  2.7875 0 0  2.8 0 0  2.8125 0 0  2.825 0 0  2.8375 0 0  2.85 0 0  2.8625 0 0  2.875 0 0  2.8875 0 0  2.9 0 0  2.9125 0 0  2.925 0 0  2.9375 0 0  2.95 0 0  2.9625 0 0  2.975 0 0  2.9875 0 0  3 0 0  3.012499999999999 0 0  3.025 0 0  3.0375 0 0  3.050000000000001 0 0  3.0625 0 0  3.074999999999999 0 0  3.0875 0 0  3.1 0 0  3.112500000000001 0 0  3.125 0 0  3.137499999999999 0 0  3.15 0 0  3.1625 0 0  3.175000000000001 0 0  3.1875 0 0  3.199999999999999 0 0  3.2125 0 0  3.225 0 0  3.237500000000001 0 0  3.25 0 0  3.262499999999999 0 0  3.275 0 0  3.2875 0 0  3.300000000000001 0 0  3.3125 0 0  3.324999999999999 0 0  3.3375 0 0  3.35 0 0  3.362500000000001 0 0  3.375 0 0  3.387499999999999 0 0  3.4 0 0  3.4125 0 0  3.425000000000001 0 0  3.4375 0 0  3.449999999999999 0 0  3.4625 0 0  3.475 0 0  3.4875
[...]
<PointData  Vectors="(h, u)"> 
<DataArray  type="Float64"  Name="(h, u)"  NumberOfComponents="3" format="ascii">1.3197870805651651e-01 0.0000000000000000e+00 0.0000000000000000e+00  1.3546059199732588e-01 5.7700222154196592e-03 0.0000000000000000e+00  1.3198671079601618e-01 6.7504670441894546e-03 0.0000000000000000e+00  1.3543849411445463e-01 1.7248774213055609e-02 0.0000000000000000e+00  1.3201083164679195e-01 1.3626389858038931e-02 0.0000000000000000e+00  1.3539409191241381e-01 2.8548658106637127e-02 0.0000000000000000e+00  1.3205133630696222e-01 2.0742946711581382e-02 0.0000000000000000e+00  1.3532711026382560e-01 3.9566610427406529e-02 0.0000000000000000e+00  1.3210844344879127e-01 2.8195830094120446e-02 0.0000000000000000e+00  1.3523745029152343e-01 5.0222096499680464e-02 0.0000000000000000e+00  1.3218204260892052e-01 3.6054053578676699e-02 0.0000000000000000e+00  1.3512548659815271e-01 6.0462841855883388e-02 0.0000000000000000e+00  1.3227139523871925e-01 4.4355486608507293e-02 0.0000000000000000e+00  1.3499234868331930e-01 7.0267744216626113e-02 0.0000000000000000e+00  1.3237488923902371e-01 5.3105513083066137e-02 0.0000000000000000e+00  1.3484011920826605e-01 7.9646756578171191e-02 0.0000000000000000e+00  1.3248990745612196e-01 6.2278845911489959e-02 0.0000000000000000e+00  1.3467189652193856e-01 8.8637876763844159e-02 0.0000000000000000e+00  1.3261284828810063e-01 7.1824163679757955e-02 0.0000000000000000e+00  1.3449169481946921e-01 9.7301700012365100e-02 0.0000000000000000e+00  1.3273930685335000e-01 8.1670914545520529e-02 0.0000000000000000e+00  1.3430418726975513e-01 1.0571424820143056e-01 0.0000000000000000e+00  1.3286439444974238e-01 9.1737400491092219e-02 0.0000000000000000e+00  1.3411432875501986e-01 1.1395895087829322e-01 0.0000000000000000e+00  1.3298314832040778e-01 1.0193914607439601e-01 0.0000000000000000e+00  1.3392691874499341e-01 1.2211870203718363e-01 0.0000000000000000e+00  1.3309096753636604e-01 1.1219658681932776e-01 0.0000000000000000e+00  1.3374617602581673e-01 1.3026885063431512e-01 0.0000000000000000e+00  1.3318400646931161e-01 1.2244127791835011e-01 0.0000000000000000e+00  1.3357539324157419e-01 1.3847181403370620e-01 0.0000000000000000e+00  1.3325946514322334e-01 1.3262009377237816e-01 0.0000000000000000e+00  1.3341672197023466e-01 1.4677375438314599e-01 0.0000000000000000e+00  1.3331573426699234e-01 1.4269721180587308e-01 0.0000000000000000e+00  1.3327111317560203e-01 1.5520345948382833e-01 0.0000000000000000e+00  1.3335237893805366e-01 1.5265398911026073e-01 0.0000000000000000e+00  1.3313840984457886e-01 1.6377326228541683e-01 0.0000000000000000e+00  1.3336997425039920e-01 1.6248709391806848e-01 0.0000000000000000e+00  1.3301756435169973e-01 1.7248156533226258e-01 0.0000000000000000e+00  1.3336983241711253e-01 1.7220541339066686e-01 0.0000000000000000e+00  1.3290693623031183e-01 1.8131635869489549e-01 0.0000000000000000e+00  1.3335367839081527e-01 1.8182631969458504e-01 0.0000000000000000e+00  1.3280461754687331e-01 1.9025907047734386e-01 0.0000000000000000e+00  1.3332333489545897e-01 1.9137185398109979e-01 0.0000000000000000e+00  1.3270873239117947e-01 1.9928817615371822e-01 0.0000000000000000e+00  1.3328046773650951e-01 2.0086530408130421e-01 0.0000000000000000e+00  1.3261766382091655e-01 2.0838218135455899e-01 0.0000000000000000e+00  1.3322642265639939e-01 2.1032851894433302e-01 0.0000000000000000e+00  1.3253017653187388e-01 2.1752180992174405e-01 0.0000000000000000e+00  1.3316216330426137e-01 2.1978012858874643e-01 0.0000000000000000e+00  1.3244542606064183e-01 2.2669140035731400e-01 0.0000000000000000e+00  1.3308830227307936e-01 2.2923464543220706e-01 0.0000000000000000e+00  1.3236287128681976e-01 2.3587960254835363e-01 0.0000000000000000e+00  1.3300520548120670e-01 2.3870225884628596e-01 0.0000000000000000e+00  1.3228212870318329e-01 2.4507948763117185e-01 0.0000000000000000e+00  1.3291314241403349e-01 2.4818905546613065e-01 0.0000000000000000e+00  1.3220281617695123e-01 2.5428818575910667e-01 0.0000000000000000e+00  1.3281244777857262e-01 2.5769743772167342e-01 0.0000000000000000e+00  1.3212442651204576e-01 2.6350619404165065e-01 0.0000000000000000e+00  1.3270365425691108e-01 2.6722664922397776e-01 0.0000000000000000e+00  1.3204625194157685e-01 2.7273653978032647e-01 0.0000000000000000e+00  1.3258755850684659e-01 2.7677344615016652e-01 0.0000000000000000e+00  1.3196736324199937e-01 2.8198397025578265e-01 0.0000000000000000e+00  1.3246520147792321e-01 2.8633296217508353e-01 0.0000000000000000e+00  1.3188664111240808e-01 2.9125423061608741e-01 0.0000000000000000e+00  1.3233777503445235e-01 2.9589969780049852e-01 0.0000000000000000e+00  1.3180285783323670e-01 3.0055336228658946e-01 0.0000000000000000e+00  1.3220649267512541e-01 3.0546844316702770e-01 0.0000000000000000e+00  1.3171480305123315e-01 3.0988691804216500e-01 0.0000000000000000e+00  1.3207246880604909e-01 3.1503492750088002e-01 0.0000000000000000e+00  1.3162143421325662e-01 3.1925908788357066e-01 0.0000000000000000e+00  1.3193663438440842e-01 3.2459612088997680e-01 0.0000000000000000e+00  1.3152201128739108e-01 3.2867193705576730e-01 0.0000000000000000e+00  1.3179968470391074e-01 3.3415034466770721e-01 0.0000000000000000e+00  1.3141616349327026e-01 3.3812511293165226e-01 0.0000000000000000e+00  1.3166203924028472e-01 3.4369742419585259e-01 0.0000000000000000e+00  1.3130386451598761e-01 3.4761618787343068e-01 0.0000000000000000e+00  1.3152382044388491e-01 3.5323883079259660e-01 0.0000000000000000e+00  1.3118535355560981e-01 3.5714132797066145e-01 0.0000000000000000e+00  1.3138488935405332e-01 3.6277745390983374e-01 0.0000000000000000e+00  1.3106106380580393e-01 3.6669579708739597e-01 0.0000000000000000e+00  1.3124495344195278e-01 3.7231682065732669e-01 0.0000000000000000e+00  1.3093158435984215e-01 3.7627412174812153e-01 0.0000000000000000e+00  1.3110371435168722e-01 3.8185999251374814e-01 0.0000000000000000e+00  1.3079764183399475e-01 3.8587007909188331e-01 0.0000000000000000e+00  1.3096099610782466e-01 3.9140861613657341e-01 0.0000000000000000e+00  1.3066005718315216e-01 3.9547692223651543e-01 0.0000000000000000e+00  1.3081677737899650e-01 4.0096276986717549e-01 0.0000000000000000e+00  1.3051962724888597e-01 4.0508829326408979e-01 0.0000000000000000e+00  1.3067111151030064e-01 4.1052174366994337e-01 0.0000000000000000e+00  1.3037699654018853e-01 4.1469925777227423e-01 0.0000000000000000e+00  1.3052408163072210e-01 4.2008448371322726e-01 0.0000000000000000e+00  1.3023269173028659e-01 4.2430595924062653e-01 0.0000000000000000e+00  1.3037591539982255e-01 4.2964863131223868e-01 0.0000000000000000e+00  1.3008729529470633e-01 4.3390408548200843e-01 0.0000000000000000e+00  1.3022710210767108e-01 4.3920952712712924e-01 0.0000000000000000e+00  1.2994151885013863e-01 4.4348821359521401e-01 0.0000000000000000e+00  1.3007834112080352e-01 4.4876067098085404e-01 0.0000000000000000e+00  1.2979613178414320e-01 4.5305241522138978e-01 0.0000000000000000e+00  1.2993040564112227e-01 4.5829491481068224e-01 0.0000000000000000e+00  1.2965184023861415e-01 4.6259129701216783e-01 0.0000000000000000e+00  1.2978396554992069e-01 4.6780601133464289e-01 0.0000000000000000e+00  1.2950913931006020e-01 4.7210127790342965e-01 0.0000000000000000e+00  1.2963950949696551e-01 4.7728930026707117e-01 0.0000000000000000e+00  1.2936846351690817e-01 4.8157927687819535e-01 0.0000000000000000e+00  1.2949772083857050e-01 4.8673844604921662e-01 0.0000000000000000e+00  1.2923066816251569e-01 4.9101852288731734e-01 0.0000000000000000e+00  1.2935973550348298e-01 4.9614319746244501e-01 0.0000000000000000e+00  1.2909681835707323e-01 5.0041038803727189e-01 0.0000000000000000e+00  1.2922645135930644e-01 5.0549540101041612e-01 0.0000000000000000e+00  1.2896740164635159e-01 5.0975124258183935e-01 0.0000000000000000e+00  1.2909812834509010e-01 5.1479248704365932e-01 0.0000000000000000e+00  1.2884260052969837e-01 5.1904008207192354e-01 0.0000000000000000e+00  1.2897509249974792e-01 5.2403134012263963e-01 0.0000000000000000e+00  1.2872292708054817e-01 5.2827299577129949e-01 0.0000000000000000e+00  1.2885789681560841e-01 5.3320690008717841e-01 0.0000000000000000e+00  1.2860903681107513e-01 5.3744478586058420e-01 0.0000000000000000e+00  1.2874715055777453e-01 5.4231365313422497e-01 0.0000000000000000e+00  1.2850172716081440e-01 5.4654897666487612e-01 0.0000000000000000e+00  1.2864329080899042e-01 5.5134763108447071e-01 0.0000000000000000e+00  1.2840106259379189e-01 5.5558544850316038e-01 0.0000000000000000e+00  1.2854544135922749e-01 5.6031637813660473e-01 0.0000000000000000e+00  1.2830618848068653e-01 5.6456205490610323e-01 0.0000000000000000e+00  1.2845319135757455e-01 5.6922342041420115e-01 0.0000000000000000e+00  1.2821815970963299e-01 5.7346990969392031e-01 0.0000000000000000e+00  1.2836800618607530e-01 5.7805595313013791e-01 0.0000000000000000e+00  1.2813784615538021e-01 5.8230169066877413e-01 0.0000000000000000e+00  1.2828892984893814e-01 5.8682240686979525e-01 0.0000000000000000e+00  1.2806324431891689e-01 5.9107512055912059e-01 0.0000000000000000e+00  1.2821458619575077e-01 5.9553494742850699e-01 0.0000000000000000e+00  1.2799446677576418e-01 5.9978933026283421e-01 0.0000000000000000e+00  1.2814625347807426e-01 6.0418261010577645e-01 0.0000000000000000e+00  1.2793194148606268e-01 6.0844061564281893e-01 0.0000000000000000e+00  1.2808366049472095e-01 6.1276808186711262e-01 0.0000000000000000e+00  1.2787481213180657e-01 6.1703641504979068e-01 0.0000000000000000e+00  1.2802664829700519e-01 6.2129315952950304e-01 0.0000000000000000e+00  1.2782224125826916e-01 6.2558390546929166e-01 0.0000000000000000e+00  1.2797354523124074e-01 6.2977297403398091e-01 0.0000000000000000e+00  1.2777292599562193e-01 6.3409422822740469e-01 0.0000000000000000e+00  1.2792570139815315e-01 6.3819628308266052e-01 0.0000000000000000e+00  1.2773015990352335e-01 6.4253820422137409e-01 0.0000000000000000e+00  1.2788364160018101e-01 6.4655918244216704e-01 0.0000000000000000e+00  1.2768957825217697e-01 6.5095365511967140e-01 0.0000000000000000e+00  1.2784215476738356e-01 6.5490802719855534e-01 0.0000000000000000e+00  1.2765199086355067e-01 6.5933297595279572e-01 0.0000000000000000e+00  1.2780745974903568e-01 6.6318908992045544e-01 0.0000000000000000e+00  1.2762049900915856e-01 6.6764852313070688e-01 0.0000000000000000e+00  1.2777487289464004e-01 6.7144420225874824e-01 0.0000000000000000e+00  1.2758865612815620e-01 6.7595626880352189e-01 0.0000000000000000e+00  1.2774498486524111e-01 6.7966889070927250e-01 0.0000000000000000e+00  1.2756147357700651e-01 6.8421182327246399e-01 0.0000000000000000e+00  1.2771885483965489e-01 6.8785456782949173e-01 0.0000000000000000e+00  1.2753546712303965e-01 6.9244533218698745e-01 0.0000000000000000e+00  1.2769614877171562e-01 6.9600474337051954e-01 0.0000000000000000e+00  1.2751305791587744e-01 7.0063527404331583e-01 0.0000000000000000e+00  1.2767410428724985e-01 7.0414412406500027e-01 0.0000000000000000e+00  1.2748845185389898e-01 7.0883221877848279e-01 0.0000000000000000e+00  1.2765668103395833e-01 7.1223831733237852e-01 0.0000000000000000e+00  1.2747245048657516e-01 7.1694142052157517e-01 0.0000000000000000e+00  1.2764133817915543e-01 7.2030990134615769e-01 0.0000000000000000e+00  1.2744839065747809e-01 7.2510900430141556e-01 0.0000000000000000e+00  1.2762555698772679e-01 7.2838097889811670e-01 0.0000000000000000e+00  1.2743557023927607e-01 7.3316588720739984e-01 0.0000000000000000e+00  1.2761703130984026e-01 7.3638418608805212e-01 0.0000000000000000e+00  1.2741431477769957e-01 7.4128487077639471e-01 0.0000000000000000e+00  1.2760425580045337e-01 7.4442025052170602e-01 0.0000000000000000e+00  1.2740193173167608e-01 7.4931442341899601e-01 0.0000000000000000e+00  1.2759784226135576e-01 7.5239603359017249e-01 0.0000000000000000e+00  1.2738300606585670e-01 7.5739010995655753e-01 0.0000000000000000e+00  1.2759236011175240e-01 7.6035893205509719e-01 0.0000000000000000e+00  1.2737223982122853e-01 7.6538334911562478e-01 0.0000000000000000e+00  1.2758317276522729e-01 7.6834947696058509e-01 0.0000000000000000e+00  1.2735365465943183e-01 7.7343457582798580e-01 0.0000000000000000e+00  1.2758760571511280e-01 7.7621545840144568e-01 0.0000000000000000e+00  1.2734477346740727e-01 7.8139056176939659e-01 0.0000000000000000e+00  1.2757307623926867e-01 7.8424257689372223e-01 0.0000000000000000e+00  1.2732899948497628e-01 7.8939700771254495e-01 0.0000000000000000e+00  1.2758616780016788e-01 7.9202200234005471e-01 0.0000000000000000e+00  1.2731694708031091e-01 7.9736134115181589e-01 0.0000000000000000e+00  1.2756936945419520e-01 8.0005812144902100e-01 0.0000000000000000e+00  1.2731156703210647e-01 8.0525770329853030e-01 0.0000000000000000e+00  1.2757929612331600e-01 8.0785419288484017e-01 0.0000000000000000e+00  1.2728996649663016e-01 8.1328738379716536e-01 0.0000000000000000e+00  1.2757461724516292e-01 8.1577254376269281e-01 0.0000000000000000e+00  1.2729619196592531e-01 8.2106419161081412e-01 0.0000000000000000e+00  1.2756195773885401e-01 8.2375507849541374e-01 0.0000000000000000e+00  1.2728214659160406e-01 8.2901027735070443e-01 0.0000000000000000e+00  1.2757985252213569e-01 8.3146342952316987e-01 0.0000000000000000e+00  1.2727168271604886e-01 8.3691696809112637e-01 0.0000000000000000e+00  1.2754806710828848e-01 8.3960125071602609e-01 0.0000000000000000e+00  1.2729842264948349e-01 8.4448932028557233e-01 0.0000000000000000e+00  1.2754660241738106e-01 8.4746669147862985e-01 0.0000000000000000e+00  1.2726321946666358e-01 8.5259775733835563e-01 0.0000000000000000e+00  1.2755379876536188e-01 8.5524904117688760e-01 0.0000000000000000e+00  1.2729105023409568e-01 8.6014633364360604e-01 0.0000000000000000e+00  1.2749959099028871e-01 8.6356310224661514e-01 0.0000000000000000e+00  1.2731820177420333e-01 8.6769405947902922e-01 0.0000000000000000e+00  1.2750325391200212e-01 8.7136211069177394e-01 0.0000000000000000e+00  1.2728534769650296e-01 8.7576223292085531e-01 0.0000000000000000e+00  1.2751774102913732e-01 8.7905819733655088e-01 0.0000000000000000e+00  1.2731218477735326e-01 8.8330114856902064e-01 0.0000000000000000e+00  1.2743715479852788e-01 8.8758044123996027e-01 0.0000000000000000e+00  1.2738677064724763e-01 8.9041534594605298e-01 0.0000000000000000e+00  1.2741575428396143e-01 8.9557558509273893e-01 0.0000000000000000e+00  1.2733176654931444e-01 8.9866149911120941e-01 0.0000000000000000e+00  1.2748138063399753e-01 9.0279852988208331e-01 0.0000000000000000e+00  1.2731089602248441e-01 9.0660367722201174e-01 0.0000000000000000e+00  1.2741514319930958e-01 9.1116978306537177e-01 0.0000000000000000e+00  1.2742585655449001e-01 9.1334900984375211e-01 0.0000000000000000e+00  1.2729233193004896e-01 9.2002935595167945e-01 0.0000000000000000e+00  1.2748418051017824e-01 9.2058614615758050e-01 0.0000000000000000e+00  1.2732300772487590e-01 9.2753432451014006e-01 0.0000000000000000e+00  1.2734795057410694e-01 9.2952603070122231e-01 0.0000000000000000e+00  1.2750083056152789e-01 9.3373946323096579e-01 0.0000000000000000e+00  1.2719613191569512e-01 9.3859864243645552e-01 0.0000000000000000e+00  1.2753432633440789e-01 9.4120205866796303e-01 0.0000000000000000e+00  1.2729796653769290e-01 9.4544098936545173e-01 0.0000000000000000e+00  1.2729927299180169e-01 9.5101327494921684e-01 0.0000000000000000e+00  1.2760217117252390e-01 9.5050180014529861e-01 0.0000000000000000e+00  1.2695992970958708e-01 9.6173247514970606e-01 0.0000000000000000e+00  1.2790964280188688e-01 9.5552791939136938e-01 0.0000000000000000e+00  1.2669980667508760e-01 9.7174993190820769e-01 0.0000000000000000e+00  1.2807109230799837e-01 9.6183003321746641e-01 0.0000000000000000e+00  1.2662363390048723e-01 9.8014643008551039e-01 0.0000000000000000e+00  1.2805214819254121e-01 9.6971044800653516e-01 0.0000000000000000e+00  1.2669170513161518e-01 9.8726956324050452e-01 0.0000000000000000e+00  1.2794515497238507e-01 9.7835909600185900e-01 0.0000000000000000e+00  1.2679968905623124e-01 9.9403449914310815e-01 0.0000000000000000e+00  1.2782690038300190e-01 9.8710218059974775e-01 0.0000000000000000e+00  1.2690570811475615e-01 1.0008086477533884e+00 0.0000000000000000e+00  1.2771602962370709e-01 9.9577618798143497e-01 0.0000000000000000e+00  1.2699548291033616e-01 1.0077172350131534e+00 0.0000000000000000e+00  1.2763028658030318e-01 1.0042255786318619e+00 0.0000000000000000e+00  1.2705199004893911e-01 1.0149096752145690e+00 0.0000000000000000e+00  1.2757696993866965e-01 1.0123863750855777e+00 0.0000000000000000e+00  1.2708176015554551e-01 1.0223287063775810e+00 0.0000000000000000e+00  1.2753961094617763e-01 1.0204031584784963e+00 0.0000000000000000e+00  1.2710333129814647e-01 1.0298116275177576e+00 0.0000000000000000e+00  1.2750534133321914e-01 1.0283889604557945e+00 0.0000000000000000e+00  1.2712098160927210e-01 1.0373209009213862e+00 0.0000000000000000e+00  1.2747703035365232e-01 1.0363186513175158e+00 0.0000000000000000e+00  1.2712847621721446e-01 1.0449113617975792e+00 0.0000000000000000e+00  1.2746016025556992e-01 1.0441440510814333e+00 0.0000000000000000e+00  1.2712336351050840e-01 1.0526047450915732e+00 0.0000000000000000e+00  1.2745351076911249e-01 1.0518757048898000e+00 0.0000000000000000e+00  1.2710955287753586e-01 1.0603670169531407e+00 0.0000000000000000e+00  1.2745200044642141e-01 1.0595579854638257e+00 0.0000000000000000e+00  1.2709201728629005e-01 1.0681548458492680e+00 0.0000000000000000e+00  1.2745167123271206e-01 1.0672253604831110e+00 0.0000000000000000e+00  1.2707335493384139e-01 1.0759457782409958e+00 0.0000000000000000e+00  1.2745252936384269e-01 1.0748774669643555e+00 0.0000000000000000e+00  1.2704796764381895e-01 1.0837893487301244e+00 0.0000000000000000e+00  1.2747667313597039e-01 1.0823200202037033e+00 0.0000000000000000e+00  1.2696578906178010e-01 1.0921256910589763e+00 0.0000000000000000e+00  1.2762517606881232e-01 1.0886655650203552e+00 0.0000000000000000e+00  1.2668582796741165e-01 1.1021945373243005e+00 0.0000000000000000e+00  1.2807505458087312e-01 1.0923610000529957e+00 0.0000000000000000e+00  1.2609476543245954e-01 1.1149961802839914e+00 0.0000000000000000e+00  1.2877904223863393e-01 1.0938227661965740e+00 0.0000000000000000e+00  1.2544918388306239e-01 1.1282810366487908e+00 0.0000000000000000e+00  1.2915793007974516e-01 1.0981263752106176e+00 0.0000000000000000e+00  1.2535280378271804e-01 1.1367343965545538e+00 0.0000000000000000e+00  1.2878500797465059e-01 1.1090089127692162e+00 0.0000000000000000e+00  1.2583335436837037e-01 1.1401045482130405e+00 0.0000000000000000e+00  1.2827523466847338e-01 1.1210862431581181e+00 0.0000000000000000e+00  1.2614481486087606e-01 1.1449589887279019e+00 0.0000000000000000e+00  1.2808939823249949e-01 1.1303157544392763e+00 0.0000000000000000e+00  1.2633260396666296e-01 1.1509023531849951e+00 0.0000000000000000e+00  1.2772379083366200e-01 1.1411102025944375e+00 0.0000000000000000e+00  1.2684087737009331e-01 1.1540328227002310e+00 0.0000000000000000e+00  1.2703855682065890e-01 1.1546970776525345e+00 0.0000000000000000e+00  1.2768159095039536e-01 1.1542575309308654e+00 0.0000000000000000e+00  1.2590593574686329e-01 1.1722037442391193e+00 0.0000000000000000e+00  1.2925810398933207e-01 1.1480673323610773e+00 0.0000000000000000e+00  1.2392462331074199e-01 1.1971881636699229e+00 0.0000000000000000e+00  1.3186881075627666e-01 1.1329216272618552e+00 0.0000000000000000e+00  1.2118714867858722e-01 1.2288990232684414e+00 0.0000000000000000e+00  1.3522050865941115e-01 1.1114884330367749e+00 0.0000000000000000e+00  1.1827377648253155e-01 1.2622418934938671e+00 0.0000000000000000e+00  1.3826491976061547e-01 1.0929380224976633e+00 0.0000000000000000e+00  1.1635693614527329e-01 1.2866740960399958e+00 0.0000000000000000e+00  1.3871174823952379e-01 1.0970618017805895e+00 0.0000000000000000e+00  1.1768033808448179e-01 1.2818573054970559e+00 0.0000000000000000e+00  1.3364519746863485e-01 1.1492632784732915e+00 0.0000000000000000e+00  1.2448535696546503e-01 1.2280629758660446e+00 0.0000000000000000e+00  1.247842