<?xml version="1.0"?>
<VTKFile type="UnstructuredGrid"  version="0.1"  >
<UnstructuredGrid>
<Piece  NumberOfPoints="801" NumberOfCells="800">
<Points>
<DataArray  type="Float64"  NumberOfComponents="3"  format="ascii">-5 0 0  -4.9875 0 0  -4.975 0 0  -4.9625 0 0  -4.95 0 0  -4.9375 0 0  -4.925 0 0  -4.9125 0 0  -4.9 0 0  -4.8875 0 0  -4.875 0 0  -4.8625 0 0  -4.85 0 0  -4.8375 0 0  -4.825 0 0  -4.8125 0 0  -4.8 0 0  -4.7875 0 0  -4.775 0 0  -4.7625 0 0  -4.75 0 0  -4.7375 0 0  -4.725 0 0  -4.7125 0 0  -4.7 0 0  -4.6875 0 0  -4.675 0 0  -4.6625 0 0  -4.65 0 0  -4.6375 0 0  -4.625 0 0  -4.6125 0 0  -4.6 0 0  -4.5875 0 0  -4.575 0 0  -4.5625 0 0  -4.55 0 0  -4.5375 0 0  -4.525 0 0  -4.5125 0 0  -4.5 0 0  -4.4875 0 0  -4.475 0 0  -4.4625 0 0  -4.45 0 0  -4.4375 0 0  -4.425 0 0  -4.4125 0 0  -4.4 0 0  -4.3875 0 0  -4.375 0 0  -4.3625 0 0  -4.35 0 0  -4.3375 0 0  -4.325 0 0  -4.3125 0 0  -4.3 0 0  -4.2875 0 0  -4.275 0 0  -4.2625 0 0  -4.25 0 0  -4.2375 0 0  -4.225 0 0  -4.2125 0 0  -4.2 0 0  -4.1875 0 0  -4.175 0 0  -4.1625 0 0  -4.15 0 0  -4.1375 0 0  -4.125 0 0  -4.1125 0 0  -4.1 0 0  -4.0875 0 0  -4.075 0 0  -4.0625 0 0  -4.05 0 0  -4.0375 0 0  -4.025 0 0  -4.0125 0 0  -4 0 0  -3.9875 0 0  -3.975 0 0  -3.9625 0 0  -3.95 0 0  -3.9375 0 0  -3.925 0 0  -3.9125 0 0  -3.9 0 0  -3.8875 0 0  -3.875 0 0  -3.8625 0 0  -3.85 0 0  -3.8375 0 0  -3.825 0 0  -3.8125 0 0  -3.8 0 0  -3.7875 0 0  -3.775 0 0  -3.7625 0 0  -3.75 0 0  -3.7375 0 0  -3.725 0 0  -3.7125 0 0  -3.7 0 0  -3.6875 0 0  -3.675 0 0  -3.6625 0 0  -3.65 0 0  -3.6375 0 0  -3.625 0 0  -3.6125 0 0  -3.6 0 0  -3.5875 0 0  -3.575 0 0  -3.5625 0 0  -3.55 0 0  -3.5375 0 0  -3.525 0 0  -3.5125 0 0  -3.5 0 0  -3.4875 0 0  -3.475 0 0  -3.4625 0 0  -3.45 0 0  -3.4375 0 0  -3.425 0 0  -3.4125 0 0  -3.4 0 0  -3.3875 0 0  -3.375 0 0  -3.3625 0 0  -3.35 0 0  -3.3375 0 0  -3.325 0 0  -3.3125 0 0  -3.3 0 0  -3.2875 0 0  -3.275 0 0  -3.2625 0 0  -3.25 0 0  -3.2375 0 0  -3.225 0 0  -3.2125 0 0  -3.2 0 0  -3.1875 0 0  -3.175 0 0  -3.1625 0 0  -3.15 0 0  -3.1375 0 0  -3.125 0 0  -3.1125 0 0  -3.1 0 0  -3.0875 0 0  -3.075 0 0  -3.0625 0 0  -3.05 0 0  -3.0375 0 0  -3.025 0 0  -3.0125 0 0  -3 0 0  -2.9875 0 0  -2.975 0 0  -2.9625 0 0  -2.95 0 0  -2.9375 0 0  -2.925 0 0  -2.9125 0 0  -2.9 0 0  -2.8875 0 0  -2.875 0 0  -2.8625 0 0  -2.85 0 0  -2.8375 0 0  -2.825 0 0  -2.8125 0 0  -2.8 0 0  -2.7875 0 0  -2.775 0 0  -2.7625 0 0  -2.75 0 0  -2.7375 0 0  -2.725 0 0  -2.7125 0 0  -2.7 0 0  -2.6875 0 0  -2.675 0 0  -2.6625 0 0  -2.65 0 0  -2.6375 0 0  -2.625 0 0  -2.6125 0 0  -2.6 0 0  -2.5875 0 0  -2.575 0 0  -2.5625 0 0  -2.55 0 0  -2.5375 0 0  -2.525 0 0  -2.5125 0 0  -2.5 0 0  -2.4875 0 0  -2.475 0 0  -2.4625 0 0  -2.45 0 0  -2.4375 0 0  -2.425 0 0  -2.4125 0 0  -2.4 0 0  -2.3875 0 0  -2.375 0 0  -2.3625 0 0  -2.35 0 0  -2.3375 0 0  -2.325 0 0  -2.3125 0 0  -2.3 0 0  -2.2875 0 0  -2.275 0 0  -2.2625 0 0  -2.25 0 0  -2.2375 0 0  -2.225 0 0  -2.2125 0 0  -2.2 0 0  -2.1875 0 0  -2.175 0 0  -2.1625 0 0  -2.15 0 0  -2.1375 0 0  -2.125 0 0  -2.1125 0 0  -2.1 0 0  -2.0875 0 0  -2.075 0 0  -2.0625 0 0  -2.05 0 0  -2.0375 0 0  -2.025 0 0  -2.0125 0 0  -2 0 0  -1.9875 0 0  -1.975 0 0  -1.9625 0 0  -1.95 0 0  -1.9375 0 0  -1.925 0 0  -1.9125 0 0  -1.9 0 0  -1.8875 0 0  -1.875 0 0  -1.8625 0 0  -1.85 0 0  -1.8375 0 0  -1.825 0 0  -1.8125 0 0  -1.8 0 0  -1.7875 0 0  -1.775 0 0  -1.7625 0 0  -1.75 0 0  -1.7375 0 0  -1.725 0 0  -1.7125 0 0  -1.7 0 0  -1.6875 0 0  -1.675 0 0  -1.6625 0 0  -1.65 0 0  -1.6375 0 0  -1.625 0 0  -1.6125 0 0  -1.6 0 0  -1.5875 0 0  -1.575 0 0  -1.5625 0 0  -1.55 0 0  -1.5375 0 0  -1.525 0 0  -1.5125 0 0  -1.5 0 0  -1.4875 0 0  -1.475 0 0  -1.4625 0 0  -1.45 0 0  -1.4375 0 0  -1.425 0 0  -1.4125 0 0  -1.4 0 0  -1.3875 0 0  -1.375 0 0  -1.3625 0 0  -1.35 0 0  -1.3375 0 0  -1.325 0 0  -1.3125 0 0  -1.3 0 0  -1.2875 0 0  -1.275 0 0  -1.2625 0 0  -1.25 0 0  -1.2375 0 0  -1.225 0 0  -1.2125 0 0  -1.2 0 0  -1.1875 0 0  -1.175 0 0  -1.1625 0 0  -1.15 0 0  -1.1375 0 0  -1.125 0 0  -1.1125 0 0  -1.1 0 0  -1.0875 0 0  -1.075 0 0  -1.0625 0 0  -1.05 0 0  -1.0375 0 0  -1.025 0 0  -1.0125 0 0  -1 0 0  -0.9874999999999998 0 0  -0.9749999999999996 0 0  -0.9625000000000004 0 0  -0.9500000000000002 0 0  -0.9375 0 0  -0.9249999999999998 0 0  -0.9124999999999996 0 0  -0.9000000000000004 0 0  -0.8875000000000002 0 0  -0.875 0 0  -0.8624999999999998 0 0  -0.8499999999999996 0 0  -0.8375000000000004 0 0  -0.8250000000000002 0 0  -0.8125 0 0  -0.7999999999999998 0 0  -0.7874999999999996 0 0  -0.7750000000000004 0 0  -0.7625000000000002 0 0  -0.75 0 0  -0.7374999999999998 0 0  -0.7249999999999996 0 0  -0.7125000000000004 0 0  -0.7000000000000002 0 0  -0.6875 0 0  -0.6749999999999998 0 0  -0.6624999999999996 0 0  -0.6500000000000004 0 0  -0.6375000000000002 0 0  -0.625 0 0  -0.6124999999999998 0 0  -0.5999999999999996 0 0  -0.5875000000000004 0 0  -0.5750000000000002 0 0  -0.5625 0 0  -0.5499999999999998 0 0  -0.5374999999999996 0 0  -0.5250000000000004 0 0  -0.5125000000000002 0 0  -0.5 0 0  -0.4874999999999998 0 0  -0.4749999999999996 0 0  -0.4625000000000004 0 0  -0.4500000000000002 0 0  -0.4375 0 0  -0.4249999999999998 0 0  -0.4124999999999996 0 0  -0.4000000000000004 0 0  -0.3875000000000002 0 0  -0.375 0 0  -0.3624999999999998 0 0  -0.3499999999999996 0 0  -0.3375000000000004 0 0  -0.3250000000000002 0 0  -0.3125 0 0  -0.2999999999999998 0 0  -0.2874999999999996 0 0  -0.2750000000000004 0 0  -0.2625000000000002 0 0  -0.25 0 0  -0.2374999999999998 0 0  -0.2249999999999996 0 0  -0.2125000000000004 0 0  -0.2000000000000002 0 0  -0.1875 0 0  -0.1749999999999998 0 0  -0.1624999999999996 0 0  -0.1500000000000004 0 0  -0.1375000000000002 0 0  -0.125 0 0  -0.1124999999999998 0 0  -0.09999999999999964 0 0  -0.08750000000000036 0 0  -0.07500000000000018 0 0  -0.0625 0 0  -0.04999999999999982 0 0  -0.03749999999999964 0 0  -0.02500000000000036 0 0  -0.01250000000000018 0 0  0 0 0  0.01250000000000018 0 0  0.02500000000000036 0 0  0.03749999999999964 0 0  0.04999999999999982 0 0  0.0625 0 0  0.07500000000000018 0 0  0.08750000000000036 0 0  0.09999999999999964 0 0  0.1124999999999998 0 0  0.125 0 0  0.1375000000000002 0 0  0.1500000000000004 0 0  0.1624999999999996 0 0  0.1749999999999998 0 0  0.1875 0 0  0.2000000000000002 0 0  0.2125000000000004 0 0  0.2249999999999996 0 0  0.2374999999999998 0 0  0.25 0 0  0.2625000000000002 0 0  0.2750000000000004 0 0  0.2874999999999996 0 0  0.2999999999999998 0 0  0.3125 0 0  0.3250000000000002 0 0  0.3375000000000004 0 0  0.3499999999999996 0 0  0.3624999999999998 0 0  0.375 0 0  0.3875000000000002 0 0  0.4000000000000004 0 0  0.4124999999999996 0 0  0.4249999999999998 0 0  0.4375 0 0  0.4500000000000002 0 0  0.4625000000000004 0 0  0.4749999999999996 0 0  0.4874999999999998 0 0  0.5 0 0  0.5125000000000002 0 0  0.5250000000000004 0 0  0.5374999999999996 0 0  0.5499999999999998 0 0  0.5625 0 0  0.5750000000000002 0 0  0.5875000000000004 0 0  0.5999999999999996 0 0  0.6124999999999998 0 0  0.625 0 0  0.6375000000000002 0 0  0.6500000000000004 0 0  0.6624999999999996 0 0  0.6749999999999998 0 0  0.6875 0 0  0.7000000000000002 0 0  0.7125000000000004 0 0  0.7249999999999996 0 0  0.7374999999999998 0 0  0.75 0 0  0.7625000000000002 0 0  0.7750000000000004 0 0  0.7874999999999996 0 0  0.7999999999999998 0 0  0.8125 0 0  0.8250000000000002 0 0  0.8375000000000004 0 0  0.8499999999999996 0 0  0.8624999999999998 0 0  0.875 0 0  0.8875000000000002 0 0  0.9000000000000004 0 0  0.9124999999999996 0 0  0.9249999999999998 0 0  0.9375 0 0  0.9500000000000002 0 0  0.9625000000000004 0 0  0.9749999999999996 0 0  0.9874999999999998 0 0  1 0 0  1.0125 0 0  1.025 0 0  1.0375 0 0  1.05 0 0  1.0625 0 0  1.075 0 0  1.0875 0 0  1.1 0 0  1.1125 0 0  1.125 0 0  1.1375 0 0  1.15 0 0  1.1625 0 0  1.175 0 0  1.1875 0 0  1.2 0 0  1.2125 0 0  1.225 0 0  1.2375 0 0  1.25 0 0  1.2625 0 0  1.275 0 0  1.2875 0 0  1.3 0 0  1.3125 0 0  1.325 0 0  1.3375 0 0  1.35 0 0  1.3625 0 0  1.375 0 0  1.3875 0 0  1.4 0 0  1.4125 0 0  1.425 0 0  1.4375 0 0  1.45 0 0  1.4625 0 0  1.475 0 0  1.4875 0 0  1.5 0 0  1.5125 0 0  1.525 0 0  1.5375 0 0  1.55 0 0  1.5625 0 0  1.575 0 0  1.5875 0 0  1.6 0 0  1.6125 0 0  1.625 0 0  1.6375 0 0  1.65 0 0  1.6625 0 0  1.675 0 0  1.6875 0 0  1.7 0 0  1.7125 0 0  1.725 0 0  1.7375 0 0  1.75 0 0  1.7625 0 0  1.775 0 0  1.7875 0 0  1.8 0 0  1.8125 0 0  1.825 0 0  1.8375 0 0  1.85 0 0  1.8625 0 0  1.875 0 0  1.8875 0 0  1.9 0 0  1.9125 0 0  1.925 0 0  1.9375 0 0  1.95 0 0  1.9625 0 0  1.975 0 0  1.9875 0 0  2 0 0  2.0125 0 0  2.025 0 0  2.0375 0 0  2.05 0 0  2.0625 0 0  2.075 0 0  2.0875 0 0  2.1 0 0  2.1125 0 0  2.125 0 0  2.1375 0 0  2.15 0 0  2.1625 0 0  2.175 0 0  2.1875 0 0  2.2 0 0  2.2125 0 0  2.225 0 0  2.2375 0 0  2.25 0 0  2.2625 0 0  2.275 0 0  2.2875 0 0  2.3 0 0  2.3125 0 0  2.325 0 0  2.3375 0 0  2.35 0 0  2.3625 0 0  2.375 0 0  2.3875 0 0  2.4 0 0  2.4125 0 0  2.425 0 0  2.4375 0 0  2.45 0 0  2.4625 0 0  2.475 0 0  2.4875 0 0  2.5 0 0  2.5125 0 0  2.525 0 0  2.5375 0 0  2.55 0 0  2.5625 0 0  2.575 0 0  2.5875 0 0  2.6 0 0  2.6125 0 0  2.625 0 0  2.6375 0 0  2.65 0 0  2.6625 0 0  2.675 0 0  2.6875 0 0  2.7 0 0  2.7125 0 0  2.725 0 0  2.7375 0 0  2.75 0 0  2.7625 0 0  2.775 0 0  2.7875 0 0  2.8 0 0  2.8125 0 0  2.825 0 0  2.8375 0 0  2.85 0 0  2.8625 0 0  2.875 0 0  2.8875 0 0  2.9 0 0  2.9125 0 0  2.925 0 0  2.9375 0 0  2.95 0 0  2.9625 0 0  2.975 0 0  2.9875 0 0  3 0 0  3.012499999999999 0 0  3.025 0 0  3.0375 0 0  3.050000000000001 0 0  3.0625 0 0  3.074999999999999 0 0  3.0875 0 0  3.1 0 0  3.112500000000001 0 0  3.125 0 0  3.137499999999999 0 0  3.15 0 0  3.1625 0 0  3.175000000000001 0 0  3.1875 0 0  3.199999999999999 0 0  3.2125 0 0  3.225 0 0  3.237500000000001 0 0  3.25 0 0  3.262499999999999 0 0  3.275 0 0  3.2875 0 0  3.300000000000001 0 0  3.3125 0 0  3.324999999999999 0 0  3.3375 0 0  3.35 0 0  3.362500000000001 0 0  3.375 0 0  3.387499999999999 0 0  3.4 0 0  3.4125 0 0  3.425000000000001 0 0  3.4375 0 0  3.449999999999999 0 0  3.4625 0 0  3.475 0 0  3.4875
[...]
<PointData  Vectors="(h, u)"> 
<DataArray  type="Float64"  Name="(h, u)"  NumberOfComponents="3" format="ascii">1.7020414062368486e-01 0.0000000000000000e+00 0.0000000000000000e+00  1.6994250196904181e-01 5.4146391867720030e-03 0.0000000000000000e+00  1.7020243310930894e-01 1.0865694335900435e-02 0.0000000000000000e+00  1.6993802724591503e-01 1.6244245985524940e-02 0.0000000000000000e+00  1.7019729648480175e-01 2.1732115593710941e-02 0.0000000000000000e+00  1.6992905775498326e-01 2.7074773363359259e-02 0.0000000000000000e+00  1.7018872415363084e-01 3.2599933793727678e-02 0.0000000000000000e+00  1.6991559746805415e-01 3.7906711873876446e-02 0.0000000000000000e+00  1.7017673130574901e-01 4.3469849781625956e-02 0.0000000000000000e+00  1.6989764969137955e-01 4.8740588572675908e-02 0.0000000000000000e+00  1.7016130633694451e-01 5.4342723273243305e-02 0.0000000000000000e+00  1.6987518747634472e-01 5.9576993734436666e-02 0.0000000000000000e+00  1.7014242201643839e-01 6.5219404796795624e-02 0.0000000000000000e+00  1.6984820142702384e-01 7.0416374852017335e-02 0.0000000000000000e+00  1.7012007954745412e-01 7.6100562927249371e-02 0.0000000000000000e+00  1.6981670346541133e-01 8.1259156111466765e-02 0.0000000000000000e+00  1.7009426515203255e-01 8.6986954183699006e-02 0.0000000000000000e+00  1.6978066868464994e-01 9.2106057201609387e-02 0.0000000000000000e+00  1.7006492708751525e-01 9.7879445236090018e-02 0.0000000000000000e+00  1.6974006910287986e-01 1.0295779800133824e-01 0.0000000000000000e+00  1.7003204361755805e-01 1.0877857337751418e-01 0.0000000000000000e+00  1.6969491814947477e-01 1.1381486806483711e-01 0.0000000000000000e+00  1.6999560283046694e-01 1.1968480103006240e-01 0.0000000000000000e+00  1.6964519532136207e-01 1.2467806411626674e-01 0.0000000000000000e+00  1.6995553313328204e-01 1.3059898820474417e-01 0.0000000000000000e+00  1.6959084494485574e-01 1.3554838106906131e-01 0.0000000000000000e+00  1.6991178023265699e-01 1.4152179389172981e-01 0.0000000000000000e+00  1.6953187090186947e-01 1.4642630698138318e-01 0.0000000000000000e+00  1.6986433678524079e-01 1.5245353811635615e-01 0.0000000000000000e+00  1.6946826339878057e-01 1.5731243408559697e-01 0.0000000000000000e+00  1.6981312126316597e-01 1.6339512887892726e-01 0.0000000000000000e+00  1.6939993189204405e-01 1.6820793719119967e-01 0.0000000000000000e+00  1.6975803665429554e-01 1.7434754049593582e-01 0.0000000000000000e+00  1.6932685176039072e-01 1.7911344898576392e-01 0.0000000000000000e+00  1.6969908195728514e-01 1.8531094929746150e-01 0.0000000000000000e+00  1.6924903225828680e-01 1.9002937502159287e-01 0.0000000000000000e+00  1.6963618227712518e-01 1.9628604238426717e-01 0.0000000000000000e+00  1.6916635083647194e-01 2.0095719644262741e-01 0.0000000000000000e+00  1.6956917897042897e-01 2.0727405778775426e-01 0.0000000000000000e+00  1.6907873847337104e-01 2.1189804044187008e-01 0.0000000000000000e+00  1.6949805940404675e-01 2.1827500520982179e-01 0.0000000000000000e+00  1.6898624667369833e-01 2.2285216344958439e-01 0.0000000000000000e+00  1.6942276786973159e-01 2.2928913851111546e-01 0.0000000000000000e+00  1.6888874122742362e-01 2.3382128908885019e-01 0.0000000000000000e+00  1.6934306090760584e-01 2.4031810347524460e-01 0.0000000000000000e+00  1.6878608018208072e-01 2.4480722274438069e-01 0.0000000000000000e+00  1.6925889795174484e-01 2.5136198280163669e-01 0.0000000000000000e+00  1.6867836232736141e-01 2.5580990845274687e-01 0.0000000000000000e+00  1.6917028932703343e-01 2.6242047670247198e-01 0.0000000000000000e+00  1.6856544236777918e-01 2.6683109835750274e-01 0.0000000000000000e+00  1.6907690913320764e-01 2.7349588603300301e-01 0.0000000000000000e+00  1.6844703698620467e-01 2.7787354731092084e-01 0.0000000000000000e+00  1.6897868347393635e-01 2.8458864265778044e-01 0.0000000000000000e+00  1.6832329054967651e-01 2.8893670410790107e-01 0.0000000000000000e+00  1.6887575481475925e-01 2.9569756461636176e-01 0.0000000000000000e+00  1.6819406100658427e-01 3.0002215774450547e-01 0.0000000000000000e+00  1.6876768736182254e-01 3.0682589241644853e-01 0.0000000000000000e+00  1.6805885122496239e-01 3.1113418237693252e-01 0.0000000000000000e+00  1.6865433510290306e-01 3.1797465742643749e-01 0.0000000000000000e+00  1.6791789879179603e-01 3.2227145508320731e-01 0.0000000000000000e+00  1.6853604869776065e-01 3.2914109505540728e-01 0.0000000000000000e+00  1.6777110259898348e-01 3.3343525656444034e-01 0.0000000000000000e+00  1.6841219908352550e-01 3.4032989339624969e-01 0.0000000000000000e+00  1.6761763784199912e-01 3.4463241115057203e-01 0.0000000000000000e+00  1.6828252620260614e-01 3.5154287994867051e-01 0.0000000000000000e+00  1.6745794585357077e-01 3.5586011104519483e-01 0.0000000000000000e+00  1.6814773394102167e-01 3.6277447870209306e-01 0.0000000000000000e+00  1.6729198584669430e-01 3.6711928573339686e-01 0.0000000000000000e+00  1.6800682190327482e-01 3.7403209155023370e-01 0.0000000000000000e+00  1.6711840270203401e-01 3.7842096149807314e-01 0.0000000000000000e+00  1.6785941458544035e-01 3.8531827855883244e-01 0.0000000000000000e+00  1.6693810002389048e-01 3.8975894621536084e-01 0.0000000000000000e+00  1.6770681792088624e-01 3.9662269071623651e-01 0.0000000000000000e+00  1.6675103273894865e-01 4.0113435082230148e-01 0.0000000000000000e+00  1.6754726913906845e-01 4.0795843716854402e-01 0.0000000000000000e+00  1.6655500093893466e-01 4.1256480360058312e-01 0.0000000000000000e+00  1.6738044722472969e-01 4.1932755136136113e-01 0.0000000000000000e+00  1.6635193599860107e-01 4.2403634038627830e-01 0.0000000000000000e+00  1.6720861098251877e-01 4.3071224765359073e-01 0.0000000000000000e+00  1.6614143749179752e-01 4.3555296988226511e-01 0.0000000000000000e+00  1.6702842355905778e-01 4.4213747555638599e-01 0.0000000000000000e+00  1.6592014349056394e-01 4.4714165452436455e-01 0.0000000000000000e+00  1.6684025135270475e-01 4.5359939215534395e-01 0.0000000000000000e+00  1.6569218150544165e-01 4.5877243920363836e-01 0.0000000000000000e+00  1.6664747677180825e-01 4.6507034811571835e-01 0.0000000000000000e+00  1.6545577503083250e-01 4.7046152361861876e-01 0.0000000000000000e+00  1.6644365867189281e-01 4.7659715294061727e-01 0.0000000000000000e+00  1.6520662757435950e-01 4.8224559729541017e-01 0.0000000000000000e+00  1.6623154745171906e-01 4.8815471214607542e-01 0.0000000000000000e+00  1.6495299637513236e-01 4.9406619593927847e-01 0.0000000000000000e+00  1.6601487144455521e-01 4.9970917062833287e-01 0.0000000000000000e+00  1.6468914486758165e-01 5.0597358442568408e-01 0.0000000000000000e+00  1.6578219135926903e-01 5.1134253812939179e-01 0.0000000000000000e+00  1.6441169608630563e-01 5.1800040638214839e-01 0.0000000000000000e+00  1.6554269129975890e-01 5.2297791036743102e-01 0.0000000000000000e+00  1.6413462252571917e-01 5.3004516734773821e-01 0.0000000000000000e+00  1.6529732710454159e-01 5.3460311788571679e-01 0.0000000000000000e+00  1.6384276865058081e-01 5.4222870830300030e-01 0.0000000000000000e+00  1.6502968118147476e-01 5.4634301544163189e-01 0.0000000000000000e+00  1.6353929124975281e-01 5.5452683069621245e-01 0.0000000000000000e+00  1.6476254209611682e-01 5.5802439516230962e-01 0.0000000000000000e+00  1.6324169406982697e-01 5.6679908211242591e-01 0.0000000000000000e+00  1.6448576885227587e-01 5.6973479323540099e-01 0.0000000000000000e+00  1.6291818066783875e-01 5.7927900988704661e-01 0.0000000000000000e+00  1.6418482121850642e-01 5.8160292224676635e-01 0.0000000000000000e+00  1.6259152980599204e-01 5.9177118060586442e-01 0.0000000000000000e+00  1.6390216515921735e-01 5.9332291362257139e-01 0.0000000000000000e+00  1.6227034776400931e-01 6.0418324635692311e-01 0.0000000000000000e+00  1.6359992508230028e-01 6.0521744379156461e-01 0.0000000000000000e+00  1.6190630068241016e-01 6.1685912729568704e-01 0.0000000000000000e+00  1.6328730167280955e-01 6.1724731388624177e-01 0.0000000000000000e+00  1.6156233645568152e-01 6.2927851720312067e-01 0.0000000000000000e+00  1.6301592053708164e-01 6.2904354412854913e-01 0.0000000000000000e+00  1.6120591138502494e-01 6.4166360052679061e-01 0.0000000000000000e+00  1.6270285983263957e-01 6.4127971047611809e-01 0.0000000000000000e+00  1.6080263801356273e-01 6.5425683883036501e-01 0.0000000000000000e+00  1.6242463432373869e-01 6.5338058615873407e-01 0.0000000000000000e+00  1.6046005036897967e-01 6.6620664568307886e-01 0.0000000000000000e+00  1.6218378493803606e-01 6.6533634655121243e-01 0.0000000000000000e+00  1.6005569960949800e-01 6.7846286542566847e-01 0.0000000000000000e+00  1.6188132177534800e-01 6.7791616378377828e-01 0.0000000000000000e+00  1.5966214705288437e-01 6.9047021385851204e-01 0.0000000000000000e+00  1.6169153768583891e-01 6.8974194722722193e-01 0.0000000000000000e+00  1.5933853892178385e-01 7.0179034299771736e-01 0.0000000000000000e+00  1.6144979797909925e-01 7.0207207654993486e-01 0.0000000000000000e+00  1.5890415244805572e-01 7.1386887696911805e-01 0.0000000000000000e+00  1.6121749408564123e-01 7.1438685866447604e-01 0.0000000000000000e+00  1.5862800140801048e-01 7.2464486797081573e-01 0.0000000000000000e+00  1.6109599990421608e-01 7.2584926441782160e-01 0.0000000000000000e+00  1.5827467607841508e-01 7.3600566064572526e-01 0.0000000000000000e+00  1.6081267505939564e-01 7.3854995548744917e-01 0.0000000000000000e+00  1.5796525361517633e-01 7.4704644128246245e-01 0.0000000000000000e+00  1.6074605065705425e-01 7.4948007826584573e-01 0.0000000000000000e+00  1.5777920097508227e-01 7.5718223215985492e-01 0.0000000000000000e+00  1.6049110595932339e-01 7.6178486585367100e-01 0.0000000000000000e+00  1.5743197301004938e-01 7.6867327376589412e-01 0.0000000000000000e+00  1.6037819054643909e-01 7.7284730928957701e-01 0.0000000000000000e+00  1.5739801359238617e-01 7.7781150977379321e-01 0.0000000000000000e+00  1.6020909777562198e-01 7.8421526698231980e-01 0.0000000000000000e+00  1.5706519873923319e-01 7.8941247344980592e-01 0.0000000000000000e+00  1.6000421503681522e-01 7.9572570269087561e-01 0.0000000000000000e+00  1.5713614999987202e-01 7.9794701185235717e-01 0.0000000000000000e+00  1.5991809107487637e-01 8.0617471503185334e-01 0.0000000000000000e+00  1.5685071275526596e-01 8.0938636821469767e-01 0.0000000000000000e+00  1.5962752260111440e-01 8.1811326544258745e-01 0.0000000000000000e+00  1.5701080636544165e-01 8.1740222613945934e-01 0.0000000000000000e+00  1.5959012398467290e-01 8.2795930778785554e-01 0.0000000000000000e+00  1.5675259837057864e-01 8.2878790955953130e-01 0.0000000000000000e+00  1.5925063811110976e-01 8.4008895120571581e-01 0.0000000000000000e+00  1.5702497969243359e-01 8.3605457635949654e-01 0.0000000000000000e+00  1.5920877102421843e-01 8.4979303904201109e-01 0.0000000000000000e+00  1.5673110403928592e-01 8.4784961779139867e-01 0.0000000000000000e+00  1.5890359217265515e-01 8.6148081417217293e-01 0.0000000000000000e+00  1.5714915484976821e-01 8.5409617009403238e-01 0.0000000000000000e+00  1.5874610480612603e-01 8.7191187941869541e-01 0.0000000000000000e+00  1.5678042827558525e-01 8.6663335298206567e-01 0.0000000000000000e+00  1.5864042658461100e-01 8.8181821117066439e-01 0.0000000000000000e+00  1.5729203629670255e-01 8.7232897059081593e-01 0.0000000000000000e+00  1.5817351059383514e-01 8.9443006024350846e-01 0.0000000000000000e+00  1.5699891579158151e-01 8.8451083479167603e-01 0.0000000000000000e+00  1.5843990493623322e-01 9.0109208599458512e-01 0.0000000000000000e+00  1.5728361221287629e-01 8.9230665629192252e-01 0.0000000000000000e+00  1.5761160300831506e-01 9.1616536599238685e-01 0.0000000000000000e+00  1.5753190505785897e-01 9.0059439596479152e-01 0.0000000000000000e+00  1.5799621308502990e-01 9.2143644775383726e-01 0.0000000000000000e+00  1.5712510336750762e-01 9.1431141175967601e-01 0.0000000000000000e+00  1.5746421882649048e-01 9.3364242156336719e-01 0.0000000000000000e+00  1.5806490808248161e-01 9.1766553210831470e-01 0.0000000000000000e+00  1.5695948102738186e-01 9.4533176450410372e-01 0.0000000000000000e+00  1.5754022508953683e-01 9.3287339588775864e-01 0.0000000000000000e+00  1.5757668785262458e-01 9.4788150865777487e-01 0.0000000000000000e+00  1.5770977216214457e-01 9.4285997606629202e-01 0.0000000000000000e+00  1.5637285429113465e-01 9.6454570383046234e-01 0.0000000000000000e+00  1.5873672190077301e-01 9.4624570653093876e-01 0.0000000000000000e+00  1.5634742827114345e-01 9.7176460076590865e-01 0.0000000000000000e+00  1.5770383784607794e-01 9.6597869044077456e-01 0.0000000000000000e+00  1.5717679710295365e-01 9.7222500980796134e-01 0.0000000000000000e+00  1.5797571103228597e-01 9.7531402400616518e-01 0.0000000000000000e+00  1.5569350563701295e-01 9.9112469645329482e-01 0.0000000000000000e+00  1.5935716875646003e-01 9.7556459832546183e-01 0.0000000000000000e+00  1.5546534585418695e-01 1.0004987383517996e+00 0.0000000000000000e+00  1.5800947138568280e-01 9.9687041159325018e-01 0.0000000000000000e+00  1.5741087751507640e-01 9.9328181347982836e-01 0.0000000000000000e+00  1.5672407682798314e-01 1.0170105479378153e+00 0.0000000000000000e+00  1.5702489965978075e-01 1.0052132699841576e+00 0.0000000000000000e+00  1.5839705044756133e-01 1.0130310443989459e+00 0.0000000000000000e+00  1.5508973158161624e-01 1.0301549767349840e+00 0.0000000000000000e+00  1.5903569287906530e-01 1.0164168437193379e+00 0.0000000000000000e+00  1.5648980180689312e-01 1.0294509456335690e+00 0.0000000000000000e+00  1.5563602669687959e-01 1.0510519585763147e+00 0.0000000000000000e+00  1.6072255363809917e-01 1.0068495047428003e+00 0.0000000000000000e+00  1.5167652168261059e-01 1.0896797841258437e+00 0.0000000000000000e+00  1.6268830793813563e-01 1.0024475618895683e+00 0.0000000000000000e+00  1.5207542575918895e-01 1.0937628093084764e+00 0.0000000000000000e+00  1.5982851824844943e-01 1.0363223251574833e+00 0.0000000000000000e+00  1.5698781533977019e-01 1.0622606350812271e+00 0.0000000000000000e+00  1.5393913232991555e-01 1.0939113654628347e+00 0.0000000000000000e+00  1.6265713082807323e-01 1.0249353999264654e+00 0.0000000000000000e+00  1.4866515668575098e-01 1.1463512573713321e+00 0.0000000000000000e+00  1.6609260137865511e-01 1.0055087589180214e+00 0.0000000000000000e+00  1.4618350447276493e-01 1.1764025469903272e+00 0.0000000000000000e+00  1.6693003554717190e-01 1.0069725111161989e+00 0.0000000000000000e+00  1.4626640698674601e-01 1.1857910340043178e+00 0.0000000000000000e+00  1.6610740866105084e-01 1.0218459772297961e+00 0.0000000000000000e+00  1.4773098042502106e-01 1.1839718317758410e+00 0.0000000000000000e+00  1.6457351277710283e-01 1.0425026072190340e+00 0.0000000000000000e+00  1.4959599838210230e-01 1.1788409961415123e+00 0.0000000000000000e+00  1.6294044644585876e-01 1.0640414081978036e+00 0.0000000000000000e+00  1.5131808749959708e-01 1.1747579853565546e+00 0.0000000000000000e+00  1.6152080247588740e-01 1.0839927109321565e+00 0.0000000000000000e+00  1.5268531527201901e-01 1.1733963110500456e+00 0.0000000000000000e+00  1.6042009172003466e-01 1.1015469149007080e+00 0.0000000000000000e+00  1.5367865812727818e-01 1.1748811606827465e+00 0.0000000000000000e+00  1.5962285955102140e-01 1.1168380859197704e+00 0.0000000000000000e+00  1.5436520732245057e-01 1.1786685414974454e+00 0.0000000000000000e+00  1.5906321614661026e-01 1.1303704345866095e+00 0.0000000000000000e+00  1.5483039282631367e-01 1.1840947712639003e+00 0.0000000000000000e+00  1.5867107013566670e-01 1.1426591032089515e+00 0.0000000000000000e+00  1.5514500979344462e-01 1.1906297373170431e+00 0.0000000000000000e+00  1.5839309212414757e-01 1.1540834542038949e+00 0.0000000000000000e+00  1.5535629953891267e-01 1.1979312685722796e+00 0.0000000000000000e+00  1.5819631987066507e-01 1.1648737529963396e+00 0.0000000000000000e+00  1.5549103150692620e-01 1.2058115361033910e+00 0.0000000000000000e+00  1.5806353255274022e-01 1.1751480122585509e+00 0.0000000000000000e+00  1.5556249553570115e-01 1.2141857466160006e+00 0.0000000000000000e+00  1.5798707104513104e-01 1.1849491098803275e+00 0.0000000000000000e+00  1.5557658199868835e-01 1.2230342807044725e+00 0.0000000000000000e+00  1.5796377897683109e-01 1.1942737252145628e+00 0.0000000000000000e+00  1.5553598492647022e-01 1.2323741980253708e+00 0.0000000000000000e+00  1.5799242452479592e-01 1.2030920726187524e+00 0.0000000000000000e+00  1.5544215585115770e-01 1.2422388120228871e+00 0.0000000000000000e+00  1.5807178009799416e-01 1.2113710182847655e+00 0.0000000000000000e+00  1.5529690741842797e-01 1.2526565452831500e+00 0.0000000000000000e+00  1.5819992402265909e-01 1.2190868796874026e+00 0.0000000000000000e+00  1.5510347016533818e-01 1.2636386515796036e+00 0.0000000000000000e+00  1.5837177909501909e-01 1.2262463415260170e+00 0.0000000000000000e+00  1.5486841290805861e-01 1.2751645460315166e+00 0.0000000000000000e+00  1.5857913475557534e-01 1.2328863902466702e+00 0.0000000000000000e+00  1.5460168722512457e-01 1.2871791214377322e+00 0.0000000000000000e+00  1.5880873840615722e-01 1.2390954478139293e+00 0.0000000000000000e+00  1.5431705920469790e-01 1.2995794671241736e+00 0.0000000000000000e+00  1.5904622123635587e-01 1.2449947786204765e+00 0.0000000000000000e+00  1.5402831513015164e-01 1.3122316736599426e+00 0.0000000000000000e+00  1.5927553785227219e-01 1.2507550077130216e+00 0.0000000000000000e+00  1.5374929932472720e-01 1.3249605908949877e+00 0.0000000000000000e+00  1.5948630254051710e-01 1.2565457498519146e+00 0.0000000000000000e+00  1.5348589583290290e-01 1.3376076378907478e+00 0.0000000000000000e+00  1.5967289496782583e-01 1.2625483771491059e+00 0.0000000000000000e+00  1.5324069703720833e-01 1.3499876241730828e+00 0.0000000000000000e+00  1.5984103532466956e-01 1.2689109830791421e+00 0.0000000000000000e+00  1.5299876776162832e-01 1.3619966024366437e+00 0.0000000000000000e+00  1.6000908537122538e-01 1.2757402654017165e+00 0.0000000000000000e+00  1.5274352305491137e-01 1.3734899778584411e+00 0.0000000000000000e+00  1.6020146410468974e-01 1.2831408662257191e+00 0.0000000000000000e+00  1.5243260722474780e-01 1.3844966572023327e+00 0.0000000000000000e+00  1.6047663060003220e-01 1.2909634341951359e+00 0.0000000000000000e+00  1.5201251837572818e-01 1.3951421169997986e+00 0.0000000000000000e+00  1.6089678038389918e-01 1.2989979221734036e+00 0.0000000000000000e+00  1.5138135372747305e-01 1.4059973106685855e+00 0.0000000000000000e+00  1.6164096760306712e-01 1.3060279770223595e+00 0.0000000000000000e+00  1.5033910578195908e-01 1.4185409861872331e+00 0.0000000000000000e+00  1.6292155117652624e-01 1.3104280242952067e+00 0.0000000000000000e+00  1.4869978888012475e-01 1.4343436480566378e+00 0.0000000000000000e+00  1.6496629616053760e-01 1.3102401220202879e+00 0.0000000000000000e+00  1.4632729590108268e-01 1.4548704456975552e+00 0.0000000000000000e+00  1.6765984963491001e-01 1.3058985364761235e+00 0.0000000000000000e+00  1.4385067715160041e-01 1.4757859958391704e+00 0.0000000000000000e+00  1.6965491970800056e-01 1.3070261032371788e+00 0.0000000000000000e+00  1.4273300782437059e-01 1.4863553268186613e+00 0.0000000000000000e+00  1.6954394112455648e-01 1.3232002211648370e+00 0.0000000000000000e+00  1.4349073989598304e-01 1.4839283919737021e+00 0.0000000000000000e+00  1.6794427168834949e-01 1.3479108041477894e+00 0.0000000000000000e+00  1.4479347185832533e-01 1.4811589151949798e+00 0.0000000000000000e+00  1.6673115943603839e-01 1.3648037417994292e+00 0.0000000000000000e+00  1.4536505032415895e-01 1.4900099170478849e+00 0.0000000000000000e+00  1.6625567277089504e-01 1.3698084121429441e+00 0.0000000000000000e+00  1.4588299411881550e-01 1.5058401518643654e+00 0.0000000000000000e+00  1.6522792409704476e-01 1.3727010824627919e+00 0.0000000000000000e+00  1.4710474922564937e-01 1.5220241001129793e+00 0.0000000000000000e+00  1.6354107026645714e-01 1.3755247465999407e+00 0.0000000000000000e+00  1.4861803145090019e-01 1.5397436520056271e+00 0.0000000000000000e+00  1.6066453790860197e-01 1.3852864127515765e+00 0.0000000000000000e+00  1.5216498266998363e-01 1.5414464968365265e+00 0.0000000000000000e+00  1.5419441135627282e-01 1.4249863776514440e+00 0.0000000000000000e+00  1.598992