<?xml version="1.0"?>
<VTKFile type="UnstructuredGrid"  version="0.1"  >
<UnstructuredGrid>
<Piece  NumberOfPoints="801" NumberOfCells="800">
<Points>
<DataArray  type="Float64"  NumberOfComponents="3"  format="ascii">-5 0 0  -4.9875 0 0  -4.975 0 0  -4.9625 0 0  -4.95 0 0  -4.9375 0 0  -4.925 0 0  -4.9125 0 0  -4.9 0 0  -4.8875 0 0  -4.875 0 0  -4.8625 0 0  -4.85 0 0  -4.8375 0 0  -4.825 0 0  -4.8125 0 0  -4.8 0 0  -4.7875 0 0  -4.775 0 0  -4.7625 0 0  -4.75 0 0  -4.7375 0 0  -4.725 0 0  -4.7125 0 0  -4.7 0 0  -4.6875 0 0  -4.675 0 0  -4.6625 0 0  -4.65 0 0  -4.6375 0 0  -4.625 0 0  -4.6125 0 0  -4.6 0 0  -4.5875 0 0  -4.575 0 0  -4.5625 0 0  -4.55 0 0  -4.5375 0 0  -4.525 0 0  -4.5125 0 0  -4.5 0 0  -4.4875 0 0  -4.475 0 0  -4.4625 0 0  -4.45 0 0  -4.4375 0 0  -4.425 0 0  -4.4125 0 0  -4.4 0 0  -4.3875 0 0  -4.375 0 0  -4.3625 0 0  -4.35 0 0  -4.3375 0 0  -4.325 0 0  -4.3125 0 0  -4.3 0 0  -4.2875 0 0  -4.275 0 0  -4.2625 0 0  -4.25 0 0  -4.2375 0 0  -4.225 0 0  -4.2125 0 0  -4.2 0 0  -4.1875 0 0  -4.175 0 0  -4.1625 0 0  -4.15 0 0  -4.1375 0 0  -4.125 0 0  -4.1125 0 0  -4.1 0 0  -4.0875 0 0  -4.075 0 0  -4.0625 0 0  -4.05 0 0  -4.0375 0 0  -4.025 0 0  -4.0125 0 0  -4 0 0  -3.9875 0 0  -3.975 0 0  -3.9625 0 0  -3.95 0 0  -3.9375 0 0  -3.925 0 0  -3.9125 0 0  -3.9 0 0  -3.8875 0 0  -3.875 0 0  -3.8625 0 0  -3.85 0 0  -3.8375 0 0  -3.825 0 0  -3.8125 0 0  -3.8 0 0  -3.7875 0 0  -3.775 0 0  -3.7625 0 0  -3.75 0 0  -3.7375 0 0  -3.725 0 0  -3.7125 0 0  -3.7 0 0  -3.6875 0 0  -3.675 0 0  -3.6625 0 0  -3.65 0 0  -3.6375 0 0  -3.625 0 0  -3.6125 0 0  -3.6 0 0  -3.5875 0 0  -3.575 0 0  -3.5625 0 0  -3.55 0 0  -3.5375 0 0  -3.525 0 0  -3.5125 0 0  -3.5 0 0  -3.4875 0 0  -3.475 0 0  -3.4625 0 0  -3.45 0 0  -3.4375 0 0  -3.425 0 0  -3.4125 0 0  -3.4 0 0  -3.3875 0 0  -3.375 0 0  -3.3625 0 0  -3.35 0 0  -3.3375 0 0  -3.325 0 0  -3.3125 0 0  -3.3 0 0  -3.2875 0 0  -3.275 0 0  -3.2625 0 0  -3.25 0 0  -3.2375 0 0  -3.225 0 0  -3.2125 0 0  -3.2 0 0  -3.1875 0 0  -3.175 0 0  -3.1625 0 0  -3.15 0 0  -3.1375 0 0  -3.125 0 0  -3.1125 0 0  -3.1 0 0  -3.0875 0 0  -3.075 0 0  -3.0625 0 0  -3.05 0 0  -3.0375 0 0  -3.025 0 0  -3.0125 0 0  -3 0 0  -2.9875 0 0  -2.975 0 0  -2.9625 0 0  -2.95 0 0  -2.9375 0 0  -2.925 0 0  -2.9125 0 0  -2.9 0 0  -2.8875 0 0  -2.875 0 0  -2.8625 0 0  -2.85 0 0  -2.8375 0 0  -2.825 0 0  -2.8125 0 0  -2.8 0 0  -2.7875 0 0  -2.775 0 0  -2.7625 0 0  -2.75 0 0  -2.7375 0 0  -2.725 0 0  -2.7125 0 0  -2.7 0 0  -2.6875 0 0  -2.675 0 0  -2.6625 0 0  -2.65 0 0  -2.6375 0 0  -2.625 0 0  -2.6125 0 0  -2.6 0 0  -2.5875 0 0  -2.575 0 0  -2.5625 0 0  -2.55 0 0  -2.5375 0 0  -2.525 0 0  -2.5125 0 0  -2.5 0 0  -2.4875 0 0  -2.475 0 0  -2.4625 0 0  -2.45 0 0  -2.4375 0 0  -2.425 0 0  -2.4125 0 0  -2.4 0 0  -2.3875 0 0  -2.375 0 0  -2.3625 0 0  -2.35 0 0  -2.3375 0 0  -2.325 0 0  -2.3125 0 0  -2.3 0 0  -2.2875 0 0  -2.275 0 0  -2.2625 0 0  -2.25 0 0  -2.2375 0 0  -2.225 0 0  -2.2125 0 0  -2.2 0 0  -2.1875 0 0  -2.175 0 0  -2.1625 0 0  -2.15 0 0  -2.1375 0 0  -2.125 0 0  -2.1125 0 0  -2.1 0 0  -2.0875 0 0  -2.075 0 0  -2.0625 0 0  -2.05 0 0  -2.0375 0 0  -2.025 0 0  -2.0125 0 0  -2 0 0  -1.9875 0 0  -1.975 0 0  -1.9625 0 0  -1.95 0 0  -1.9375 0 0  -1.925 0 0  -1.9125 0 0  -1.9 0 0  -1.8875 0 0  -1.875 0 0  -1.8625 0 0  -1.85 0 0  -1.8375 0 0  -1.825 0 0  -1.8125 0 0  -1.8 0 0  -1.7875 0 0  -1.775 0 0  -1.7625 0 0  -1.75 0 0  -1.7375 0 0  -1.725 0 0  -1.7125 0 0  -1.7 0 0  -1.6875 0 0  -1.675 0 0  -1.6625 0 0  -1.65 0 0  -1.6375 0 0  -1.625 0 0  -1.6125 0 0  -1.6 0 0  -1.5875 0 0  -1.575 0 0  -1.5625 0 0  -1.55 0 0  -1.5375 0 0  -1.525 0 0  -1.5125 0 0  -1.5 0 0  -1.4875 0 0  -1.475 0 0  -1.4625 0 0  -1.45 0 0  -1.4375 0 0  -1.425 0 0  -1.4125 0 0  -1.4 0 0  -1.3875 0 0  -1.375 0 0  -1.3625 0 0  -1.35 0 0  -1.3375 0 0  -1.325 0 0  -1.3125 0 0  -1.3 0 0  -1.2875 0 0  -1.275 0 0  -1.2625 0 0  -1.25 0 0  -1.2375 0 0  -1.225 0 0  -1.2125 0 0  -1.2 0 0  -1.1875 0 0  -1.175 0 0  -1.1625 0 0  -1.15 0 0  -1.1375 0 0  -1.125 0 0  -1.1125 0 0  -1.1 0 0  -1.0875 0 0  -1.075 0 0  -1.0625 0 0  -1.05 0 0  -1.0375 0 0  -1.025 0 0  -1.0125 0 0  -1 0 0  -0.9874999999999998 0 0  -0.9749999999999996 0 0  -0.9625000000000004 0 0  -0.9500000000000002 0 0  -0.9375 0 0  -0.9249999999999998 0 0  -0.9124999999999996 0 0  -0.9000000000000004 0 0  -0.8875000000000002 0 0  -0.875 0 0  -0.8624999999999998 0 0  -0.8499999999999996 0 0  -0.8375000000000004 0 0  -0.8250000000000002 0 0  -0.8125 0 0  -0.7999999999999998 0 0  -0.7874999999999996 0 0  -0.7750000000000004 0 0  -0.7625000000000002 0 0  -0.75 0 0  -0.7374999999999998 0 0  -0.7249999999999996 0 0  -0.7125000000000004 0 0  -0.7000000000000002 0 0  -0.6875 0 0  -0.6749999999999998 0 0  -0.6624999999999996 0 0  -0.6500000000000004 0 0  -0.6375000000000002 0 0  -0.625 0 0  -0.6124999999999998 0 0  -0.5999999999999996 0 0  -0.5875000000000004 0 0  -0.5750000000000002 0 0  -0.5625 0 0  -0.5499999999999998 0 0  -0.5374999999999996 0 0  -0.5250000000000004 0 0  -0.5125000000000002 0 0  -0.5 0 0  -0.4874999999999998 0 0  -0.4749999999999996 0 0  -0.4625000000000004 0 0  -0.4500000000000002 0 0  -0.4375 0 0  -0.4249999999999998 0 0  -0.4124999999999996 0 0  -0.4000000000000004 0 0  -0.3875000000000002 0 0  -0.375 0 0  -0.3624999999999998 0 0  -0.3499999999999996 0 0  -0.3375000000000004 0 0  -0.3250000000000002 0 0  -0.3125 0 0  -0.2999999999999998 0 0  -0.2874999999999996 0 0  -0.2750000000000004 0 0  -0.2625000000000002 0 0  -0.25 0 0  -0.2374999999999998 0 0  -0.2249999999999996 0 0  -0.2125000000000004 0 0  -0.2000000000000002 0 0  -0.1875 0 0  -0.1749999999999998 0 0  -0.1624999999999996 0 0  -0.1500000000000004 0 0  -0.1375000000000002 0 0  -0.125 0 0  -0.1124999999999998 0 0  -0.09999999999999964 0 0  -0.08750000000000036 0 0  -0.07500000000000018 0 0  -0.0625 0 0  -0.04999999999999982 0 0  -0.03749999999999964 0 0  -0.02500000000000036 0 0  -0.01250000000000018 0 0  0 0 0  0.01250000000000018 0 0  0.02500000000000036 0 0  0.03749999999999964 0 0  0.04999999999999982 0 0  0.0625 0 0  0.07500000000000018 0 0  0.08750000000000036 0 0  0.09999999999999964 0 0  0.1124999999999998 0 0  0.125 0 0  0.1375000000000002 0 0  0.1500000000000004 0 0  0.1624999999999996 0 0  0.1749999999999998 0 0  0.1875 0 0  0.2000000000000002 0 0  0.2125000000000004 0 0  0.2249999999999996 0 0  0.2374999999999998 0 0  0.25 0 0  0.2625000000000002 0 0  0.2750000000000004 0 0  0.2874999999999996 0 0  0.2999999999999998 0 0  0.3125 0 0  0.3250000000000002 0 0  0.3375000000000004 0 0  0.3499999999999996 0 0  0.3624999999999998 0 0  0.375 0 0  0.3875000000000002 0 0  0.4000000000000004 0 0  0.4124999999999996 0 0  0.4249999999999998 0 0  0.4375 0 0  0.4500000000000002 0 0  0.4625000000000004 0 0  0.4749999999999996 0 0  0.4874999999999998 0 0  0.5 0 0  0.5125000000000002 0 0  0.5250000000000004 0 0  0.5374999999999996 0 0  0.5499999999999998 0 0  0.5625 0 0  0.5750000000000002 0 0  0.5875000000000004 0 0  0.5999999999999996 0 0  0.6124999999999998 0 0  0.625 0 0  0.6375000000000002 0 0  0.6500000000000004 0 0  0.6624999999999996 0 0  0.6749999999999998 0 0  0.6875 0 0  0.7000000000000002 0 0  0.7125000000000004 0 0  0.7249999999999996 0 0  0.7374999999999998 0 0  0.75 0 0  0.7625000000000002 0 0  0.7750000000000004 0 0  0.7874999999999996 0 0  0.7999999999999998 0 0  0.8125 0 0  0.8250000000000002 0 0  0.8375000000000004 0 0  0.8499999999999996 0 0  0.8624999999999998 0 0  0.875 0 0  0.8875000000000002 0 0  0.9000000000000004 0 0  0.9124999999999996 0 0  0.9249999999999998 0 0  0.9375 0 0  0.9500000000000002 0 0  0.9625000000000004 0 0  0.9749999999999996 0 0  0.9874999999999998 0 0  1 0 0  1.0125 0 0  1.025 0 0  1.0375 0 0  1.05 0 0  1.0625 0 0  1.075 0 0  1.0875 0 0  1.1 0 0  1.1125 0 0  1.125 0 0  1.1375 0 0  1.15 0 0  1.1625 0 0  1.175 0 0  1.1875 0 0  1.2 0 0  1.2125 0 0  1.225 0 0  1.2375 0 0  1.25 0 0  1.2625 0 0  1.275 0 0  1.2875 0 0  1.3 0 0  1.3125 0 0  1.325 0 0  1.3375 0 0  1.35 0 0  1.3625 0 0  1.375 0 0  1.3875 0 0  1.4 0 0  1.4125 0 0  1.425 0 0  1.4375 0 0  1.45 0 0  1.4625 0 0  1.475 0 0  1.4875 0 0  1.5 0 0  1.5125 0 0  1.525 0 0  1.5375 0 0  1.55 0 0  1.5625 0 0  1.575 0 0  1.5875 0 0  1.6 0 0  1.6125 0 0  1.625 0 0  1.6375 0 0  1.65 0 0  1.6625 0 0  1.675 0 0  1.6875 0 0  1.7 0 0  1.7125 0 0  1.725 0 0  1.7375 0 0  1.75 0 0  1.7625 0 0  1.775 0 0  1.7875 0 0  1.8 0 0  1.8125 0 0  1.825 0 0  1.8375 0 0  1.85 0 0  1.8625 0 0  1.875 0 0  1.8875 0 0  1.9 0 0  1.9125 0 0  1.925 0 0  1.9375 0 0  1.95 0 0  1.9625 0 0  1.975 0 0  1.9875 0 0  2 0 0  2.0125 0 0  2.025 0 0  2.0375 0 0  2.05 0 0  2.0625 0 0  2.075 0 0  2.0875 0 0  2.1 0 0  2.1125 0 0  2.125 0 0  2.1375 0 0  2.15 0 0  2.1625 0 0  2.175 0 0  2.1875 0 0  2.2 0 0  2.2125 0 0  2.225 0 0  2.2375 0 0  2.25 0 0  2.2625 0 0  2.275 0 0  2.2875 0 0  2.3 0 0  2.3125 0 0  2.325 0 0  2.3375 0 0  2.35 0 0  2.3625 0 0  2.375 0 0  2.3875 0 0  2.4 0 0  2.4125 0 0  2.425 0 0  2.4375 0 0  2.45 0 0  2.4625 0 0  2.475 0 0  2.4875 0 0  2.5 0 0  2.5125 0 0  2.525 0 0  2.5375 0 0  2.55 0 0  2.5625 0 0  2.575 0 0  2.5875 0 0  2.6 0 0  2.6125 0 0  2.625 0 0  2.6375 0 0  2.65 0 0  2.6625 0 0  2.675 0 0  2.6875 0 0  2.7 0 0  2.7125 0 0  2.725 0 0  2.7375 0 0  2.75 0 0  2.7625 0 0  2.775 0 0  2.7875 0 0  2.8 0 0  2.8125 0 0  2.825 0 0  2.8375 0 0  2.85 0 0  2.8625 0 0  2.875 0 0  2.8875 0 0  2.9 0 0  2.9125 0 0  2.925 0 0  2.9375 0 0  2.95 0 0  2.9625 0 0  2.975 0 0  2.9875 0 0  3 0 0  3.012499999999999 0 0  3.025 0 0  3.0375 0 0  3.050000000000001 0 0  3.0625 0 0  3.074999999999999 0 0  3.0875 0 0  3.1 0 0  3.112500000000001 0 0  3.125 0 0  3.137499999999999 0 0  3.15 0 0  3.1625 0 0  3.175000000000001 0 0  3.1875 0 0  3.199999999999999 0 0  3.2125 0 0  3.225 0 0  3.237500000000001 0 0  3.25 0 0  3.262499999999999 0 0  3.275 0 0  3.2875 0 0  3.300000000000001 0 0  3.3125 0 0  3.324999999999999 0 0  3.3375 0 0  3.35 0 0  3.362500000000001 0 0  3.375 0 0  3.387499999999999 0 0  3.4 0 0  3.4125 0 0  3.425000000000001 0 0  3.4375 0 0  3.449999999999999 0 0  3.4625 0 0  3.475 0 0  3.4875
[...]
<PointData  Vectors="(h, u)"> 
<DataArray  type="Float64"  Name="(h, u)"  NumberOfComponents="3" format="ascii">2.0519011668867143e-01 0.0000000000000000e+00 0.0000000000000000e+00  2.0502559256242359e-01 6.1532045184157173e-03 0.0000000000000000e+00  2.0518801431713546e-01 1.2288951578846144e-02 0.0000000000000000e+00  2.0502108184681950e-01 1.8459865491709859e-02 0.0000000000000000e+00  2.0518169006154688e-01 2.4578257194031523e-02 0.0000000000000000e+00  2.0501208780138580e-01 3.0767284269858169e-02 0.0000000000000000e+00  2.0517109603690423e-01 3.6868289413321834e-02 0.0000000000000000e+00  2.0499865825267863e-01 4.3075972017407343e-02 0.0000000000000000e+00  2.0515616345381640e-01 4.9159452472892294e-02 0.0000000000000000e+00  2.0498084936782993e-01 5.5386446197955755e-02 0.0000000000000000e+00  2.0513681659326666e-01 6.1452186845728680e-02 0.0000000000000000e+00  2.0495871148069469e-01 6.7699227318392827e-02 0.0000000000000000e+00  2.0511298780099091e-01 7.3746965682742208e-02 0.0000000000000000e+00  2.0493227635861797e-01 8.0014829743062052e-02 0.0000000000000000e+00  2.0508463009526759e-01 8.6044287178360601e-02 0.0000000000000000e+00  2.0490154888036477e-01 9.2333746503332551e-02 0.0000000000000000e+00  2.0505172444981953e-01 9.8344668977584176e-02 0.0000000000000000e+00  2.0486650475053894e-01 1.0465643089489715e-01 0.0000000000000000e+00  2.0501427999427760e-01 1.1064865010906073e-01 0.0000000000000000e+00  2.0482709416070299e-01 1.1698328076841312e-01 0.0000000000000000e+00  2.0497232705917279e-01 1.2295680233966035e-01 0.0000000000000000e+00  2.0478324978232207e-01 1.2931463305670524e-01 0.0000000000000000e+00  2.0492590481582673e-01 1.3526974725361371e-01 0.0000000000000000e+00  2.0473489663403885e-01 1.4165077466625711e-01 0.0000000000000000e+00  2.0487504674944068e-01 1.4758816988939860e-01 0.0000000000000000e+00  2.0468196142973463e-01 1.5399197102395287e-01 0.0000000000000000e+00  2.0481976787144091e-01 1.5991281718654879e-01 0.0000000000000000e+00  2.0462437982622000e-01 1.6633850682526397e-01 0.0000000000000000e+00  2.0476005708429015e-01 1.7224447215629082e-01 0.0000000000000000e+00  2.0456210106120992e-01 1.7869072798597618e-01 0.0000000000000000e+00  2.0469587643577178e-01 1.8458390323991258e-01 0.0000000000000000e+00  2.0449509021213105e-01 1.9104907277081684e-01 0.0000000000000000e+00  2.0462716656261176e-01 1.9693180064261215e-01 0.0000000000000000e+00  2.0442332836354349e-01 2.0341408495478541e-01 0.0000000000000000e+00  2.0455385529720882e-01 2.0928872242840477e-01 0.0000000000000000e+00  2.0434681051218972e-01 2.1578641046641042e-01 0.0000000000000000e+00  2.0447586527818046e-01 2.2165507622410749e-01 0.0000000000000000e+00  2.0426554070587616e-01 2.2816678594604653e-01 0.0000000000000000e+00  2.0439311724700471e-01 2.3403115278383552e-01 0.0000000000000000e+00  2.0417952439756981e-01 2.4055602763775094e-01 0.0000000000000000e+00  2.0430552844530250e-01 2.4641720640549458e-01 0.0000000000000000e+00  2.0408875943396801e-01 2.5295502080228405e-01 0.0000000000000000e+00  2.0421300890842467e-01 2.5881355299060477e-01 0.0000000000000000e+00  2.0399322867300315e-01 2.6536469904130000e-01 0.0000000000000000e+00  2.0411546043868961e-01 2.7122064341293245e-01 0.0000000000000000e+00  2.0389289748512515e-01 2.7778599985102559e-01 0.0000000000000000e+00  2.0401278189912486e-01 2.8363907953058670e-01 0.0000000000000000e+00  2.0378771725727229e-01 2.9021979525957076e-01 0.0000000000000000e+00  2.0390488008023952e-01 2.9606957304117970e-01 0.0000000000000000e+00  2.0367763199497199e-01 3.0266682148599194e-01 0.0000000000000000e+00  2.0379168014615995e-01 3.0851288647833713e-01 0.0000000000000000e+00  2.0356258193619642e-01 3.1512765073843757e-01 0.0000000000000000e+00  2.0367312773194393e-01 3.2096981170387734e-01 0.0000000000000000e+00  2.0344249915963708e-01 3.2760273829398845e-01 0.0000000000000000e+00  2.0354917898038685e-01 3.3344121426555612e-01 0.0000000000000000e+00  2.0331729636213924e-01 3.4009253307669912e-01 0.0000000000000000e+00  2.0341978363347701e-01 3.4592811241575661e-01 0.0000000000000000e+00  2.0318685765796890e-01 3.5259758540536268e-01 0.0000000000000000e+00  2.0328487329729908e-01 3.5843171192245010e-01 0.0000000000000000e+00  2.0305104226502863e-01 3.6511857103448186e-01 0.0000000000000000e+00  2.0314436466775851e-01 3.7095333418584991e-01 0.0000000000000000e+00  2.0290970373637074e-01 3.7765620762660118e-01 0.0000000000000000e+00  2.0299817516340252e-01 3.8349426043641061e-01 0.0000000000000000e+00  2.0276271328886608e-01 3.9021113834764148e-01 0.0000000000000000e+00  2.0284623475849881e-01 3.9605560876888130e-01 0.0000000000000000e+00  2.0260996731010633e-01 4.0278391717864376e-01 0.0000000000000000e+00  2.0268847646612734e-01 4.0863836902955253e-01 0.0000000000000000e+00  2.0245136870113059e-01 4.1537516535713426e-01 0.0000000000000000e+00  2.0252480666991748e-01 4.2124358908499077e-01 0.0000000000000000e+00  2.0228679676511793e-01 4.2798579561566530e-01 0.0000000000000000e+00  2.0235508068006608e-01 4.3387253664385173e-01 0.0000000000000000e+00  2.0211609699653824e-01 4.4061708628164964e-01 0.0000000000000000e+00  2.0217911250288439e-01 4.4652663438784157e-01 0.0000000000000000e+00  2.0193910906057003e-01 4.5327047896890749e-01 0.0000000000000000e+00  2.0199671779942449e-01 4.5920717393233335e-01 0.0000000000000000e+00  2.0175570847755761e-01 4.6594727189309842e-01 0.0000000000000000e+00  2.0180774550510100e-01 4.7191511640533296e-01 0.0000000000000000e+00  2.0156581012455632e-01 4.7864857233708052e-01 0.0000000000000000e+00  2.0161205589883394e-01 4.8465127132134095e-01 0.0000000000000000e+00  2.0136931614519338e-01 4.9137563234335502e-01 0.0000000000000000e+00  2.0140945937932531e-01 4.9741675221759579e-01 0.0000000000000000e+00  2.0116605526398226e-01 5.0413024301203135e-01 0.0000000000000000e+00  2.0119968781981221e-01 5.1021320577266860e-01 0.0000000000000000e+00  2.0095579343529438e-01 5.1691463233254697e-01 0.0000000000000000e+00  2.0098245484011684e-01 5.2304241896381121e-01 0.0000000000000000e+00  2.0073831766174394e-01 5.2973085503206030e-01 0.0000000000000000e+00  2.0075754062920514e-01 5.3590575110976257e-01 0.0000000000000000e+00  2.0051348520063486e-01 5.4258042765600700e-01 0.0000000000000000e+00  2.0052479035515955e-01 5.4880416434572588e-01 0.0000000000000000e+00  2.0028115780095518e-01 5.5546477160681673e-01 0.0000000000000000e+00  2.0028399737572586e-01 5.6173905398861201e-01 0.0000000000000000e+00  2.0004106783186076e-01 5.6838613844603725e-01 0.0000000000000000e+00  2.0003481394120681e-01 5.7471288201810444e-01 0.0000000000000000e+00  1.9979282567457055e-01 5.8134755381372782e-01 0.0000000000000000e+00  1.9977686101185990e-01 5.8772841258685993e-01 0.0000000000000000e+00  1.9953608640464351e-01 5.9435165165542214e-01 0.0000000000000000e+00  1.9950988409258205e-01 6.0078761935619529e-01 0.0000000000000000e+00  1.9927064598089186e-01 6.0740000506690894e-01 0.0000000000000000e+00  1.9923374393007573e-01 6.1389174408250091e-01 0.0000000000000000e+00  1.9899629257469539e-01 6.2049417631298842e-01 0.0000000000000000e+00  1.9894814115983323e-01 6.2704321780814609e-01 0.0000000000000000e+00  1.9871253723614188e-01 6.3363761797462270e-01 0.0000000000000000e+00  1.9865253245332135e-01 6.4024623920603596e-01 0.0000000000000000e+00  1.9841879417917982e-01 6.4683442333236474e-01 0.0000000000000000e+00  1.9834645305170401e-01 6.5350449912176067e-01 0.0000000000000000e+00  1.9811467376423769e-01 6.6008728374060666e-01 0.0000000000000000e+00  1.9802970106540602e-01 6.6681987126863496e-01 0.0000000000000000e+00  1.9780003041983021e-01 6.7339716426272600e-01 0.0000000000000000e+00  1.9770211422985129e-01 6.8019396716807035e-01 0.0000000000000000e+00  1.9747439037271641e-01 6.8676734285579666e-01 0.0000000000000000e+00  1.9736295242543950e-01 6.9363247131947481e-01 0.0000000000000000e+00  1.9713687240101369e-01 7.0020398509461179e-01 0.0000000000000000e+00  1.9701152403009439e-01 7.0714072472857203e-01 0.0000000000000000e+00  1.9678696318394920e-01 7.1371069584547830e-01 0.0000000000000000e+00  1.9664752497440344e-01 7.2072132549697121e-01 0.0000000000000000e+00  1.9642453331601303e-01 7.2728841000834887e-01 0.0000000000000000e+00  1.9627100980915951e-01 7.3437432026744232e-01 0.0000000000000000e+00  1.9604933864197896e-01 7.4093891702870551e-01 0.0000000000000000e+00  1.9588103844582927e-01 7.4810675892169365e-01 0.0000000000000000e+00  1.9565995386447330e-01 7.5467240744397723e-01 0.0000000000000000e+00  1.9547664385390315e-01 7.6192586247966432e-01 0.0000000000000000e+00  1.9525621994140077e-01 7.6849017561276300e-01 0.0000000000000000e+00  1.9505796572907683e-01 7.7583099968936475e-01 0.0000000000000000e+00  1.9483812024501168e-01 7.8239256095363263e-01 0.0000000000000000e+00  1.9462524087500635e-01 7.8982081947401506e-01 0.0000000000000000e+00  1.9440598181781801e-01 7.9637751481681640e-01 0.0000000000000000e+00  1.9417763486665482e-01 8.0390154890750642e-01 0.0000000000000000e+00  1.9395756045481061e-01 8.1046129505751152e-01 0.0000000000000000e+00  1.9371399684743457e-01 8.1808165045367665e-01 0.0000000000000000e+00  1.9349466709718874e-01 8.2463140094058329e-01 0.0000000000000000e+00  1.9323697804060513e-01 8.3234254357725823e-01 0.0000000000000000e+00  1.9301778302085845e-01 8.3888481277640647e-01 0.0000000000000000e+00  1.9274633260743351e-01 8.4668621761205753e-01 0.0000000000000000e+00  1.9252839110749398e-01 8.5321138618568604e-01 0.0000000000000000e+00  1.9224286576087607e-01 8.6110716642916396e-01 0.0000000000000000e+00  1.9202412176499070e-01 8.6762848200852705e-01 0.0000000000000000e+00  1.9172692774824340e-01 8.7560309459130192e-01 0.0000000000000000e+00  1.9151353474981536e-01 8.8207538748630032e-01 0.0000000000000000e+00  1.9120724798362129e-01 8.9011177835283828e-01 0.0000000000000000e+00  1.9099516977295211e-01 8.9656295625335791e-01 0.0000000000000000e+00  1.9068026517284092e-01 9.0465879838376073e-01 0.0000000000000000e+00  1.9047574963486616e-01 9.1104338535213947e-01 0.0000000000000000e+00  1.9015442727059015e-01 9.1918370091414470e-01 0.0000000000000000e+00  1.8995450855088300e-01 9.2552248706507345e-01 0.0000000000000000e+00  1.8963553348338935e-01 9.3364480476989764e-01 0.0000000000000000e+00  1.8945241639842780e-01 9.3984981393684996e-01 0.0000000000000000e+00  1.8912984565661664e-01 9.4799704031017196e-01 0.0000000000000000e+00  1.8895033182892040e-01 9.5416315097716808e-01 0.0000000000000000e+00  1.8863918333498739e-01 9.6222706852445405e-01 0.0000000000000000e+00  1.8848312321444172e-01 9.6821142405839888e-01 0.0000000000000000e+00  1.8817308456127568e-01 9.7626602015314934e-01 0.0000000000000000e+00  1.8803042632251690e-01 9.8214136746929515e-01 0.0000000000000000e+00  1.8774414222810543e-01 9.9002263859655837e-01 0.0000000000000000e+00  1.8761204829084374e-01 9.9581000285257271e-01 0.0000000000000000e+00  1.8732180079154623e-01 1.0037174768083237e+00 0.0000000000000000e+00  1.8722710962515121e-01 1.0092233876705856e+00 0.0000000000000000e+00  1.8696975513448064e-01 1.0168896979937050e+00 0.0000000000000000e+00  1.8685869796239560e-01 1.0225041105059591e+00 0.0000000000000000e+00  1.8660985567418206e-01 1.0301046749199418e+00 0.0000000000000000e+00  1.8655235486080007e-01 1.0353219804384204e+00 0.0000000000000000e+00  1.8629941687672985e-01 1.0429473995090479e+00 0.0000000000000000e+00  1.8623722221293881e-01 1.0481907727307989e+00 0.0000000000000000e+00  1.8604006927582506e-01 1.0554055762621950e+00 0.0000000000000000e+00  1.8596400349876485e-01 1.0607429375102808e+00 0.0000000000000000e+00  1.8574475659958678e-01 1.0681112512815476e+00 0.0000000000000000e+00  1.8576415100973426e-01 1.0727495377085718e+00 0.0000000000000000e+00  1.8551540052589113e-01 1.0803247478407936e+00 0.0000000000000000e+00  1.8548612374810305e-01 1.0853121005802240e+00 0.0000000000000000e+00  1.8534296958588523e-01 1.0921108689081169e+00 0.0000000000000000e+00  1.8529394293739263e-01 1.0972386742987685e+00 0.0000000000000000e+00  1.8508965215305309e-01 1.1044724908918633e+00 0.0000000000000000e+00  1.8518499932114582e-01 1.1085473544818147e+00 0.0000000000000000e+00  1.8483809381336352e-01 1.1168091805220417e+00 0.0000000000000000e+00  1.8503172472532464e-01 1.1201665683420352e+00 0.0000000000000000e+00  1.8473060559723353e-01 1.1280846361655341e+00 0.0000000000000000e+00  1.8477412168851670e-01 1.1325344833216111e+00 0.0000000000000000e+00  1.8463499635764571e-01 1.1392606429585452e+00 0.0000000000000000e+00  1.8465287229749958e-01 1.1438979265627973e+00 0.0000000000000000e+00  1.8438587277482549e-01 1.1515435557139206e+00 0.0000000000000000e+00  1.8467775795418956e-01 1.1541842728245180e+00 0.0000000000000000e+00  1.8403604018585343e-01 1.1645498539993755e+00 0.0000000000000000e+00  1.8479629387033147e-01 1.1637753564888789e+00 0.0000000000000000e+00  1.8367198908983676e-01 1.1776498524397156e+00 0.0000000000000000e+00  1.8485290292614243e-01 1.1738057257396515e+00 0.0000000000000000e+00  1.8343716226445339e-01 1.1897968781035730e+00 0.0000000000000000e+00  1.8481302186611040e-01 1.1845286399607076e+00 0.0000000000000000e+00  1.8326873885928638e-01 1.2014487202908892e+00 0.0000000000000000e+00  1.8472756832992734e-01 1.1955729871759060e+00 0.0000000000000000e+00  1.8318030941507327e-01 1.2125058320355429e+00 0.0000000000000000e+00  1.8456841155644432e-01 1.2071446047448686e+00 0.0000000000000000e+00  1.8313940219696834e-01 1.2232048058290281e+00 0.0000000000000000e+00  1.8441995078261911e-01 1.2186277016851597e+00 0.0000000000000000e+00  1.8308118588422806e-01 1.2340194665080664e+00 0.0000000000000000e+00  1.8427294739186090e-01 1.2300896136658708e+00 0.0000000000000000e+00  1.8305697766870202e-01 1.2445749214531554e+00 0.0000000000000000e+00  1.8410198800918237e-01 1.2417162827148491e+00 0.0000000000000000e+00  1.8303163562802433e-01 1.2551279350576960e+00 0.0000000000000000e+00  1.8396690418692904e-01 1.2530706358888055e+00 0.0000000000000000e+00  1.8297346757735306e-01 1.2659106131680606e+00 0.0000000000000000e+00  1.8384548977114984e-01 1.2643147484744723e+00 0.0000000000000000e+00  1.8293320854434794e-01 1.2765521345061164e+00 0.0000000000000000e+00  1.8370480323839902e-01 1.2756896260211639e+00 0.0000000000000000e+00  1.8290163526849695e-01 1.2871198919674200e+00 0.0000000000000000e+00  1.8358307582625061e-01 1.2869158841749493e+00 0.0000000000000000e+00  1.8284077679312360e-01 1.2978919284830799e+00 0.0000000000000000e+00  1.8348902000657952e-01 1.2979296342472875e+00 0.0000000000000000e+00  1.8277148606432247e-01 1.3087159498424996e+00 0.0000000000000000e+00  1.8338796666261753e-01 1.3089844732532883e+00 0.0000000000000000e+00  1.8272030704818173e-01 1.3193976855686349e+00 0.0000000000000000e+00  1.8327477344383375e-01 1.3201182415817778e+00 0.0000000000000000e+00  1.8267257373192913e-01 1.3300444774917439e+00 0.0000000000000000e+00  1.8317254428910584e-01 1.3311619580842018e+00 0.0000000000000000e+00  1.8260859364499327e-01 1.3408006829865540e+00 0.0000000000000000e+00  1.8308823335894156e-01 1.3420646506434553e+00 0.0000000000000000e+00  1.8253353837104588e-01 1.3516286407296068e+00 0.0000000000000000e+00  1.8300788146983213e-01 1.3529284920353324e+00 0.0000000000000000e+00  1.8246256348488007e-01 1.3624174269296712e+00 0.0000000000000000e+00  1.8291992752910910e-01 1.3638382388354582e+00 0.0000000000000000e+00  1.8240045398784674e-01 1.3731319879633646e+00 0.0000000000000000e+00  1.8282589243088845e-01 1.3747828783287928e+00 0.0000000000000000e+00  1.8234112241174147e-01 1.3838169708212249e+00 0.0000000000000000e+00  1.8273338859135543e-01 1.3857067091969713e+00 0.0000000000000000e+00  1.8227742115103038e-01 1.3945248541053952e+00 0.0000000000000000e+00  1.8264711713368198e-01 1.3965753451194731e+00 0.0000000000000000e+00  1.8220711728736899e-01 1.4052720134425785e+00 0.0000000000000000e+00  1.8256652841752599e-01 1.4073930271447890e+00 0.0000000000000000e+00  1.8213229971408038e-01 1.4160429773024781e+00 0.0000000000000000e+00  1.8248830277330283e-01 1.4181842946080856e+00 0.0000000000000000e+00  1.8205626222158858e-01 1.4268138446264376e+00 0.0000000000000000e+00  1.8240926333211338e-01 1.4289715923632047e+00 0.0000000000000000e+00  1.8198132191120431e-01 1.4375695693973578e+00 0.0000000000000000e+00  1.8232770050189526e-01 1.4397647943327390e+00 0.0000000000000000e+00  1.8190817971558187e-01 1.4483075061403421e+00 0.0000000000000000e+00  1.8224361369776593e-01 1.4505642526744700e+00 0.0000000000000000e+00  1.8183574345732711e-01 1.4590290088693396e+00 0.0000000000000000e+00  1.8215892704409561e-01 1.4613726716170008e+00 0.0000000000000000e+00  1.8176107668698457e-01 1.4697283348154244e+00 0.0000000000000000e+00  1.8207665791368316e-01 1.4721985927091066e+00 0.0000000000000000e+00  1.8168223010213175e-01 1.4804060232874199e+00 0.0000000000000000e+00  1.8199497605691189e-01 1.4830180641134767e+00 0.0000000000000000e+00  1.8160734799234596e-01 1.4911321641096982e+00 0.0000000000000000e+00  1.8189744627933810e-01 1.4937050112014687e+00 0.0000000000000000e+00  1.8155852043172888e-01 1.5020743965091825e+00 0.0000000000000000e+00  1.8176592901537339e-01 1.5041243744935828e+00 0.0000000000000000e+00  1.8152969338863290e-01 1.5131908101712315e+00 0.0000000000000000e+00  1.8165843560483458e-01 1.5147039907016462e+00 0.0000000000000000e+00  1.8138478007448039e-01 1.5234792513916080e+00 0.0000000000000000e+00  1.8178922985224852e-01 1.5270268817008505e+00 0.0000000000000000e+00  1.8088828539680346e-01 1.5311987241850482e+00 0.0000000000000000e+00  1.8226259631382286e-01 1.5418658168069674e+00 0.0000000000000000e+00  1.8031437676644735e-01 1.5383532699024236e+00 0.0000000000000000e+00  1.8211582624808881e-01 1.5521992144222734e+00 0.0000000000000000e+00  1.8146834623857941e-01 1.5581831230408325e+00 0.0000000000000000e+00  1.7878885547025694e-01 1.5394826107879529e+00 0.0000000000000000e+00  1.8630485260202667e-01 1.6033941960749980e+00 0.0000000000000000e+00  1.7059999634185974e-01 1.4956374785257469e+00 0.0000000000000000e+00  1.8369462026984787e-01 1.5742525386561517e+00 0.0000000000000000e+00  1.2794705920431723e-01 1.2378278909505562e+00 0.0000000000000000e+00  2.5042966207148527e-02 -6.5408061732033052e-01 0.0000000000000000e+00  2.8538470737841989e-02 -5.3343843012150227e-01 0.0000000000000000e+00  2.8327761555925705e-02 -5.9189905614996596e-01 0.0000000000000000e+00  2.8034661778218461e-02 -5.5998438000117412e-01 0.0000000000000000e+00  2.8122858020010889e-02 -5.6833533525705893e-01 0.0000000000000000e+00  2.8247477233299716e-02 -5.5937200421744149e-01 0.0000000000000000e+00  2.7993716405740905e-02 -5.5677823964270534e-01 0.0000000000000000e+00  2.8310167052202479e-02 -5.5290844772517156e-01 0.0000000000000000e+00  2.7960073396752827e-02 -5.4799327747777182e-01 0.0000000000000000e+00  2.8337285138651472e-02 -5.4492817778207492e-01 0.0000000000000000e+00  2.7932374007541859e-02 -5.4007334848620148e-01 0.0000000000000000e+00  2.8350499947084776e-02 -5.3679489055638396e-01 0.0000000000000000e+00  2.7950822405527438e-02 -5.3145710778331934e-01 0.0000000000000000e+00  2.8295482156275635e-02 -5.2987163972377627e-01 0.0000000000000000e+00  2.8016028937587867e-02 -5.2198496395407112e-01 0.0000000000000000e+00  2.8268906633757539e-02 -5.2241957675801420e-01 0.0000000000000000e+00  2.7956786722278210e-02 -5.1482384163843942e-01 0.0000000000000000e+00  2.8430725671674140e-02 -5.1147667111912642e-01 0.0000000000000000e+00  2.7701428881185694e-02 -5.1130174115872129e-01 0.0000000000000000e+00  2.8709911904304285e-02 -4.9838124015160928e-01 0.0000000000000000e+00  2.7433317845218692e-02 -5.0798826480623338e-01 0.0000000000000000e+00  2.8912817234898774e-02 -4.8673961465854937e-01 0.0000000000000000e+00  2.7315455962055261e-02 -5.0183041040923859e-01 0.0000000000000000e+00  2.8972983872390126e-02 -4.7778058643659277e-01 0.0000000000000000e+00  2.7323777081196057e-02 -4.9328191199466687e-01 0.0000000000000000e+00  2.8949729348940998e-02 -4.7039634749921000e-01 0.0000