<?xml version="1.0"?>
<VTKFile type="UnstructuredGrid"  version="0.1"  >
<UnstructuredGrid>
<Piece  NumberOfPoints="801" NumberOfCells="800">
<Points>
<DataArray  type="Float64"  NumberOfComponents="3"  format="ascii">-5 0 0  -4.9875 0 0  -4.975 0 0  -4.9625 0 0  -4.95 0 0  -4.9375 0 0  -4.925 0 0  -4.9125 0 0  -4.9 0 0  -4.8875 0 0  -4.875 0 0  -4.8625 0 0  -4.85 0 0  -4.8375 0 0  -4.825 0 0  -4.8125 0 0  -4.8 0 0  -4.7875 0 0  -4.775 0 0  -4.7625 0 0  -4.75 0 0  -4.7375 0 0  -4.725 0 0  -4.7125 0 0  -4.7 0 0  -4.6875 0 0  -4.675 0 0  -4.6625 0 0  -4.65 0 0  -4.6375 0 0  -4.625 0 0  -4.6125 0 0  -4.6 0 0  -4.5875 0 0  -4.575 0 0  -4.5625 0 0  -4.55 0 0  -4.5375 0 0  -4.525 0 0  -4.5125 0 0  -4.5 0 0  -4.4875 0 0  -4.475 0 0  -4.4625 0 0  -4.45 0 0  -4.4375 0 0  -4.425 0 0  -4.4125 0 0  -4.4 0 0  -4.3875 0 0  -4.375 0 0  -4.3625 0 0  -4.35 0 0  -4.3375 0 0  -4.325 0 0  -4.3125 0 0  -4.3 0 0  -4.2875 0 0  -4.275 0 0  -4.2625 0 0  -4.25 0 0  -4.2375 0 0  -4.225 0 0  -4.2125 0 0  -4.2 0 0  -4.1875 0 0  -4.175 0 0  -4.1625 0 0  -4.15 0 0  -4.1375 0 0  -4.125 0 0  -4.1125 0 0  -4.1 0 0  -4.0875 0 0  -4.075 0 0  -4.0625 0 0  -4.05 0 0  -4.0375 0 0  -4.025 0 0  -4.0125 0 0  -4 0 0  -3.9875 0 0  -3.975 0 0  -3.9625 0 0  -3.95 0 0  -3.9375 0 0  -3.925 0 0  -3.9125 0 0  -3.9 0 0  -3.8875 0 0  -3.875 0 0  -3.8625 0 0  -3.85 0 0  -3.8375 0 0  -3.825 0 0  -3.8125 0 0  -3.8 0 0  -3.7875 0 0  -3.775 0 0  -3.7625 0 0  -3.75 0 0  -3.7375 0 0  -3.725 0 0  -3.7125 0 0  -3.7 0 0  -3.6875 0 0  -3.675 0 0  -3.6625 0 0  -3.65 0 0  -3.6375 0 0  -3.625 0 0  -3.6125 0 0  -3.6 0 0  -3.5875 0 0  -3.575 0 0  -3.5625 0 0  -3.55 0 0  -3.5375 0 0  -3.525 0 0  -3.5125 0 0  -3.5 0 0  -3.4875 0 0  -3.475 0 0  -3.4625 0 0  -3.45 0 0  -3.4375 0 0  -3.425 0 0  -3.4125 0 0  -3.4 0 0  -3.3875 0 0  -3.375 0 0  -3.3625 0 0  -3.35 0 0  -3.3375 0 0  -3.325 0 0  -3.3125 0 0  -3.3 0 0  -3.2875 0 0  -3.275 0 0  -3.2625 0 0  -3.25 0 0  -3.2375 0 0  -3.225 0 0  -3.2125 0 0  -3.2 0 0  -3.1875 0 0  -3.175 0 0  -3.1625 0 0  -3.15 0 0  -3.1375 0 0  -3.125 0 0  -3.1125 0 0  -3.1 0 0  -3.0875 0 0  -3.075 0 0  -3.0625 0 0  -3.05 0 0  -3.0375 0 0  -3.025 0 0  -3.0125 0 0  -3 0 0  -2.9875 0 0  -2.975 0 0  -2.9625 0 0  -2.95 0 0  -2.9375 0 0  -2.925 0 0  -2.9125 0 0  -2.9 0 0  -2.8875 0 0  -2.875 0 0  -2.8625 0 0  -2.85 0 0  -2.8375 0 0  -2.825 0 0  -2.8125 0 0  -2.8 0 0  -2.7875 0 0  -2.775 0 0  -2.7625 0 0  -2.75 0 0  -2.7375 0 0  -2.725 0 0  -2.7125 0 0  -2.7 0 0  -2.6875 0 0  -2.675 0 0  -2.6625 0 0  -2.65 0 0  -2.6375 0 0  -2.625 0 0  -2.6125 0 0  -2.6 0 0  -2.5875 0 0  -2.575 0 0  -2.5625 0 0  -2.55 0 0  -2.5375 0 0  -2.525 0 0  -2.5125 0 0  -2.5 0 0  -2.4875 0 0  -2.475 0 0  -2.4625 0 0  -2.45 0 0  -2.4375 0 0  -2.425 0 0  -2.4125 0 0  -2.4 0 0  -2.3875 0 0  -2.375 0 0  -2.3625 0 0  -2.35 0 0  -2.3375 0 0  -2.325 0 0  -2.3125 0 0  -2.3 0 0  -2.2875 0 0  -2.275 0 0  -2.2625 0 0  -2.25 0 0  -2.2375 0 0  -2.225 0 0  -2.2125 0 0  -2.2 0 0  -2.1875 0 0  -2.175 0 0  -2.1625 0 0  -2.15 0 0  -2.1375 0 0  -2.125 0 0  -2.1125 0 0  -2.1 0 0  -2.0875 0 0  -2.075 0 0  -2.0625 0 0  -2.05 0 0  -2.0375 0 0  -2.025 0 0  -2.0125 0 0  -2 0 0  -1.9875 0 0  -1.975 0 0  -1.9625 0 0  -1.95 0 0  -1.9375 0 0  -1.925 0 0  -1.9125 0 0  -1.9 0 0  -1.8875 0 0  -1.875 0 0  -1.8625 0 0  -1.85 0 0  -1.8375 0 0  -1.825 0 0  -1.8125 0 0  -1.8 0 0  -1.7875 0 0  -1.775 0 0  -1.7625 0 0  -1.75 0 0  -1.7375 0 0  -1.725 0 0  -1.7125 0 0  -1.7 0 0  -1.6875 0 0  -1.675 0 0  -1.6625 0 0  -1.65 0 0  -1.6375 0 0  -1.625 0 0  -1.6125 0 0  -1.6 0 0  -1.5875 0 0  -1.575 0 0  -1.5625 0 0  -1.55 0 0  -1.5375 0 0  -1.525 0 0  -1.5125 0 0  -1.5 0 0  -1.4875 0 0  -1.475 0 0  -1.4625 0 0  -1.45 0 0  -1.4375 0 0  -1.425 0 0  -1.4125 0 0  -1.4 0 0  -1.3875 0 0  -1.375 0 0  -1.3625 0 0  -1.35 0 0  -1.3375 0 0  -1.325 0 0  -1.3125 0 0  -1.3 0 0  -1.2875 0 0  -1.275 0 0  -1.2625 0 0  -1.25 0 0  -1.2375 0 0  -1.225 0 0  -1.2125 0 0  -1.2 0 0  -1.1875 0 0  -1.175 0 0  -1.1625 0 0  -1.15 0 0  -1.1375 0 0  -1.125 0 0  -1.1125 0 0  -1.1 0 0  -1.0875 0 0  -1.075 0 0  -1.0625 0 0  -1.05 0 0  -1.0375 0 0  -1.025 0 0  -1.0125 0 0  -1 0 0  -0.9874999999999998 0 0  -0.9749999999999996 0 0  -0.9625000000000004 0 0  -0.9500000000000002 0 0  -0.9375 0 0  -0.9249999999999998 0 0  -0.9124999999999996 0 0  -0.9000000000000004 0 0  -0.8875000000000002 0 0  -0.875 0 0  -0.8624999999999998 0 0  -0.8499999999999996 0 0  -0.8375000000000004 0 0  -0.8250000000000002 0 0  -0.8125 0 0  -0.7999999999999998 0 0  -0.7874999999999996 0 0  -0.7750000000000004 0 0  -0.7625000000000002 0 0  -0.75 0 0  -0.7374999999999998 0 0  -0.7249999999999996 0 0  -0.7125000000000004 0 0  -0.7000000000000002 0 0  -0.6875 0 0  -0.6749999999999998 0 0  -0.6624999999999996 0 0  -0.6500000000000004 0 0  -0.6375000000000002 0 0  -0.625 0 0  -0.6124999999999998 0 0  -0.5999999999999996 0 0  -0.5875000000000004 0 0  -0.5750000000000002 0 0  -0.5625 0 0  -0.5499999999999998 0 0  -0.5374999999999996 0 0  -0.5250000000000004 0 0  -0.5125000000000002 0 0  -0.5 0 0  -0.4874999999999998 0 0  -0.4749999999999996 0 0  -0.4625000000000004 0 0  -0.4500000000000002 0 0  -0.4375 0 0  -0.4249999999999998 0 0  -0.4124999999999996 0 0  -0.4000000000000004 0 0  -0.3875000000000002 0 0  -0.375 0 0  -0.3624999999999998 0 0  -0.3499999999999996 0 0  -0.3375000000000004 0 0  -0.3250000000000002 0 0  -0.3125 0 0  -0.2999999999999998 0 0  -0.2874999999999996 0 0  -0.2750000000000004 0 0  -0.2625000000000002 0 0  -0.25 0 0  -0.2374999999999998 0 0  -0.2249999999999996 0 0  -0.2125000000000004 0 0  -0.2000000000000002 0 0  -0.1875 0 0  -0.1749999999999998 0 0  -0.1624999999999996 0 0  -0.1500000000000004 0 0  -0.1375000000000002 0 0  -0.125 0 0  -0.1124999999999998 0 0  -0.09999999999999964 0 0  -0.08750000000000036 0 0  -0.07500000000000018 0 0  -0.0625 0 0  -0.04999999999999982 0 0  -0.03749999999999964 0 0  -0.02500000000000036 0 0  -0.01250000000000018 0 0  0 0 0  0.01250000000000018 0 0  0.02500000000000036 0 0  0.03749999999999964 0 0  0.04999999999999982 0 0  0.0625 0 0  0.07500000000000018 0 0  0.08750000000000036 0 0  0.09999999999999964 0 0  0.1124999999999998 0 0  0.125 0 0  0.1375000000000002 0 0  0.1500000000000004 0 0  0.1624999999999996 0 0  0.1749999999999998 0 0  0.1875 0 0  0.2000000000000002 0 0  0.2125000000000004 0 0  0.2249999999999996 0 0  0.2374999999999998 0 0  0.25 0 0  0.2625000000000002 0 0  0.2750000000000004 0 0  0.2874999999999996 0 0  0.2999999999999998 0 0  0.3125 0 0  0.3250000000000002 0 0  0.3375000000000004 0 0  0.3499999999999996 0 0  0.3624999999999998 0 0  0.375 0 0  0.3875000000000002 0 0  0.4000000000000004 0 0  0.4124999999999996 0 0  0.4249999999999998 0 0  0.4375 0 0  0.4500000000000002 0 0  0.4625000000000004 0 0  0.4749999999999996 0 0  0.4874999999999998 0 0  0.5 0 0  0.5125000000000002 0 0  0.5250000000000004 0 0  0.5374999999999996 0 0  0.5499999999999998 0 0  0.5625 0 0  0.5750000000000002 0 0  0.5875000000000004 0 0  0.5999999999999996 0 0  0.6124999999999998 0 0  0.625 0 0  0.6375000000000002 0 0  0.6500000000000004 0 0  0.6624999999999996 0 0  0.6749999999999998 0 0  0.6875 0 0  0.7000000000000002 0 0  0.7125000000000004 0 0  0.7249999999999996 0 0  0.7374999999999998 0 0  0.75 0 0  0.7625000000000002 0 0  0.7750000000000004 0 0  0.7874999999999996 0 0  0.7999999999999998 0 0  0.8125 0 0  0.8250000000000002 0 0  0.8375000000000004 0 0  0.8499999999999996 0 0  0.8624999999999998 0 0  0.875 0 0  0.8875000000000002 0 0  0.9000000000000004 0 0  0.9124999999999996 0 0  0.9249999999999998 0 0  0.9375 0 0  0.9500000000000002 0 0  0.9625000000000004 0 0  0.9749999999999996 0 0  0.9874999999999998 0 0  1 0 0  1.0125 0 0  1.025 0 0  1.0375 0 0  1.05 0 0  1.0625 0 0  1.075 0 0  1.0875 0 0  1.1 0 0  1.1125 0 0  1.125 0 0  1.1375 0 0  1.15 0 0  1.1625 0 0  1.175 0 0  1.1875 0 0  1.2 0 0  1.2125 0 0  1.225 0 0  1.2375 0 0  1.25 0 0  1.2625 0 0  1.275 0 0  1.2875 0 0  1.3 0 0  1.3125 0 0  1.325 0 0  1.3375 0 0  1.35 0 0  1.3625 0 0  1.375 0 0  1.3875 0 0  1.4 0 0  1.4125 0 0  1.425 0 0  1.4375 0 0  1.45 0 0  1.4625 0 0  1.475 0 0  1.4875 0 0  1.5 0 0  1.5125 0 0  1.525 0 0  1.5375 0 0  1.55 0 0  1.5625 0 0  1.575 0 0  1.5875 0 0  1.6 0 0  1.6125 0 0  1.625 0 0  1.6375 0 0  1.65 0 0  1.6625 0 0  1.675 0 0  1.6875 0 0  1.7 0 0  1.7125 0 0  1.725 0 0  1.7375 0 0  1.75 0 0  1.7625 0 0  1.775 0 0  1.7875 0 0  1.8 0 0  1.8125 0 0  1.825 0 0  1.8375 0 0  1.85 0 0  1.8625 0 0  1.875 0 0  1.8875 0 0  1.9 0 0  1.9125 0 0  1.925 0 0  1.9375 0 0  1.95 0 0  1.9625 0 0  1.975 0 0  1.9875 0 0  2 0 0  2.0125 0 0  2.025 0 0  2.0375 0 0  2.05 0 0  2.0625 0 0  2.075 0 0  2.0875 0 0  2.1 0 0  2.1125 0 0  2.125 0 0  2.1375 0 0  2.15 0 0  2.1625 0 0  2.175 0 0  2.1875 0 0  2.2 0 0  2.2125 0 0  2.225 0 0  2.2375 0 0  2.25 0 0  2.2625 0 0  2.275 0 0  2.2875 0 0  2.3 0 0  2.3125 0 0  2.325 0 0  2.3375 0 0  2.35 0 0  2.3625 0 0  2.375 0 0  2.3875 0 0  2.4 0 0  2.4125 0 0  2.425 0 0  2.4375 0 0  2.45 0 0  2.4625 0 0  2.475 0 0  2.4875 0 0  2.5 0 0  2.5125 0 0  2.525 0 0  2.5375 0 0  2.55 0 0  2.5625 0 0  2.575 0 0  2.5875 0 0  2.6 0 0  2.6125 0 0  2.625 0 0  2.6375 0 0  2.65 0 0  2.6625 0 0  2.675 0 0  2.6875 0 0  2.7 0 0  2.7125 0 0  2.725 0 0  2.7375 0 0  2.75 0 0  2.7625 0 0  2.775 0 0  2.7875 0 0  2.8 0 0  2.8125 0 0  2.825 0 0  2.8375 0 0  2.85 0 0  2.8625 0 0  2.875 0 0  2.8875 0 0  2.9 0 0  2.9125 0 0  2.925 0 0  2.9375 0 0  2.95 0 0  2.9625 0 0  2.975 0 0  2.9875 0 0  3 0 0  3.012499999999999 0 0  3.025 0 0  3.0375 0 0  3.050000000000001 0 0  3.0625 0 0  3.074999999999999 0 0  3.0875 0 0  3.1 0 0  3.112500000000001 0 0  3.125 0 0  3.137499999999999 0 0  3.15 0 0  3.1625 0 0  3.175000000000001 0 0  3.1875 0 0  3.199999999999999 0 0  3.2125 0 0  3.225 0 0  3.237500000000001 0 0  3.25 0 0  3.262499999999999 0 0  3.275 0 0  3.2875 0 0  3.300000000000001 0 0  3.3125 0 0  3.324999999999999 0 0  3.3375 0 0  3.35 0 0  3.362500000000001 0 0  3.375 0 0  3.387499999999999 0 0  3.4 0 0  3.4125 0 0  3.425000000000001 0 0  3.4375 0 0  3.449999999999999 0 0  3.4625 0 0  3.475 0 0  3.4875
[...]
<PointData  Vectors="(h, u)"> 
<DataArray  type="Float64"  Name="(h, u)"  NumberOfComponents="3" format="ascii">2.4338516539873445e-01 0.0000000000000000e+00 0.0000000000000000e+00  2.4197606504413355e-01 6.8708747326771593e-03 0.0000000000000000e+00  2.4338156408104386e-01 1.4103027992868293e-02 0.0000000000000000e+00  2.4197187511005844e-01 2.0613051341189886e-02 0.0000000000000000e+00  2.4337080742415301e-01 2.8206607928155263e-02 0.0000000000000000e+00  2.4196352240138613e-01 3.4356157729523419e-02 0.0000000000000000e+00  2.4335292557691127e-01 4.2310970317656307e-02 0.0000000000000000e+00  2.4195093196840090e-01 4.8100830492196212e-02 0.0000000000000000e+00  2.4332789836647378e-01 5.6416745637990727e-02 0.0000000000000000e+00  2.4193403065945890e-01 6.1848000081765386e-02 0.0000000000000000e+00  2.4329580948796409e-01 7.0524289332000625e-02 0.0000000000000000e+00  2.4191281291606578e-01 7.5598125627664728e-02 0.0000000000000000e+00  2.4325674124694657e-01 8.4633707868417868e-02 0.0000000000000000e+00  2.4188715099593613e-01 8.9352108774558722e-02 0.0000000000000000e+00  2.4321067876911776e-01 9.8745686496474860e-02 0.0000000000000000e+00  2.4185691617963617e-01 1.0311102413107340e-01 0.0000000000000000e+00  2.4315774512509508e-01 1.1286027002131553e-01 0.0000000000000000e+00  2.4182209904218838e-01 1.1687524196666689e-01 0.0000000000000000e+00  2.4309804624386672e-01 1.2697747320716810e-01 0.0000000000000000e+00  2.4178251570953335e-01 1.3064603510023129e-01 0.0000000000000000e+00  2.4303153929999208e-01 1.4109815280948138e-01 0.0000000000000000e+00  2.4173802436995281e-01 1.4442447548595574e-01 0.0000000000000000e+00  2.4295839452856466e-01 1.5522194146079976e-01 0.0000000000000000e+00  2.4168864431504403e-01 1.5821070232370713e-01 0.0000000000000000e+00  2.4287868318085004e-01 1.6934904990435423e-01 0.0000000000000000e+00  2.4163412104074269e-01 1.7200648254386605e-01 0.0000000000000000e+00  2.4279231326824163e-01 1.8348061293546017e-01 0.0000000000000000e+00  2.4157437735582046e-01 1.8581245087532969e-01 0.0000000000000000e+00  2.4269952403233711e-01 1.9761571376650022e-01 0.0000000000000000e+00  2.4150945666431581e-01 1.9962855746052194e-01 0.0000000000000000e+00  2.4260025335798518e-01 2.1175535692657746e-01 0.0000000000000000e+00  2.4143901253549846e-01 2.1345718674089431e-01 0.0000000000000000e+00  2.4249440896494484e-01 2.2590065075966467e-01 0.0000000000000000e+00  2.4136314894594479e-01 2.2729781516062889e-01 0.0000000000000000e+00  2.4238229935475888e-01 2.4005015789299977e-01 0.0000000000000000e+00  2.4128181880049801e-01 2.4115093153587189e-01 0.0000000000000000e+00  2.4226360525072793e-01 2.5420645883837301e-01 0.0000000000000000e+00  2.4119463562048060e-01 2.5501918155919956e-01 0.0000000000000000e+00  2.4213842187375409e-01 2.6836944903961080e-01 0.0000000000000000e+00  2.4110197351714305e-01 2.6890032157883603e-01 0.0000000000000000e+00  2.4200696889038348e-01 2.8253820933093710e-01 0.0000000000000000e+00  2.4100343646911151e-01 2.8279703171070497e-01 0.0000000000000000e+00  2.4186866966672288e-01 2.9671690255455913e-01 0.0000000000000000e+00  2.4089889107762172e-01 2.9671032768301103e-01 0.0000000000000000e+00  2.4172406223568560e-01 3.1090258553059702e-01 0.0000000000000000e+00  2.4078877761291731e-01 3.1063754399277682e-01 0.0000000000000000e+00  2.4157282225248006e-01 3.2509777681817237e-01 0.0000000000000000e+00  2.4067220530246833e-01 3.2458449666875905e-01 0.0000000000000000e+00  2.4141459411225138e-01 3.3930518976056234e-01 0.0000000000000000e+00  2.4054978888864759e-01 3.3854739687161345e-01 0.0000000000000000e+00  2.4125016357572837e-01 3.5352028144825132e-01 0.0000000000000000e+00  2.4042122249225256e-01 3.5252833339479611e-01 0.0000000000000000e+00  2.4107832284370589e-01 3.6775118664031825e-01 0.0000000000000000e+00  2.4028582493584333e-01 3.6653176475051880e-01 0.0000000000000000e+00  2.4089988382143981e-01 3.8199316446352144e-01 0.0000000000000000e+00  2.4014471492273570e-01 3.8055064552270107e-01 0.0000000000000000e+00  2.4071456094742030e-01 3.9624848144009622e-01 0.0000000000000000e+00  2.3999618169276787e-01 3.9459602163836716e-01 0.0000000000000000e+00  2.4052143795257763e-01 4.1052341116423285e-01 0.0000000000000000e+00  2.3984131541782402e-01 4.0866100302460223e-01 0.0000000000000000e+00  2.4032212055432731e-01 4.2480814858117177e-01 0.0000000000000000e+00  2.3967956382051869e-01 4.2274921196273701e-01 0.0000000000000000e+00  2.4011430235650993e-01 4.3911783036611102e-01 0.0000000000000000e+00  2.3950982804989349e-01 4.3686775701448077e-01 0.0000000000000000e+00  2.3989979981344051e-01 4.5344128975910081e-01 0.0000000000000000e+00  2.3933403578634913e-01 4.5100437004995952e-01 0.0000000000000000e+00  2.3967751464246501e-01 4.6778596883882700e-01 0.0000000000000000e+00  2.3914898645447430e-01 4.6517962978821320e-01 0.0000000000000000e+00  2.3944675480267363e-01 4.8215669434449510e-01 0.0000000000000000e+00  2.3895747885949489e-01 4.7937564561160828e-01 0.0000000000000000e+00  2.3920964347249313e-01 4.9654033506701539e-01 0.0000000000000000e+00  2.3875700052623536e-01 4.9360860148628755e-01 0.0000000000000000e+00  2.3896234086294196e-01 5.1096184629290664e-01 0.0000000000000000e+00  2.3854794241076757e-01 5.0787602725739323e-01 0.0000000000000000e+00  2.3870918767319352e-01 5.2539389708730422e-01 0.0000000000000000e+00  2.3833142213999328e-01 5.2217080776378322e-01 0.0000000000000000e+00  2.3844570097173765e-01 5.3986558795713879e-01 0.0000000000000000e+00  2.3810353467621756e-01 5.3651806486312392e-01 0.0000000000000000e+00  2.3817492402844001e-01 5.5435784534692611e-01 0.0000000000000000e+00  2.3786937062368732e-01 5.5088513491529734e-01 0.0000000000000000e+00  2.3789553771154129e-01 5.6887954917570982e-01 0.0000000000000000e+00  2.3762202981631009e-01 5.6531644193343267e-01 0.0000000000000000e+00  2.3760589712890484e-01 5.8344162749526141e-01 0.0000000000000000e+00  2.3736779179343864e-01 5.7977162378473190e-01 0.0000000000000000e+00  2.3731019384202862e-01 5.9801764095032039e-01 0.0000000000000000e+00  2.3710054284783647e-01 5.9429010529093484e-01 0.0000000000000000e+00  2.3700114269548772e-01 6.1265471415948136e-01 0.0000000000000000e+00  2.3682347873214898e-01 6.0885133020350746e-01 0.0000000000000000e+00  2.3668785133662634e-01 6.2729481263754105e-01 0.0000000000000000e+00  2.3653542263863944e-01 6.2346296106921906e-01 0.0000000000000000e+00  2.3635940143783180e-01 6.4200847491021062e-01 0.0000000000000000e+00  2.3623285157070992e-01 6.3814774463869472e-01 0.0000000000000000e+00  2.3602663402854668e-01 6.5672642337335552e-01 0.0000000000000000e+00  2.3592228304248566e-01 6.5286370993180398e-01 0.0000000000000000e+00  2.3567897040501956e-01 6.7151713120512324e-01 0.0000000000000000e+00  2.3559163482030243e-01 6.6768892386394574e-01 0.0000000000000000e+00  2.3532454056469346e-01 6.8632863129878308e-01 0.0000000000000000e+00  2.3525602421936193e-01 6.8252580429897258e-01 0.0000000000000000e+00  2.3495767972147513e-01 7.0119786601488232e-01 0.0000000000000000e+00  2.3489453851224501e-01 6.9750966179222551e-01 0.0000000000000000e+00  2.3457926853318753e-01 7.1611947651394747e-01 0.0000000000000000e+00  2.3453075993151909e-01 7.1248801052407684e-01 0.0000000000000000e+00  2.3419289862277387e-01 7.3107077057118119e-01 0.0000000000000000e+00  2.3413493607708227e-01 7.2765364397317522e-01 0.0000000000000000e+00  2.3378802936164117e-01 7.4612009800674617e-01 0.0000000000000000e+00  2.3373965802522964e-01 7.4279546185473933e-01 0.0000000000000000e+00  2.3338145532907453e-01 7.6115943762749616e-01 0.0000000000000000e+00  2.3330446329088084e-01 7.5817606955760475e-01 0.0000000000000000e+00  2.3294745633136946e-01 7.7635542861696283e-01 0.0000000000000000e+00  2.3287474412508877e-01 7.7350092774446377e-01 0.0000000000000000e+00  2.3251930919707406e-01 7.9149317753814796e-01 0.0000000000000000e+00  2.3239248849456795e-01 7.8914716844289012e-01 0.0000000000000000e+00  2.3205376558706944e-01 8.0685319983566550e-01 0.0000000000000000e+00  2.3192662916795989e-01 8.0466668648156403e-01 0.0000000000000000e+00  2.3160070418545245e-01 8.2211253025449327e-01 0.0000000000000000e+00  2.3138563428848227e-01 8.2065556925367578e-01 0.0000000000000000e+00  2.3110345921262002e-01 8.3763929073964671e-01 0.0000000000000000e+00  2.3088371573244973e-01 8.3636994846103496e-01 0.0000000000000000e+00  2.3061651628966556e-01 8.5308002510762604e-01 0.0000000000000000e+00  2.3026822062996838e-01 8.5280578646783534e-01 0.0000000000000000e+00  2.3009466855518740e-01 8.6872881621339793e-01 0.0000000000000000e+00  2.2972949629532344e-01 8.6872082088317371e-01 0.0000000000000000e+00  2.2955239723432516e-01 8.8449253935406758e-01 0.0000000000000000e+00  2.2902571822697287e-01 8.8569592964179122e-01 0.0000000000000000e+00  2.2902737964035355e-01 9.0012451494715773e-01 0.0000000000000000e+00  2.2843584076321424e-01 9.0190670255838434e-01 0.0000000000000000e+00  2.2839103921348303e-01 9.1646713132234425e-01 0.0000000000000000e+00  2.2765288755325180e-01 9.1936425233712826e-01 0.0000000000000000e+00  2.2789549109002785e-01 9.3186879261502387e-01 0.0000000000000000e+00  2.2695473620104728e-01 9.3624757256940050e-01 0.0000000000000000e+00  2.2712968008734241e-01 9.4902676398030295e-01 0.0000000000000000e+00  2.2615801437226993e-01 9.5376041037225812e-01 0.0000000000000000e+00  2.2666046484524260e-01 9.6421794475680933e-01 0.0000000000000000e+00  2.2523204542166225e-01 9.7210770579613615e-01 0.0000000000000000e+00  2.2581801475051905e-01 9.8184900231321315e-01 0.0000000000000000e+00  2.2452729994184553e-01 9.8897947973543998e-01 0.0000000000000000e+00  2.2522856945912881e-01 9.9779598310698470e-01 0.0000000000000000e+00  2.2329513310302315e-01 1.0093190920249280e+00 0.0000000000000000e+00  2.2455501536212727e-01 1.0142796412824913e+00 0.0000000000000000e+00  2.2262273851774378e-01 1.0259421448451072e+00 0.0000000000000000e+00  2.2356483210046407e-01 1.0328463561334853e+00 0.0000000000000000e+00  2.2137633748174260e-01 1.0463541090668005e+00 0.0000000000000000e+00  2.2327731558759792e-01 1.0467325427798040e+00 0.0000000000000000e+00  2.2023160833583802e-01 1.0660810925170043e+00 0.0000000000000000e+00  2.2205886643839268e-01 1.0667934228843279e+00 0.0000000000000000e+00  2.1963039661998895e-01 1.0821756395178688e+00 0.0000000000000000e+00  2.2152834566643240e-01 1.0822596894631820e+00 0.0000000000000000e+00  2.1783210005324613e-01 1.1062410191501821e+00 0.0000000000000000e+00  2.2128398059104212e-01 1.0957891426813913e+00 0.0000000000000000e+00  2.1724422667977911e-01 1.1222171228571174e+00 0.0000000000000000e+00  2.1973210879225535e-01 1.1180552601132792e+00 0.0000000000000000e+00  2.1671479793306411e-01 1.1377776682501690e+00 0.0000000000000000e+00  2.1979690712724209e-01 1.1294784940218012e+00 0.0000000000000000e+00  2.1459307774148928e-01 1.1640032948794552e+00 0.0000000000000000e+00  2.2000954459640867e-01 1.1398781392584114e+00 0.0000000000000000e+00  2.1432210611229879e-01 1.1778018165564359e+00 0.0000000000000000e+00  2.1811158151605894e-01 1.1644555385935826e+00 0.0000000000000000e+00  2.1503796245563822e-01 1.1849399524036499e+00 0.0000000000000000e+00  2.1744957832116438e-01 1.1807000229656710e+00 0.0000000000000000e+00  2.1327871661309769e-01 1.2087241956831904e+00 0.0000000000000000e+00  2.1911710178727628e-01 1.1812392070622617e+00 0.0000000000000000e+00  2.1084763038425880e-01 1.2370104626435845e+00 0.0000000000000000e+00  2.1955247370167688e-01 1.1900762163192422e+00 0.0000000000000000e+00  2.1129715503524402e-01 1.2458731271424435e+00 0.0000000000000000e+00  2.1685927380777151e-01 1.2199887453487812e+00 0.0000000000000000e+00  2.1452977443189880e-01 1.2359738061732235e+00 0.0000000000000000e+00  2.1252284982313643e-01 1.2609446433085305e+00 0.0000000000000000e+00  2.1817316041262674e-01 1.2232032114898721e+00 0.0000000000000000e+00  2.0864728575349764e-01 1.2989422284429180e+00 0.0000000000000000e+00  2.2070581584764434e-01 1.2176902720861975e+00 0.0000000000000000e+00  2.0609192671015106e-01 1.3282068365862088e+00 0.0000000000000000e+00  2.2201081103060319e-01 1.2204908827504937e+00 0.0000000000000000e+00  2.0465979959117706e-01 1.3495670872621395e+00 0.0000000000000000e+00  2.2251488202046626e-01 1.2292457582394116e+00 0.0000000000000000e+00  2.0393494814777119e-01 1.3656152882002572e+00 0.0000000000000000e+00  2.2252752595915073e-01 1.2414158728645996e+00 0.0000000000000000e+00  2.0371790451892344e-01 1.3788309184982031e+00 0.0000000000000000e+00  2.2213768866490505e-01 1.2549663792583947e+00 0.0000000000000000e+00  2.0391559333267867e-01 1.3907044672432367e+00 0.0000000000000000e+00  2.2149695947226083e-01 1.2694971161242443e+00 0.0000000000000000e+00  2.0424634734170155e-01 1.4006156275668487e+00 0.0000000000000000e+00  2.2095027320432478e-01 1.2864299560801142e+00 0.0000000000000000e+00  2.0441379904501381e-01 1.4075095420043915e+00 0.0000000000000000e+00  2.2054206600396548e-01 1.3053504527237421e+00 0.0000000000000000e+00  2.0472914198149872e-01 1.4142698103099094e+00 0.0000000000000000e+00  2.1963613123573911e-01 1.3213378969878202e+00 0.0000000000000000e+00  2.0585048504472545e-01 1.4260036571830228e+00 0.0000000000000000e+00  2.1799521143282238e-01 1.3322878073781272e+00 0.0000000000000000e+00  2.0715818411018985e-01 1.4390105050019208e+00 0.0000000000000000e+00  2.1716491272375418e-01 1.3483971763224687e+00 0.0000000000000000e+00  2.0665125050495006e-01 1.4401187800270157e+00 0.0000000000000000e+00  2.1853910740470578e-01 1.3789490283489294e+00 0.0000000000000000e+00  2.0474910409625646e-01 1.4322460747799173e+00 0.0000000000000000e+00  2.1916901038163095e-01 1.4036973843539995e+00 0.0000000000000000e+00  2.0637411177546316e-01 1.4491960879481118e+00 0.0000000000000000e+00  2.1422241359664676e-01 1.3897890033001534e+00 0.0000000000000000e+00  2.1309541730383022e-01 1.5012673255844018e+00 0.0000000000000000e+00  2.0809563712347870e-01 1.3662708285674618e+00 0.0000000000000000e+00  2.1405147582594511e-01 1.5155131849630306e+00 0.0000000000000000e+00  2.1460415905423172e-01 1.4299822595183511e+00 0.0000000000000000e+00  1.9922083061882531e-01 1.4230006913845477e+00 0.0000000000000000e+00  2.3142402138232257e-01 1.5596717145148213e+00 0.0000000000000000e+00  1.8804483594777796e-01 1.3527685777566589e+00 0.0000000000000000e+00  2.2415388742196413e-01 1.5329929940189000e+00 0.0000000000000000e+00  2.1548526804685755e-01 1.5580607985794550e+00 0.0000000000000000e+00  1.7531561839298970e-01 1.2123368712368978e+00 0.0000000000000000e+00  2.5719673605010085e-01 1.7994673339970928e+00 0.0000000000000000e+00  8.5041672914967684e-02 6.7001630853724992e-01 0.0000000000000000e+00  2.1649060845546839e-02 -1.4442961268074137e+00 0.0000000000000000e+00  3.5502147033068025e-02 -7.2566589606113197e-01 0.0000000000000000e+00  2.9300744564532917e-02 -9.0578605667825185e-01 0.0000000000000000e+00  3.4031142887943511e-02 -8.7252689942953787e-01 0.0000000000000000e+00  2.9487349830541614e-02 -8.4843817319975268e-01 0.0000000000000000e+00  3.4000260426736366e-02 -8.7760180615757399e-01 0.0000000000000000e+00  2.9453498088541842e-02 -8.3472873166619399e-01 0.0000000000000000e+00  3.4062097773464937e-02 -8.7129484559101877e-01 0.0000000000000000e+00  2.9341647091319617e-02 -8.2334267253905569e-01 0.0000000000000000e+00  3.4189161690401211e-02 -8.6489767458086775e-01 0.0000000000000000e+00  2.9183849155674187e-02 -8.1157198618512272e-01 0.0000000000000000e+00  3.4351260473127011e-02 -8.5874256161917251e-01 0.0000000000000000e+00  2.9000217156653837e-02 -7.9956629481284902e-01 0.0000000000000000e+00  3.4537233476137560e-02 -8.5268048324296297e-01 0.0000000000000000e+00  2.8796064788021450e-02 -7.8742581267243850e-01 0.0000000000000000e+00  3.4744540171542576e-02 -8.4665293297259236e-01 0.0000000000000000e+00  2.8572561684103024e-02 -7.7519084547576056e-01 0.0000000000000000e+00  3.4972275296027783e-02 -8.4062463399022158e-01 0.0000000000000000e+00  2.8330543569470339e-02 -7.6289473923550455e-01 0.0000000000000000e+00  3.5219269271997179e-02 -8.3456145377242619e-01 0.0000000000000000e+00  2.8071247908391678e-02 -7.5057485333244678e-01 0.0000000000000000e+00  3.5484008706664474e-02 -8.2842436990181501e-01 0.0000000000000000e+00  2.7796345732373752e-02 -7.3827373468841762e-01 0.0000000000000000e+00  3.5764317134934609e-02 -8.2217595005922395e-01 0.0000000000000000e+00  2.7508175444756894e-02 -7.2603336623056902e-01 0.0000000000000000e+00  3.6057659645455625e-02 -8.1577715918253912e-01 0.0000000000000000e+00  2.7209304604052544e-02 -7.1390088094995652e-01 0.0000000000000000e+00  3.6360863205739377e-02 -8.0919447876155393e-01 0.0000000000000000e+00  2.6903309443274313e-02 -7.0191220296245904e-01 0.0000000000000000e+00  3.6670170916579176e-02 -8.0240133690463689e-01 0.0000000000000000e+00  2.6593571056779782e-02 -6.9011115354386143e-01 0.0000000000000000e+00  3.6981849710890372e-02 -7.9537009212650633e-01 0.0000000000000000e+00  2.6284599688400242e-02 -6.7852297994157340e-01 0.0000000000000000e+00  3.7290723977910549e-02 -7.8809935972749445e-01 0.0000000000000000e+00  2.5980794559719210e-02 -6.6717396586972011e-01 0.0000000000000000e+00  3.7593257289567465e-02 -7.8056353238391996e-01 0.0000000000000000e+00  2.5685988393891693e-02 -6.5609677966690461e-01 0.0000000000000000e+00  3.7883699182040653e-02 -7.7278043993116963e-01 0.0000000000000000e+00  2.5406405849084192e-02 -6.4527428571497125e-01 0.0000000000000000e+00  3.8157956446137786e-02 -7.6474697377846146e-01 0.0000000000000000e+00  2.5143171137236964e-02 -6.3477287219650069e-01 0.0000000000000000e+00  3.8413878525851132e-02 -7.5643586891595493e-01 0.0000000000000000e+00  2.4902379380132594e-02 -6.2455823457177440e-01 0.0000000000000000e+00  3.8643274125943074e-02 -7.4793150071035075e-01 0.0000000000000000e+00  2.4687251108622781e-02 -6.1463676690255276e-01 0.0000000000000000e+00  3.8850168426122537e-02 -7.3912165490018045e-01 0.0000000000000000e+00  2.4492624654756975e-02 -6.0515480024399404e-01 0.0000000000000000e+00  3.9029850772514404e-02 -7.3005283797295017e-01 0.0000000000000000e+00  2.4332199274471184e-02 -5.9590146488228901e-01 0.0000000000000000e+00  3.9172517707401780e-02 -7.2086825603974103e-01 0.0000000000000000e+00  2.4197274050500307e-02 -5.8705821948541725e-01 0.0000000000000000e+00  3.9300511418935077e-02 -7.1118360854969909e-01 0.0000000000000000e+00  2.4073628465895169e-02 -5.7888855212601575e-01 0.0000000000000000e+00  3.9397059989249077e-02 -7.0129011147938569e-01 0.0000000000000000e+00  2.3997764491183012e-02 -5.7070876035695706e-01 0.0000000000000000e+00  3.9439551595411709e-02 -6.9159248872517232e-01 0.0000000000000000e+00  2.3943470523664252e-02 -5.6295763927001552e-01 0.0000000000000000e+00  3.9497369572647489e-02 -6.8096871890318611e-01 0.0000000000000000e+00  2.3849366055405868e-02 -5.5669433865134343e-01 0.0000000000000000e+00  3.9560503365669936e-02 -6.6965386821077977e-01 0.0000000000000000e+00  2.3803499631051744e-02 -5.5022536965722335e-01 0.0000000000000000e+00  3.9495246878290299e-02 -6.5997090649830670e-01 0.0000000000000000e+00  2.3871099728793248e-02 -5.4225868225462182e-01 0.0000000000000000e+00  3.9375481737774339e-02 -6.5075625026879980e-01 0.0000000000000000e+00  2.3828636961798010e-02 -5.3678272150235540e-01 0.0000000000000000e+00  3.9540566413523021e-02 -6.3638802248812698e-01 0.0000000000000000e+00  2.3395754533850035e-02 -5.3885452231914488e-01 0.0000000000000000e+00  4.0158002626877187e-02 -6.1416440751182566e-01 0.0000000000000000e+00  2.2699698002243338e-02 -5.4611173714255878e-01 0.0000000000000000e+00  4.0933090545935774e-02 -5.8913990310139708e-01 0.0000000000000000e+00  2.2201202242735887e-02 -5.4998909024728782e-01 0.0000000000000000e+00  4.1420064592881868e-02 -5.6881515101769875e-01 0.0000000000000000e+00  2.2118995309048869e-02 -5.4632386403741617e-01 0.0000000000000000e+00  4.1502897458021007e-02 -5.5513363116917558e-01 0.0000000000000000e+00  2.2309956546486601e-02 -5.3773462209217138e-01 0.0000000000000000e+00  4.1