<?xml version="1.0"?>
<VTKFile type="UnstructuredGrid"  version="0.1"  >
<UnstructuredGrid>
<Piece  NumberOfPoints="801" NumberOfCells="800">
<Points>
<DataArray  type="Float64"  NumberOfComponents="3"  format="ascii">-5 0 0  -4.9875 0 0  -4.975 0 0  -4.9625 0 0  -4.95 0 0  -4.9375 0 0  -4.925 0 0  -4.9125 0 0  -4.9 0 0  -4.8875 0 0  -4.875 0 0  -4.8625 0 0  -4.85 0 0  -4.8375 0 0  -4.825 0 0  -4.8125 0 0  -4.8 0 0  -4.7875 0 0  -4.775 0 0  -4.7625 0 0  -4.75 0 0  -4.7375 0 0  -4.725 0 0  -4.7125 0 0  -4.7 0 0  -4.6875 0 0  -4.675 0 0  -4.6625 0 0  -4.65 0 0  -4.6375 0 0  -4.625 0 0  -4.6125 0 0  -4.6 0 0  -4.5875 0 0  -4.575 0 0  -4.5625 0 0  -4.55 0 0  -4.5375 0 0  -4.525 0 0  -4.5125 0 0  -4.5 0 0  -4.4875 0 0  -4.475 0 0  -4.4625 0 0  -4.45 0 0  -4.4375 0 0  -4.425 0 0  -4.4125 0 0  -4.4 0 0  -4.3875 0 0  -4.375 0 0  -4.3625 0 0  -4.35 0 0  -4.3375 0 0  -4.325 0 0  -4.3125 0 0  -4.3 0 0  -4.2875 0 0  -4.275 0 0  -4.2625 0 0  -4.25 0 0  -4.2375 0 0  -4.225 0 0  -4.2125 0 0  -4.2 0 0  -4.1875 0 0  -4.175 0 0  -4.1625 0 0  -4.15 0 0  -4.1375 0 0  -4.125 0 0  -4.1125 0 0  -4.1 0 0  -4.0875 0 0  -4.075 0 0  -4.0625 0 0  -4.05 0 0  -4.0375 0 0  -4.025 0 0  -4.0125 0 0  -4 0 0  -3.9875 0 0  -3.975 0 0  -3.9625 0 0  -3.95 0 0  -3.9375 0 0  -3.925 0 0  -3.9125 0 0  -3.9 0 0  -3.8875 0 0  -3.875 0 0  -3.8625 0 0  -3.85 0 0  -3.8375 0 0  -3.825 0 0  -3.8125 0 0  -3.8 0 0  -3.7875 0 0  -3.775 0 0  -3.7625 0 0  -3.75 0 0  -3.7375 0 0  -3.725 0 0  -3.7125 0 0  -3.7 0 0  -3.6875 0 0  -3.675 0 0  -3.6625 0 0  -3.65 0 0  -3.6375 0 0  -3.625 0 0  -3.6125 0 0  -3.6 0 0  -3.5875 0 0  -3.575 0 0  -3.5625 0 0  -3.55 0 0  -3.5375 0 0  -3.525 0 0  -3.5125 0 0  -3.5 0 0  -3.4875 0 0  -3.475 0 0  -3.4625 0 0  -3.45 0 0  -3.4375 0 0  -3.425 0 0  -3.4125 0 0  -3.4 0 0  -3.3875 0 0  -3.375 0 0  -3.3625 0 0  -3.35 0 0  -3.3375 0 0  -3.325 0 0  -3.3125 0 0  -3.3 0 0  -3.2875 0 0  -3.275 0 0  -3.2625 0 0  -3.25 0 0  -3.2375 0 0  -3.225 0 0  -3.2125 0 0  -3.2 0 0  -3.1875 0 0  -3.175 0 0  -3.1625 0 0  -3.15 0 0  -3.1375 0 0  -3.125 0 0  -3.1125 0 0  -3.1 0 0  -3.0875 0 0  -3.075 0 0  -3.0625 0 0  -3.05 0 0  -3.0375 0 0  -3.025 0 0  -3.0125 0 0  -3 0 0  -2.9875 0 0  -2.975 0 0  -2.9625 0 0  -2.95 0 0  -2.9375 0 0  -2.925 0 0  -2.9125 0 0  -2.9 0 0  -2.8875 0 0  -2.875 0 0  -2.8625 0 0  -2.85 0 0  -2.8375 0 0  -2.825 0 0  -2.8125 0 0  -2.8 0 0  -2.7875 0 0  -2.775 0 0  -2.7625 0 0  -2.75 0 0  -2.7375 0 0  -2.725 0 0  -2.7125 0 0  -2.7 0 0  -2.6875 0 0  -2.675 0 0  -2.6625 0 0  -2.65 0 0  -2.6375 0 0  -2.625 0 0  -2.6125 0 0  -2.6 0 0  -2.5875 0 0  -2.575 0 0  -2.5625 0 0  -2.55 0 0  -2.5375 0 0  -2.525 0 0  -2.5125 0 0  -2.5 0 0  -2.4875 0 0  -2.475 0 0  -2.4625 0 0  -2.45 0 0  -2.4375 0 0  -2.425 0 0  -2.4125 0 0  -2.4 0 0  -2.3875 0 0  -2.375 0 0  -2.3625 0 0  -2.35 0 0  -2.3375 0 0  -2.325 0 0  -2.3125 0 0  -2.3 0 0  -2.2875 0 0  -2.275 0 0  -2.2625 0 0  -2.25 0 0  -2.2375 0 0  -2.225 0 0  -2.2125 0 0  -2.2 0 0  -2.1875 0 0  -2.175 0 0  -2.1625 0 0  -2.15 0 0  -2.1375 0 0  -2.125 0 0  -2.1125 0 0  -2.1 0 0  -2.0875 0 0  -2.075 0 0  -2.0625 0 0  -2.05 0 0  -2.0375 0 0  -2.025 0 0  -2.0125 0 0  -2 0 0  -1.9875 0 0  -1.975 0 0  -1.9625 0 0  -1.95 0 0  -1.9375 0 0  -1.925 0 0  -1.9125 0 0  -1.9 0 0  -1.8875 0 0  -1.875 0 0  -1.8625 0 0  -1.85 0 0  -1.8375 0 0  -1.825 0 0  -1.8125 0 0  -1.8 0 0  -1.7875 0 0  -1.775 0 0  -1.7625 0 0  -1.75 0 0  -1.7375 0 0  -1.725 0 0  -1.7125 0 0  -1.7 0 0  -1.6875 0 0  -1.675 0 0  -1.6625 0 0  -1.65 0 0  -1.6375 0 0  -1.625 0 0  -1.6125 0 0  -1.6 0 0  -1.5875 0 0  -1.575 0 0  -1.5625 0 0  -1.55 0 0  -1.5375 0 0  -1.525 0 0  -1.5125 0 0  -1.5 0 0  -1.4875 0 0  -1.475 0 0  -1.4625 0 0  -1.45 0 0  -1.4375 0 0  -1.425 0 0  -1.4125 0 0  -1.4 0 0  -1.3875 0 0  -1.375 0 0  -1.3625 0 0  -1.35 0 0  -1.3375 0 0  -1.325 0 0  -1.3125 0 0  -1.3 0 0  -1.2875 0 0  -1.275 0 0  -1.2625 0 0  -1.25 0 0  -1.2375 0 0  -1.225 0 0  -1.2125 0 0  -1.2 0 0  -1.1875 0 0  -1.175 0 0  -1.1625 0 0  -1.15 0 0  -1.1375 0 0  -1.125 0 0  -1.1125 0 0  -1.1 0 0  -1.0875 0 0  -1.075 0 0  -1.0625 0 0  -1.05 0 0  -1.0375 0 0  -1.025 0 0  -1.0125 0 0  -1 0 0  -0.9874999999999998 0 0  -0.9749999999999996 0 0  -0.9625000000000004 0 0  -0.9500000000000002 0 0  -0.9375 0 0  -0.9249999999999998 0 0  -0.9124999999999996 0 0  -0.9000000000000004 0 0  -0.8875000000000002 0 0  -0.875 0 0  -0.8624999999999998 0 0  -0.8499999999999996 0 0  -0.8375000000000004 0 0  -0.8250000000000002 0 0  -0.8125 0 0  -0.7999999999999998 0 0  -0.7874999999999996 0 0  -0.7750000000000004 0 0  -0.7625000000000002 0 0  -0.75 0 0  -0.7374999999999998 0 0  -0.7249999999999996 0 0  -0.7125000000000004 0 0  -0.7000000000000002 0 0  -0.6875 0 0  -0.6749999999999998 0 0  -0.6624999999999996 0 0  -0.6500000000000004 0 0  -0.6375000000000002 0 0  -0.625 0 0  -0.6124999999999998 0 0  -0.5999999999999996 0 0  -0.5875000000000004 0 0  -0.5750000000000002 0 0  -0.5625 0 0  -0.5499999999999998 0 0  -0.5374999999999996 0 0  -0.5250000000000004 0 0  -0.5125000000000002 0 0  -0.5 0 0  -0.4874999999999998 0 0  -0.4749999999999996 0 0  -0.4625000000000004 0 0  -0.4500000000000002 0 0  -0.4375 0 0  -0.4249999999999998 0 0  -0.4124999999999996 0 0  -0.4000000000000004 0 0  -0.3875000000000002 0 0  -0.375 0 0  -0.3624999999999998 0 0  -0.3499999999999996 0 0  -0.3375000000000004 0 0  -0.3250000000000002 0 0  -0.3125 0 0  -0.2999999999999998 0 0  -0.2874999999999996 0 0  -0.2750000000000004 0 0  -0.2625000000000002 0 0  -0.25 0 0  -0.2374999999999998 0 0  -0.2249999999999996 0 0  -0.2125000000000004 0 0  -0.2000000000000002 0 0  -0.1875 0 0  -0.1749999999999998 0 0  -0.1624999999999996 0 0  -0.1500000000000004 0 0  -0.1375000000000002 0 0  -0.125 0 0  -0.1124999999999998 0 0  -0.09999999999999964 0 0  -0.08750000000000036 0 0  -0.07500000000000018 0 0  -0.0625 0 0  -0.04999999999999982 0 0  -0.03749999999999964 0 0  -0.02500000000000036 0 0  -0.01250000000000018 0 0  0 0 0  0.01250000000000018 0 0  0.02500000000000036 0 0  0.03749999999999964 0 0  0.04999999999999982 0 0  0.0625 0 0  0.07500000000000018 0 0  0.08750000000000036 0 0  0.09999999999999964 0 0  0.1124999999999998 0 0  0.125 0 0  0.1375000000000002 0 0  0.1500000000000004 0 0  0.1624999999999996 0 0  0.1749999999999998 0 0  0.1875 0 0  0.2000000000000002 0 0  0.2125000000000004 0 0  0.2249999999999996 0 0  0.2374999999999998 0 0  0.25 0 0  0.2625000000000002 0 0  0.2750000000000004 0 0  0.2874999999999996 0 0  0.2999999999999998 0 0  0.3125 0 0  0.3250000000000002 0 0  0.3375000000000004 0 0  0.3499999999999996 0 0  0.3624999999999998 0 0  0.375 0 0  0.3875000000000002 0 0  0.4000000000000004 0 0  0.4124999999999996 0 0  0.4249999999999998 0 0  0.4375 0 0  0.4500000000000002 0 0  0.4625000000000004 0 0  0.4749999999999996 0 0  0.4874999999999998 0 0  0.5 0 0  0.5125000000000002 0 0  0.5250000000000004 0 0  0.5374999999999996 0 0  0.5499999999999998 0 0  0.5625 0 0  0.5750000000000002 0 0  0.5875000000000004 0 0  0.5999999999999996 0 0  0.6124999999999998 0 0  0.625 0 0  0.6375000000000002 0 0  0.6500000000000004 0 0  0.6624999999999996 0 0  0.6749999999999998 0 0  0.6875 0 0  0.7000000000000002 0 0  0.7125000000000004 0 0  0.7249999999999996 0 0  0.7374999999999998 0 0  0.75 0 0  0.7625000000000002 0 0  0.7750000000000004 0 0  0.7874999999999996 0 0  0.7999999999999998 0 0  0.8125 0 0  0.8250000000000002 0 0  0.8375000000000004 0 0  0.8499999999999996 0 0  0.8624999999999998 0 0  0.875 0 0  0.8875000000000002 0 0  0.9000000000000004 0 0  0.9124999999999996 0 0  0.9249999999999998 0 0  0.9375 0 0  0.9500000000000002 0 0  0.9625000000000004 0 0  0.9749999999999996 0 0  0.9874999999999998 0 0  1 0 0  1.0125 0 0  1.025 0 0  1.0375 0 0  1.05 0 0  1.0625 0 0  1.075 0 0  1.0875 0 0  1.1 0 0  1.1125 0 0  1.125 0 0  1.1375 0 0  1.15 0 0  1.1625 0 0  1.175 0 0  1.1875 0 0  1.2 0 0  1.2125 0 0  1.225 0 0  1.2375 0 0  1.25 0 0  1.2625 0 0  1.275 0 0  1.2875 0 0  1.3 0 0  1.3125 0 0  1.325 0 0  1.3375 0 0  1.35 0 0  1.3625 0 0  1.375 0 0  1.3875 0 0  1.4 0 0  1.4125 0 0  1.425 0 0  1.4375 0 0  1.45 0 0  1.4625 0 0  1.475 0 0  1.4875 0 0  1.5 0 0  1.5125 0 0  1.525 0 0  1.5375 0 0  1.55 0 0  1.5625 0 0  1.575 0 0  1.5875 0 0  1.6 0 0  1.6125 0 0  1.625 0 0  1.6375 0 0  1.65 0 0  1.6625 0 0  1.675 0 0  1.6875 0 0  1.7 0 0  1.7125 0 0  1.725 0 0  1.7375 0 0  1.75 0 0  1.7625 0 0  1.775 0 0  1.7875 0 0  1.8 0 0  1.8125 0 0  1.825 0 0  1.8375 0 0  1.85 0 0  1.8625 0 0  1.875 0 0  1.8875 0 0  1.9 0 0  1.9125 0 0  1.925 0 0  1.9375 0 0  1.95 0 0  1.9625 0 0  1.975 0 0  1.9875 0 0  2 0 0  2.0125 0 0  2.025 0 0  2.0375 0 0  2.05 0 0  2.0625 0 0  2.075 0 0  2.0875 0 0  2.1 0 0  2.1125 0 0  2.125 0 0  2.1375 0 0  2.15 0 0  2.1625 0 0  2.175 0 0  2.1875 0 0  2.2 0 0  2.2125 0 0  2.225 0 0  2.2375 0 0  2.25 0 0  2.2625 0 0  2.275 0 0  2.2875 0 0  2.3 0 0  2.3125 0 0  2.325 0 0  2.3375 0 0  2.35 0 0  2.3625 0 0  2.375 0 0  2.3875 0 0  2.4 0 0  2.4125 0 0  2.425 0 0  2.4375 0 0  2.45 0 0  2.4625 0 0  2.475 0 0  2.4875 0 0  2.5 0 0  2.5125 0 0  2.525 0 0  2.5375 0 0  2.55 0 0  2.5625 0 0  2.575 0 0  2.5875 0 0  2.6 0 0  2.6125 0 0  2.625 0 0  2.6375 0 0  2.65 0 0  2.6625 0 0  2.675 0 0  2.6875 0 0  2.7 0 0  2.7125 0 0  2.725 0 0  2.7375 0 0  2.75 0 0  2.7625 0 0  2.775 0 0  2.7875 0 0  2.8 0 0  2.8125 0 0  2.825 0 0  2.8375 0 0  2.85 0 0  2.8625 0 0  2.875 0 0  2.8875 0 0  2.9 0 0  2.9125 0 0  2.925 0 0  2.9375 0 0  2.95 0 0  2.9625 0 0  2.975 0 0  2.9875 0 0  3 0 0  3.012499999999999 0 0  3.025 0 0  3.0375 0 0  3.050000000000001 0 0  3.0625 0 0  3.074999999999999 0 0  3.0875 0 0  3.1 0 0  3.112500000000001 0 0  3.125 0 0  3.137499999999999 0 0  3.15 0 0  3.1625 0 0  3.175000000000001 0 0  3.1875 0 0  3.199999999999999 0 0  3.2125 0 0  3.225 0 0  3.237500000000001 0 0  3.25 0 0  3.262499999999999 0 0  3.275 0 0  3.2875 0 0  3.300000000000001 0 0  3.3125 0 0  3.324999999999999 0 0  3.3375 0 0  3.35 0 0  3.362500000000001 0 0  3.375 0 0  3.387499999999999 0 0  3.4 0 0  3.4125 0 0  3.425000000000001 0 0  3.4375 0 0  3.449999999999999 0 0  3.4625 0 0  3.475 0 0  3.4875
[...]
<PointData  Vectors="(h, u)"> 
<DataArray  type="Float64"  Name="(h, u)"  NumberOfComponents="3" format="ascii">1.3169030653698785e-01 0.0000000000000000e+00 0.0000000000000000e+00  1.2247728315103322e-01 8.5189694489051799e-03 0.0000000000000000e+00  1.3170500180559777e-01 1.3205760955803960e-03 0.0000000000000000e+00  1.2244139520328746e-01 2.5377197968991235e-02 0.0000000000000000e+00  1.3173708753594271e-01 3.0046813632775521e-03 0.0000000000000000e+00  1.2239364812347954e-01 4.1684363568422061e-02 0.0000000000000000e+00  1.3175440147719397e-01 5.4276483898785619e-03 0.0000000000000000e+00  1.2237404213518421e-01 5.7050037787614562e-02 0.0000000000000000e+00  1.3171476502425630e-01 8.9627688317868368e-03 0.0000000000000000e+00  1.2242576802416739e-01 7.1097496583246655e-02 0.0000000000000000e+00  1.3157881566009988e-01 1.3931355273778432e-02 0.0000000000000000e+00  1.2258250665186600e-01 8.3535252981658231e-02 0.0000000000000000e+00  1.3132108150833122e-01 2.0529712721042332e-02 0.0000000000000000e+00  1.2285977399143844e-01 9.4241180285488668e-02 0.0000000000000000e+00  1.3093600036876474e-01 2.8764197412407520e-02 0.0000000000000000e+00  1.2325212026301915e-01 1.0331961731673357e-01 0.0000000000000000e+00  1.3043811273388986e-01 3.8426936055935175e-02 0.0000000000000000e+00  1.2373573566021043e-01 1.1109772020626893e-01 0.0000000000000000e+00  1.2985791271497840e-01 4.9129892390744778e-02 0.0000000000000000e+00  1.2427436819160242e-01 1.1805285055860477e-01 0.0000000000000000e+00  1.2923555386105606e-01 6.0393050572896720e-02 0.0000000000000000e+00  1.2482599272168793e-01 1.2469497502216899e-01 0.0000000000000000e+00  1.2861412875627926e-01 7.1760956438382137e-02 0.0000000000000000e+00  1.2534868322275980e-01 1.3144655339844752e-01 0.0000000000000000e+00  1.2803367323266407e-01 8.2906938504555480e-02 0.0000000000000000e+00  1.2580561118761779e-01 1.3855918782576979e-01 0.0000000000000000e+00  1.2752657311056581e-01 9.3686796590382163e-02 0.0000000000000000e+00  1.2616931118490415e-01 1.4609083384766042e-01 0.0000000000000000e+00  1.2711438958202270e-01 1.0412767642200220e-01 0.0000000000000000e+00  1.2642445882567885e-01 1.5394747628423969e-01 0.0000000000000000e+00  1.2680596836993382e-01 1.1436649924635223e-01 0.0000000000000000e+00  1.2656838007315852e-01 1.6196796895071475e-01 0.0000000000000000e+00  1.2659748680286720e-01 1.2456585559888343e-01 0.0000000000000000e+00  1.2660967537899240e-01 1.7001051593939989e-01 0.0000000000000000e+00  1.2647510694401409e-01 1.3483745018922547e-01 0.0000000000000000e+00  1.2656568057807235e-01 1.7800502357096221e-01 0.0000000000000000e+00  1.2641902266170049e-01 1.4520390786486748e-01 0.0000000000000000e+00  1.2645885055290992e-01 1.8596231761370607e-01 0.0000000000000000e+00  1.2640658700703938e-01 1.5561555529535306e-01 0.0000000000000000e+00  1.2631287958402851e-01 1.9394735850144093e-01 0.0000000000000000e+00  1.2641412213183106e-01 1.6600295285329050e-01 0.0000000000000000e+00  1.2615064204028328e-01 2.0202562387492995e-01 0.0000000000000000e+00  1.2641873143180204e-01 1.7632548498999556e-01 0.0000000000000000e+00  1.2599411625397858e-01 2.1020760756009776e-01 0.0000000000000000e+00  1.2639995610823723e-01 1.8659734074669831e-01 0.0000000000000000e+00  1.2586326009856613e-01 2.1843273748488976e-01 0.0000000000000000e+00  1.2634040308694894e-01 1.9689245401203745e-01 0.0000000000000000e+00  1.2577257145061890e-01 2.2660414264217196e-01 0.0000000000000000e+00  1.2622732349203403e-01 2.0731691783805384e-01 0.0000000000000000e+00  1.2572843056652488e-01 2.3463677281581230e-01 0.0000000000000000e+00  1.2605704716266125e-01 2.1794391913904654e-01 0.0000000000000000e+00  1.2572868218829908e-01 2.4249206549937041e-01 0.0000000000000000e+00  1.2583830743035851e-01 2.2875735972553882e-01 0.0000000000000000e+00  1.2576159906603709e-01 2.5021303404249712e-01 0.0000000000000000e+00  1.2558961770918481e-01 2.3965355271526620e-01 0.0000000000000000e+00  1.2580508058562623e-01 2.5794722311038931e-01 0.0000000000000000e+00  1.2533411929573376e-01 2.5047296331755964e-01 0.0000000000000000e+00  1.2583196739627348e-01 2.6590629324537407e-01 0.0000000000000000e+00  1.2509721859260911e-01 2.6101510166940867e-01 0.0000000000000000e+00  1.2581955305264875e-01 2.7428190907245481e-01 0.0000000000000000e+00  1.2490286328798146e-01 2.7107282954195006e-01 0.0000000000000000e+00  1.2575301688078941e-01 2.8321086024197567e-01 0.0000000000000000e+00  1.2476476935698559e-01 2.8051738838657375e-01 0.0000000000000000e+00  1.2562320838635702e-01 2.9278681856757638e-01 0.0000000000000000e+00  1.2468269702398693e-01 2.8934234565779787e-01 0.0000000000000000e+00  1.2542991778815926e-01 3.0302132938100201e-01 0.0000000000000000e+00  1.2465004780652697e-01 2.9760758230277118e-01 0.0000000000000000e+00  1.2518706431614696e-01 3.1378767754068876e-01 0.0000000000000000e+00  1.2465800217904510e-01 3.0541054371005272e-01 0.0000000000000000e+00  1.2491517381567570e-01 3.2488040088259695e-01 0.0000000000000000e+00  1.2468834468408251e-01 3.1295154241664380e-01 0.0000000000000000e+00  1.2463007013245564e-01 3.3611478622651064e-01 0.0000000000000000e+00  1.2471495669832834e-01 3.2051481548895522e-01 0.0000000000000000e+00  1.2434871983608098e-01 3.4728245619536607e-01 0.0000000000000000e+00  1.2472007580020665e-01 3.2831246099924222e-01 0.0000000000000000e+00  1.2409706688860328e-01 3.5809517662928836e-01 0.0000000000000000e+00  1.2469574958008728e-01 3.3645852248672187e-01 0.0000000000000000e+00  1.2389356262768203e-01 3.6834454800559674e-01 0.0000000000000000e+00  1.2462780521690298e-01 3.4510245975147108e-01 0.0000000000000000e+00  1.2373559930709688e-01 3.7803233369599998e-01 0.0000000000000000e+00  1.2450361168180317e-01 3.5435663501598491e-01 0.0000000000000000e+00  1.2362040393305800e-01 3.8718940830187321e-01 0.0000000000000000e+00  1.2433651162186171e-01 3.6408122264769571e-01 0.0000000000000000e+00  1.2355504532600074e-01 3.9578272465382947e-01 0.0000000000000000e+00  1.2414937381400805e-01 3.7403912210378726e-01 0.0000000000000000e+00  1.2352551174529447e-01 4.0397826917754026e-01 0.0000000000000000e+00  1.2394358042648858e-01 3.8418231036214917e-01 0.0000000000000000e+00  1.2349842058652030e-01 4.1211451507159885e-01 0.0000000000000000e+00  1.2372619027702844e-01 3.9441588193365890e-01 0.0000000000000000e+00  1.2347014700383162e-01 4.2025887494705894e-01 0.0000000000000000e+00  1.2353266032892650e-01 4.0439881568154734e-01 0.0000000000000000e+00  1.2345158253672074e-01 4.2833890341231623e-01 0.0000000000000000e+00  1.2337128456463217e-01 4.1404178908477607e-01 0.0000000000000000e+00  1.2341597108300528e-01 4.3660564826554110e-01 0.0000000000000000e+00  1.2321515652690987e-01 4.2357735062951457e-01 0.0000000000000000e+00  1.2335094441312040e-01 4.4517457084051376e-01 0.0000000000000000e+00  1.2308002597138461e-01 4.3286130164969089e-01 0.0000000000000000e+00  1.2329724454845557e-01 4.5368422323256991e-01 0.0000000000000000e+00  1.2298763719042083e-01 4.4169995676146828e-01 0.0000000000000000e+00  1.2325043921672728e-01 4.6217040942786386e-01 0.0000000000000000e+00  1.2289195164650243e-01 4.5051167612681531e-01 0.0000000000000000e+00  1.2317608941842345e-01 4.7092838869795350e-01 0.0000000000000000e+00  1.2278932792174861e-01 4.5934460687148859e-01 0.0000000000000000e+00  1.2312214444974127e-01 4.7950848559571529e-01 0.0000000000000000e+00  1.2272824396639360e-01 4.6779462118319914e-01 0.0000000000000000e+00  1.2309713495552778e-01 4.8779707342537887e-01 0.0000000000000000e+00  1.2266014624290016e-01 4.7634310592746709e-01 0.0000000000000000e+00  1.2303679264159149e-01 4.9631246286678754e-01 0.0000000000000000e+00  1.2257437062078994e-01 4.8514645883224072e-01 0.0000000000000000e+00  1.2299464209050795e-01 5.0451196007144017e-01 0.0000000000000000e+00  1.2254703651447414e-01 4.9359113678812988e-01 0.0000000000000000e+00  1.2297849943381872e-01 5.1226003545587773e-01 0.0000000000000000e+00  1.2251196521512522e-01 5.0233286781161568e-01 0.0000000000000000e+00  1.2290172234066181e-01 5.2027529306851128e-01 0.0000000000000000e+00  1.2247016207360915e-01 5.1140477894857539e-01 0.0000000000000000e+00  1.2285242766465605e-01 5.2774390381221770e-01 0.0000000000000000e+00  1.2250786406827582e-01 5.2004614811562899e-01 0.0000000000000000e+00  1.2280688220001075e-01 5.3488472538419662e-01 0.0000000000000000e+00  1.2250901363739344e-01 5.2927248040958230e-01 0.0000000000000000e+00  1.2269115535834878e-01 5.4239854671227594e-01 0.0000000000000000e+00  1.2253539875319505e-01 5.3847301167083739e-01 0.0000000000000000e+00  1.2264508769353735e-01 5.4910509703267263e-01 0.0000000000000000e+00  1.2262150833946513e-01 5.4726325762202699e-01 0.0000000000000000e+00  1.2255064032314343e-01 5.5614079473421107e-01 0.0000000000000000e+00  1.2262747008477115e-01 5.5681152975000081e-01 0.0000000000000000e+00  1.2244455309558037e-01 5.6325789233039791e-01 0.0000000000000000e+00  1.2272314194099657e-01 5.6552192890612030e-01 0.0000000000000000e+00  1.2241635421477944e-01 5.6972468393881270e-01 0.0000000000000000e+00  1.2277218128802329e-01 5.7455640325628199e-01 0.0000000000000000e+00  1.2228355774076072e-01 5.7722381413876966e-01 0.0000000000000000e+00  1.2280059667515358e-01 5.8363883932402760e-01 0.0000000000000000e+00  1.2226928929171833e-01 5.8379294655845881e-01 0.0000000000000000e+00  1.2290945420590935e-01 5.9184086584318130e-01 0.0000000000000000e+00  1.2218911268488508e-01 5.9110489202407324e-01 0.0000000000000000e+00  1.2288005932947921e-01 6.0109900712594466e-01 0.0000000000000000e+00  1.2212999020247359e-01 5.9839576457764543e-01 0.0000000000000000e+00  1.2299639951538617e-01 6.0886205972989238e-01 0.0000000000000000e+00  1.2213978239288022e-01 6.0524986128063518e-01 0.0000000000000000e+00  1.2296689915541413e-01 6.1772714817179319e-01 0.0000000000000000e+00  1.2203278690203199e-01 6.1333725752027668e-01 0.0000000000000000e+00  1.2302857912765262e-01 6.2556928361410447e-01 0.0000000000000000e+00  1.2211295797842946e-01 6.1993834803744097e-01 0.0000000000000000e+00  1.2304191938122855e-01 6.3364082119888920e-01 0.0000000000000000e+00  1.2199322643369444e-01 6.2851133972180206e-01 0.0000000000000000e+00  1.2302203534675582e-01 6.4181797295244358e-01 0.0000000000000000e+00  1.2210219927300001e-01 6.3519753853689698e-01 0.0000000000000000e+00  1.2308984387899348e-01 6.4904806786756930e-01 0.0000000000000000e+00  1.2200095997780977e-01 6.4389998561781137e-01 0.0000000000000000e+00  1.2299545747798434e-01 6.5759347181834271e-01 0.0000000000000000e+00  1.2210567357145946e-01 6.5085559789417224e-01 0.0000000000000000e+00  1.2311382298401646e-01 6.6414052708385418e-01 0.0000000000000000e+00  1.2203174940612933e-01 6.5947886008294665e-01 0.0000000000000000e+00  1.2296294724942114e-01 6.7302289582631258e-01 0.0000000000000000e+00  1.2212025531437756e-01 6.6668734126835316e-01 0.0000000000000000e+00  1.2312923543216008e-01 6.7902294800939844e-01 0.0000000000000000e+00  1.2206644018769401e-01 6.7519867139275513e-01 0.0000000000000000e+00  1.2293244449163319e-01 6.8822742811427606e-01 0.0000000000000000e+00  1.2214230495178346e-01 6.8256743393688890e-01 0.0000000000000000e+00  1.2313839655717522e-01 6.9379785394982119e-01 0.0000000000000000e+00  1.2208620252602745e-01 6.9113852164201639e-01 0.0000000000000000e+00  1.2291100288181216e-01 7.0320677279991384e-01 0.0000000000000000e+00  1.2218965657470231e-01 6.9829295812489733e-01 0.0000000000000000e+00  1.2315402458395175e-01 7.0838819525013419e-01 0.0000000000000000e+00  1.2207988753250130e-01 7.0735859584340388e-01 0.0000000000000000e+00  1.2290668189015573e-01 7.1794595141773898e-01 0.0000000000000000e+00  1.2225571648506865e-01 7.1383989092743649e-01 0.0000000000000000e+00  1.2316134264967064e-01 7.2304573999420940e-01 0.0000000000000000e+00  1.2201423288726318e-01 7.2399629063589022e-01 0.0000000000000000e+00  1.2294771171425868e-01 7.3239502684421443e-01 0.0000000000000000e+00  1.2231263617355022e-01 7.2921672060834719e-01 0.0000000000000000e+00  1.2315928426575827e-01 7.3805149322910735e-01 0.0000000000000000e+00  1.2192118907632468e-01 7.4047514108080137e-01 0.0000000000000000e+00  1.2315627114218146e-01 7.4575514095574758e-01 0.0000000000000000e+00  1.2232706873317901e-01 7.4444477790078523e-01 0.0000000000000000e+00  1.2312265983377699e-01 7.5387630345129308e-01 0.0000000000000000e+00  1.2180332219562158e-01 7.5657997005950806e-01 0.0000000000000000e+00  1.2348247251495685e-01 7.5859873531030253e-01 0.0000000000000000e+00  1.2210326873774850e-01 7.6122748029289955e-01 0.0000000000000000e+00  1.2310027577682331e-01 7.7004127359525265e-01 0.0000000000000000e+00  1.2185432599077516e-01 7.7070992889034318e-01 0.0000000000000000e+00  1.2384286586837738e-01 7.7145539742674885e-01 0.0000000000000000e+00  1.2160414786621948e-01 7.8019300611238085e-01 0.0000000000000000e+00  1.2334963352598563e-01 7.8388178927736907e-01 0.0000000000000000e+00  1.2201755575475230e-01 7.8378743179598964e-01 0.0000000000000000e+00  1.2378628364158531e-01 7.8791188233879195e-01 0.0000000000000000e+00  1.2110075872922288e-01 7.9937795230043851e-01 0.0000000000000000e+00  1.2406439719639566e-01 7.9321820686336830e-01 0.0000000000000000e+00  1.2181537603672689e-01 8.0050753901109106e-01 0.0000000000000000e+00  1.2343004352067925e-01 8.0654418958482699e-01 0.0000000000000000e+00  1.2151296137214597e-01 8.1085740772352621e-01 0.0000000000000000e+00  1.2460750878832885e-01 8.0354248125045469e-01 0.0000000000000000e+00  1.2095632979252097e-01 8.2359439129834733e-01 0.0000000000000000e+00  1.2399034106694297e-01 8.1646030415984583e-01 0.0000000000000000e+00  1.2219744100505825e-01 8.2035663020487037e-01 0.0000000000000000e+00  1.2361507381746360e-01 8.2711781534646089e-01 0.0000000000000000e+00  1.2118806743344349e-01 8.3731466748207584e-01 0.0000000000000000e+00  1.2493487397688881e-01 8.2254638805956182e-01 0.0000000000000000e+00  1.2097643128509522e-01 8.4720319010330392e-01 0.0000000000000000e+00  1.2348940662292361e-01 8.4263266659362412e-01 0.0000000000000000e+00  1.2284478252745572e-01 8.3853024112840280e-01 0.0000000000000000e+00  1.2287969876081735e-01 8.5516837524032163e-01 0.0000000000000000e+00  1.2159405047126889e-01 8.5781632521162576e-01 0.0000000000000000e+00  1.2478268458797716e-01 8.4518401253924058e-01 0.0000000000000000e+00  1.2101853773387392e-01 8.7112329198102678e-01 0.0000000000000000e+00  1.2314259026070232e-01 8.6681118810036994e-01 0.0000000000000000e+00  1.2402097613940662e-01 8.5248128484215902e-01 0.0000000000000000e+00  1.2092818315708065e-01 8.9346393183119677e-01 0.0000000000000000e+00  1.2380054449674503e-01 8.6267075609804977e-01 0.0000000000000000e+00  1.2347902235598697e-01 8.7759570159304567e-01 0.0000000000000000e+00  1.2083137668228976e-01 8.9740864774115325e-01 0.0000000000000000e+00  1.2461747722491109e-01 8.7435465411123325e-01 0.0000000000000000e+00  1.2275140731176101e-01 8.8837395490458848e-01 0.0000000000000000e+00  1.2037035188772709e-01 9.1942173930518545e-01 0.0000000000000000e+00  1.2713103663058095e-01 8.5697053033477055e-01 0.0000000000000000e+00  1.1796162549982621e-01 9.4833012941418893e-01 0.0000000000000000e+00  1.2611266595268875e-01 8.7352839881314170e-01 0.0000000000000000e+00  1.2234973156698389e-01 9.1710390750530824e-01 0.0000000000000000e+00  1.2027260002222816e-01 9.3257771325368277e-01 0.0000000000000000e+00  1.2765191104507914e-01 8.7826513934450046e-01 0.0000000000000000e+00  1.1713658375361849e-01 9.6658850804395058e-01 0.0000000000000000e+00  1.2751236895412815e-01 8.8908912856477496e-01 0.0000000000000000e+00  1.2043955776166108e-01 9.4200133675228115e-01 0.0000000000000000e+00  1.2237119586564935e-01 9.4588994351715427e-01 0.0000000000000000e+00  1.2627405911245623e-01 8.9323164744011130e-01 0.0000000000000000e+00  1.1687137213407593e-01 1.0074603233289059e+00 0.0000000000000000e+00  1.2987832311290631e-01 8.6237024604258206e-01 0.0000000000000000e+00  1.1459683020171683e-01 1.0423308573409513e+00 0.0000000000000000e+00  1.3024403957309147e-01 8.5826221913229417e-01 0.0000000000000000e+00  1.1554473283425677e-01 1.0508177287183398e+00 0.0000000000000000e+00  1.2855402021639123e-01 8.6988334399522249e-01 0.0000000000000000e+00  1.1808469697809260e-01 1.0479674489311819e+00 0.0000000000000000e+00  1.2607969000852745e-01 8.8529729417614000e-01 0.0000000000000000e+00  1.2093632870100812e-01 1.0456552818788554e+00 0.0000000000000000e+00  1.2356938082293625e-01 8.9742583792060759e-01 0.0000000000000000e+00  1.2355323468879965e-01 1.0489494912917106e+00 0.0000000000000000e+00  1.2129524729794718e-01 9.0371187970509348e-01 0.0000000000000000e+00  1.2584571839742345e-01 1.0585129790702696e+00 0.0000000000000000e+00  1.1928193390209900e-01 9.0417867236697946e-01 0.0000000000000000e+00  1.2786200825195368e-01 1.0733450277390928e+00 0.0000000000000000e+00  1.1751283658725049e-01 8.9973526955894445e-01 0.0000000000000000e+00  1.2960874542550893e-01 1.0922817337322666e+00 0.0000000000000000e+00  1.1602546182922154e-01 8.9144925348411697e-01 0.0000000000000000e+00  1.3101896616668851e-01 1.1142420673429994e+00 0.0000000000000000e+00  1.1490889933382260e-01 8.8060359796137733e-01 0.0000000000000000e+00  1.3198606977171970e-01 1.1379898743265737e+00 0.0000000000000000e+00  1.1424544074354837e-01 8.6910603191736358e-01 0.0000000000000000e+00  1.3243003811319004e-01 1.1617417284876812e+00 0.0000000000000000e+00  1.1407729458069357e-01 8.5948414553478369e-01 0.0000000000000000e+00  1.3234939795281847e-01 1.1830386529160564e+00 0.0000000000000000e+00  1.1438812670578806e-01 8.5456613647121749e-01 0.0000000000000000e+00  1.3181344042611617e-01 1.1992477635350089e+00 0.0000000000000000e+00  1.1516929510404041e-01 8.5628484914395908e-01 0.0000000000000000e+00  1.3097846942418848e-01 1.2078889377522604e+00 0.0000000000000000e+00  1.1651602595379619e-01 8.6424760764766639e-01 0.0000000000000000e+00  1.2988511934923189e-01 1.2088212970091905e+00 0.0000000000000000e+00  1.1868935321150130e-01 8.7484675606900342e-01 0.0000000000000000e+00  1.2853563357296013e-01 1.2037756866743659e+00 0.0000000000000000e+00  1.2183285042578812e-01 8.8386258240554083e-01 0.0000000000000000e+00  1.2717368752468380e-01 1.1937992631093224e+00 0.0000000000000000e+00  1.2674054379458288e-01 8.8004143566766091e-01 0.0000000000000000e+00  1.2180366349580152e-01 1.2185464109444226e+00 0.0000000000000000e+00  1.3405848780581478e-01 8.5272809487874879e-01 0.0000000000000000e+00  1.0964750576170601e-01 1.3095894668732624e+00 0.0000000000000000e+00  1.2415264082405994e-01 9.7347879744832710e-01 0.0000000000000000e+00  1.1839757097467926e-01 1.2183440780026773e+00 0.0000000000000000e+00  1.2292000603107535e-01 1.0069118796771914e+00 0.0000000000000000e+00  1.2088040163970146e-01 1.1951324766219846e+00 0.0000000000000000e+00  1.2177670727869677e-01 1.0292625463235889e+00 0.0000000000000000e+00  1.2470271680553265e-01 1.1689651720446628e+00 0.0000000000000000e+00  1.1696117065768989e-01 1.0756759558690099e+00 0.0000000000000000e+00  1.2806673551169756e-01 1.1533088836574759e+00 0.0000000000000000e+00  1.1881982786087059e-01 1.0569209953106278e+00 0.0000000000000000e+00  1.2462047323236136e-01 1.2009442848802652e+00 0.0000000000000000e+00  1.2589971256905344e-01 9.9120847305294701e-01 0.0000000000000000e+00  1.2030602509243937e-01 1.2547025837692647e+00 0.0000000000000000e+00  1.3052988432721324e-01 9.5124956082740364e-01 0.0000000000000000e+00  1.1914866740970728e-01 1.2747929095791914e+00 0.0000000000000000e+00  1.1768247042868883e-01 1.0738883929507823e+00 0.0000000000000000e+00  1.3354035847414614e-01 1.1490256113575019e+00 0.0000000000000000e+00  1.1008390061552370e-01 1.1563476544328259e+00 0.0000000000000000e+00  1.2988188119917693e-01 1.1787273420743127e+00 0.0000000000000000e+00  1.2639871523824520e-01 1.0287511686425055e+00 0.0000000000000000e+00  1.1802434908816448e-01 1.2795920460990757e+00 0.0000000000000000e+00  1.4021962190222162e-01 9.2746235846550107e-01 0.0000000000000000e+00  1.145564