<?xml version="1.0"?>
<VTKFile type="UnstructuredGrid"  version="0.1"  >
<UnstructuredGrid>
<Piece  NumberOfPoints="801" NumberOfCells="800">
<Points>
<DataArray  type="Float64"  NumberOfComponents="3"  format="ascii">-5 0 0  -4.9875 0 0  -4.975 0 0  -4.9625 0 0  -4.95 0 0  -4.9375 0 0  -4.925 0 0  -4.9125 0 0  -4.9 0 0  -4.8875 0 0  -4.875 0 0  -4.8625 0 0  -4.85 0 0  -4.8375 0 0  -4.825 0 0  -4.8125 0 0  -4.8 0 0  -4.7875 0 0  -4.775 0 0  -4.7625 0 0  -4.75 0 0  -4.7375 0 0  -4.725 0 0  -4.7125 0 0  -4.7 0 0  -4.6875 0 0  -4.675 0 0  -4.6625 0 0  -4.65 0 0  -4.6375 0 0  -4.625 0 0  -4.6125 0 0  -4.6 0 0  -4.5875 0 0  -4.575 0 0  -4.5625 0 0  -4.55 0 0  -4.5375 0 0  -4.525 0 0  -4.5125 0 0  -4.5 0 0  -4.4875 0 0  -4.475 0 0  -4.4625 0 0  -4.45 0 0  -4.4375 0 0  -4.425 0 0  -4.4125 0 0  -4.4 0 0  -4.3875 0 0  -4.375 0 0  -4.3625 0 0  -4.35 0 0  -4.3375 0 0  -4.325 0 0  -4.3125 0 0  -4.3 0 0  -4.2875 0 0  -4.275 0 0  -4.2625 0 0  -4.25 0 0  -4.2375 0 0  -4.225 0 0  -4.2125 0 0  -4.2 0 0  -4.1875 0 0  -4.175 0 0  -4.1625 0 0  -4.15 0 0  -4.1375 0 0  -4.125 0 0  -4.1125 0 0  -4.1 0 0  -4.0875 0 0  -4.075 0 0  -4.0625 0 0  -4.05 0 0  -4.0375 0 0  -4.025 0 0  -4.0125 0 0  -4 0 0  -3.9875 0 0  -3.975 0 0  -3.9625 0 0  -3.95 0 0  -3.9375 0 0  -3.925 0 0  -3.9125 0 0  -3.9 0 0  -3.8875 0 0  -3.875 0 0  -3.8625 0 0  -3.85 0 0  -3.8375 0 0  -3.825 0 0  -3.8125 0 0  -3.8 0 0  -3.7875 0 0  -3.775 0 0  -3.7625 0 0  -3.75 0 0  -3.7375 0 0  -3.725 0 0  -3.7125 0 0  -3.7 0 0  -3.6875 0 0  -3.675 0 0  -3.6625 0 0  -3.65 0 0  -3.6375 0 0  -3.625 0 0  -3.6125 0 0  -3.6 0 0  -3.5875 0 0  -3.575 0 0  -3.5625 0 0  -3.55 0 0  -3.5375 0 0  -3.525 0 0  -3.5125 0 0  -3.5 0 0  -3.4875 0 0  -3.475 0 0  -3.4625 0 0  -3.45 0 0  -3.4375 0 0  -3.425 0 0  -3.4125 0 0  -3.4 0 0  -3.3875 0 0  -3.375 0 0  -3.3625 0 0  -3.35 0 0  -3.3375 0 0  -3.325 0 0  -3.3125 0 0  -3.3 0 0  -3.2875 0 0  -3.275 0 0  -3.2625 0 0  -3.25 0 0  -3.2375 0 0  -3.225 0 0  -3.2125 0 0  -3.2 0 0  -3.1875 0 0  -3.175 0 0  -3.1625 0 0  -3.15 0 0  -3.1375 0 0  -3.125 0 0  -3.1125 0 0  -3.1 0 0  -3.0875 0 0  -3.075 0 0  -3.0625 0 0  -3.05 0 0  -3.0375 0 0  -3.025 0 0  -3.0125 0 0  -3 0 0  -2.9875 0 0  -2.975 0 0  -2.9625 0 0  -2.95 0 0  -2.9375 0 0  -2.925 0 0  -2.9125 0 0  -2.9 0 0  -2.8875 0 0  -2.875 0 0  -2.8625 0 0  -2.85 0 0  -2.8375 0 0  -2.825 0 0  -2.8125 0 0  -2.8 0 0  -2.7875 0 0  -2.775 0 0  -2.7625 0 0  -2.75 0 0  -2.7375 0 0  -2.725 0 0  -2.7125 0 0  -2.7 0 0  -2.6875 0 0  -2.675 0 0  -2.6625 0 0  -2.65 0 0  -2.6375 0 0  -2.625 0 0  -2.6125 0 0  -2.6 0 0  -2.5875 0 0  -2.575 0 0  -2.5625 0 0  -2.55 0 0  -2.5375 0 0  -2.525 0 0  -2.5125 0 0  -2.5 0 0  -2.4875 0 0  -2.475 0 0  -2.4625 0 0  -2.45 0 0  -2.4375 0 0  -2.425 0 0  -2.4125 0 0  -2.4 0 0  -2.3875 0 0  -2.375 0 0  -2.3625 0 0  -2.35 0 0  -2.3375 0 0  -2.325 0 0  -2.3125 0 0  -2.3 0 0  -2.2875 0 0  -2.275 0 0  -2.2625 0 0  -2.25 0 0  -2.2375 0 0  -2.225 0 0  -2.2125 0 0  -2.2 0 0  -2.1875 0 0  -2.175 0 0  -2.1625 0 0  -2.15 0 0  -2.1375 0 0  -2.125 0 0  -2.1125 0 0  -2.1 0 0  -2.0875 0 0  -2.075 0 0  -2.0625 0 0  -2.05 0 0  -2.0375 0 0  -2.025 0 0  -2.0125 0 0  -2 0 0  -1.9875 0 0  -1.975 0 0  -1.9625 0 0  -1.95 0 0  -1.9375 0 0  -1.925 0 0  -1.9125 0 0  -1.9 0 0  -1.8875 0 0  -1.875 0 0  -1.8625 0 0  -1.85 0 0  -1.8375 0 0  -1.825 0 0  -1.8125 0 0  -1.8 0 0  -1.7875 0 0  -1.775 0 0  -1.7625 0 0  -1.75 0 0  -1.7375 0 0  -1.725 0 0  -1.7125 0 0  -1.7 0 0  -1.6875 0 0  -1.675 0 0  -1.6625 0 0  -1.65 0 0  -1.6375 0 0  -1.625 0 0  -1.6125 0 0  -1.6 0 0  -1.5875 0 0  -1.575 0 0  -1.5625 0 0  -1.55 0 0  -1.5375 0 0  -1.525 0 0  -1.5125 0 0  -1.5 0 0  -1.4875 0 0  -1.475 0 0  -1.4625 0 0  -1.45 0 0  -1.4375 0 0  -1.425 0 0  -1.4125 0 0  -1.4 0 0  -1.3875 0 0  -1.375 0 0  -1.3625 0 0  -1.35 0 0  -1.3375 0 0  -1.325 0 0  -1.3125 0 0  -1.3 0 0  -1.2875 0 0  -1.275 0 0  -1.2625 0 0  -1.25 0 0  -1.2375 0 0  -1.225 0 0  -1.2125 0 0  -1.2 0 0  -1.1875 0 0  -1.175 0 0  -1.1625 0 0  -1.15 0 0  -1.1375 0 0  -1.125 0 0  -1.1125 0 0  -1.1 0 0  -1.0875 0 0  -1.075 0 0  -1.0625 0 0  -1.05 0 0  -1.0375 0 0  -1.025 0 0  -1.0125 0 0  -1 0 0  -0.9874999999999998 0 0  -0.9749999999999996 0 0  -0.9625000000000004 0 0  -0.9500000000000002 0 0  -0.9375 0 0  -0.9249999999999998 0 0  -0.9124999999999996 0 0  -0.9000000000000004 0 0  -0.8875000000000002 0 0  -0.875 0 0  -0.8624999999999998 0 0  -0.8499999999999996 0 0  -0.8375000000000004 0 0  -0.8250000000000002 0 0  -0.8125 0 0  -0.7999999999999998 0 0  -0.7874999999999996 0 0  -0.7750000000000004 0 0  -0.7625000000000002 0 0  -0.75 0 0  -0.7374999999999998 0 0  -0.7249999999999996 0 0  -0.7125000000000004 0 0  -0.7000000000000002 0 0  -0.6875 0 0  -0.6749999999999998 0 0  -0.6624999999999996 0 0  -0.6500000000000004 0 0  -0.6375000000000002 0 0  -0.625 0 0  -0.6124999999999998 0 0  -0.5999999999999996 0 0  -0.5875000000000004 0 0  -0.5750000000000002 0 0  -0.5625 0 0  -0.5499999999999998 0 0  -0.5374999999999996 0 0  -0.5250000000000004 0 0  -0.5125000000000002 0 0  -0.5 0 0  -0.4874999999999998 0 0  -0.4749999999999996 0 0  -0.4625000000000004 0 0  -0.4500000000000002 0 0  -0.4375 0 0  -0.4249999999999998 0 0  -0.4124999999999996 0 0  -0.4000000000000004 0 0  -0.3875000000000002 0 0  -0.375 0 0  -0.3624999999999998 0 0  -0.3499999999999996 0 0  -0.3375000000000004 0 0  -0.3250000000000002 0 0  -0.3125 0 0  -0.2999999999999998 0 0  -0.2874999999999996 0 0  -0.2750000000000004 0 0  -0.2625000000000002 0 0  -0.25 0 0  -0.2374999999999998 0 0  -0.2249999999999996 0 0  -0.2125000000000004 0 0  -0.2000000000000002 0 0  -0.1875 0 0  -0.1749999999999998 0 0  -0.1624999999999996 0 0  -0.1500000000000004 0 0  -0.1375000000000002 0 0  -0.125 0 0  -0.1124999999999998 0 0  -0.09999999999999964 0 0  -0.08750000000000036 0 0  -0.07500000000000018 0 0  -0.0625 0 0  -0.04999999999999982 0 0  -0.03749999999999964 0 0  -0.02500000000000036 0 0  -0.01250000000000018 0 0  0 0 0  0.01250000000000018 0 0  0.02500000000000036 0 0  0.03749999999999964 0 0  0.04999999999999982 0 0  0.0625 0 0  0.07500000000000018 0 0  0.08750000000000036 0 0  0.09999999999999964 0 0  0.1124999999999998 0 0  0.125 0 0  0.1375000000000002 0 0  0.1500000000000004 0 0  0.1624999999999996 0 0  0.1749999999999998 0 0  0.1875 0 0  0.2000000000000002 0 0  0.2125000000000004 0 0  0.2249999999999996 0 0  0.2374999999999998 0 0  0.25 0 0  0.2625000000000002 0 0  0.2750000000000004 0 0  0.2874999999999996 0 0  0.2999999999999998 0 0  0.3125 0 0  0.3250000000000002 0 0  0.3375000000000004 0 0  0.3499999999999996 0 0  0.3624999999999998 0 0  0.375 0 0  0.3875000000000002 0 0  0.4000000000000004 0 0  0.4124999999999996 0 0  0.4249999999999998 0 0  0.4375 0 0  0.4500000000000002 0 0  0.4625000000000004 0 0  0.4749999999999996 0 0  0.4874999999999998 0 0  0.5 0 0  0.5125000000000002 0 0  0.5250000000000004 0 0  0.5374999999999996 0 0  0.5499999999999998 0 0  0.5625 0 0  0.5750000000000002 0 0  0.5875000000000004 0 0  0.5999999999999996 0 0  0.6124999999999998 0 0  0.625 0 0  0.6375000000000002 0 0  0.6500000000000004 0 0  0.6624999999999996 0 0  0.6749999999999998 0 0  0.6875 0 0  0.7000000000000002 0 0  0.7125000000000004 0 0  0.7249999999999996 0 0  0.7374999999999998 0 0  0.75 0 0  0.7625000000000002 0 0  0.7750000000000004 0 0  0.7874999999999996 0 0  0.7999999999999998 0 0  0.8125 0 0  0.8250000000000002 0 0  0.8375000000000004 0 0  0.8499999999999996 0 0  0.8624999999999998 0 0  0.875 0 0  0.8875000000000002 0 0  0.9000000000000004 0 0  0.9124999999999996 0 0  0.9249999999999998 0 0  0.9375 0 0  0.9500000000000002 0 0  0.9625000000000004 0 0  0.9749999999999996 0 0  0.9874999999999998 0 0  1 0 0  1.0125 0 0  1.025 0 0  1.0375 0 0  1.05 0 0  1.0625 0 0  1.075 0 0  1.0875 0 0  1.1 0 0  1.1125 0 0  1.125 0 0  1.1375 0 0  1.15 0 0  1.1625 0 0  1.175 0 0  1.1875 0 0  1.2 0 0  1.2125 0 0  1.225 0 0  1.2375 0 0  1.25 0 0  1.2625 0 0  1.275 0 0  1.2875 0 0  1.3 0 0  1.3125 0 0  1.325 0 0  1.3375 0 0  1.35 0 0  1.3625 0 0  1.375 0 0  1.3875 0 0  1.4 0 0  1.4125 0 0  1.425 0 0  1.4375 0 0  1.45 0 0  1.4625 0 0  1.475 0 0  1.4875 0 0  1.5 0 0  1.5125 0 0  1.525 0 0  1.5375 0 0  1.55 0 0  1.5625 0 0  1.575 0 0  1.5875 0 0  1.6 0 0  1.6125 0 0  1.625 0 0  1.6375 0 0  1.65 0 0  1.6625 0 0  1.675 0 0  1.6875 0 0  1.7 0 0  1.7125 0 0  1.725 0 0  1.7375 0 0  1.75 0 0  1.7625 0 0  1.775 0 0  1.7875 0 0  1.8 0 0  1.8125 0 0  1.825 0 0  1.8375 0 0  1.85 0 0  1.8625 0 0  1.875 0 0  1.8875 0 0  1.9 0 0  1.9125 0 0  1.925 0 0  1.9375 0 0  1.95 0 0  1.9625 0 0  1.975 0 0  1.9875 0 0  2 0 0  2.0125 0 0  2.025 0 0  2.0375 0 0  2.05 0 0  2.0625 0 0  2.075 0 0  2.0875 0 0  2.1 0 0  2.1125 0 0  2.125 0 0  2.1375 0 0  2.15 0 0  2.1625 0 0  2.175 0 0  2.1875 0 0  2.2 0 0  2.2125 0 0  2.225 0 0  2.2375 0 0  2.25 0 0  2.2625 0 0  2.275 0 0  2.2875 0 0  2.3 0 0  2.3125 0 0  2.325 0 0  2.3375 0 0  2.35 0 0  2.3625 0 0  2.375 0 0  2.3875 0 0  2.4 0 0  2.4125 0 0  2.425 0 0  2.4375 0 0  2.45 0 0  2.4625 0 0  2.475 0 0  2.4875 0 0  2.5 0 0  2.5125 0 0  2.525 0 0  2.5375 0 0  2.55 0 0  2.5625 0 0  2.575 0 0  2.5875 0 0  2.6 0 0  2.6125 0 0  2.625 0 0  2.6375 0 0  2.65 0 0  2.6625 0 0  2.675 0 0  2.6875 0 0  2.7 0 0  2.7125 0 0  2.725 0 0  2.7375 0 0  2.75 0 0  2.7625 0 0  2.775 0 0  2.7875 0 0  2.8 0 0  2.8125 0 0  2.825 0 0  2.8375 0 0  2.85 0 0  2.8625 0 0  2.875 0 0  2.8875 0 0  2.9 0 0  2.9125 0 0  2.925 0 0  2.9375 0 0  2.95 0 0  2.9625 0 0  2.975 0 0  2.9875 0 0  3 0 0  3.012499999999999 0 0  3.025 0 0  3.0375 0 0  3.050000000000001 0 0  3.0625 0 0  3.074999999999999 0 0  3.0875 0 0  3.1 0 0  3.112500000000001 0 0  3.125 0 0  3.137499999999999 0 0  3.15 0 0  3.1625 0 0  3.175000000000001 0 0  3.1875 0 0  3.199999999999999 0 0  3.2125 0 0  3.225 0 0  3.237500000000001 0 0  3.25 0 0  3.262499999999999 0 0  3.275 0 0  3.2875 0 0  3.300000000000001 0 0  3.3125 0 0  3.324999999999999 0 0  3.3375 0 0  3.35 0 0  3.362500000000001 0 0  3.375 0 0  3.387499999999999 0 0  3.4 0 0  3.4125 0 0  3.425000000000001 0 0  3.4375 0 0  3.449999999999999 0 0  3.4625 0 0  3.475 0 0  3.4875
[...]
<PointData  Vectors="(h, u)"> 
<DataArray  type="Float64"  Name="(h, u)"  NumberOfComponents="3" format="ascii">3.4857426044827583e-01 0.0000000000000000e+00 0.0000000000000000e+00  3.4866880948961909e-01 9.0046674824015363e-03 0.0000000000000000e+00  3.4856952248696321e-01 1.8014459238739008e-02 0.0000000000000000e+00  3.4865944535383286e-01 2.7014334790633032e-02 0.0000000000000000e+00  3.4855530673501334e-01 3.6029626570808576e-02 0.0000000000000000e+00  3.4864071359602206e-01 4.5024999750486343e-02 0.0000000000000000e+00  3.4853160758152163e-01 5.4046211410600439e-02 0.0000000000000000e+00  3.4861260724639132e-01 6.3037329522075122e-02 0.0000000000000000e+00  3.4849841568656714e-01 7.2064925740943184e-02 0.0000000000000000e+00  3.4857511588541201e-01 8.1051994252598444e-02 0.0000000000000000e+00  3.4845571799910319e-01 9.0086485276291275e-02 0.0000000000000000e+00  3.4852822564872332e-01 9.9069668247069267e-02 0.0000000000000000e+00  3.4840349773254853e-01 1.0811161062253612e-01 0.0000000000000000e+00  3.4847191921892601e-01 1.1709103100245360e-01 0.0000000000000000e+00  3.4834173436111654e-01 1.2614102805227156e-01 0.0000000000000000e+00  3.4840617582180344e-01 1.3511676793158575e-01 0.0000000000000000e+00  3.4827040355264960e-01 1.4417547023112032e-01 0.0000000000000000e+00  3.4833097110187411e-01 1.5314757130781725e-01 0.0000000000000000e+00  3.4818947702735270e-01 1.6221567687790486e-01 0.0000000000000000e+00  3.4824627702569932e-01 1.7118414060891929e-01 0.0000000000000000e+00  3.4809892248694829e-01 1.8026239463067445e-01 0.0000000000000000e+00  3.4815206172404756e-01 1.8922718277898345e-01 0.0000000000000000e+00  3.4799870333542460e-01 1.9831637769637830e-01 0.0000000000000000e+00  3.4804828916094976e-01 2.0727741312253878e-01 0.0000000000000000e+00  3.4788877850934802e-01 2.1637838779057081e-01 0.0000000000000000e+00  3.4793491908079288e-01 2.2533555467452637e-01 0.0000000000000000e+00  3.4776910237276337e-01 2.3444919389564045e-01 0.0000000000000000e+00  3.4781190658993205e-01 2.4340233976638648e-01 0.0000000000000000e+00  3.4763962425904998e-01 2.5252957436887002e-01 0.0000000000000000e+00  3.4767920200066971e-01 2.6147851075815637e-01 0.0000000000000000e+00  3.4750028878894196e-01 2.7062031570435924e-01 0.0000000000000000e+00  3.4753675095313247e-01 2.7956482009993927e-01 0.0000000000000000e+00  3.4735103540679552e-01 2.8872221641165108e-01 0.0000000000000000e+00  3.4738449366974422e-01 2.9766203590325796e-01 0.0000000000000000e+00  3.4719179853458038e-01 3.0683608857268202e-01 0.0000000000000000e+00  3.4722236597020734e-01 3.1577093899450026e-01 0.0000000000000000e+00  3.4702250816362873e-01 3.2496275778335121e-01 0.0000000000000000e+00  3.4705029818298594e-01 3.3389233170600496e-01 0.0000000000000000e+00  3.4684308851675472e-01 3.4310307354199077e-01 0.0000000000000000e+00  3.4686821585606326e-01 3.5202703720545625e-01 0.0000000000000000e+00  3.4665346051660123e-01 3.6125789902003685e-01 0.0000000000000000e+00  3.4667604021134907e-01 3.7017589969032161e-01 0.0000000000000000e+00  3.4645353864665956e-01 3.7942812969517259e-01 0.0000000000000000e+00  3.4647368566785142e-01 3.8833979895568232e-01 0.0000000000000000e+00  3.4624323394139489e-01 3.9761467815886181e-01 0.0000000000000000e+00  3.4626106456060418e-01 4.0651962501688960e-01 0.0000000000000000e+00  3.4602245197914633e-01 4.1581848421359729e-01 0.0000000000000000e+00  3.4603807903223410e-01 4.2471631922617925e-01 0.0000000000000000e+00  3.4579109156103077e-01 4.3404051999261928e-01 0.0000000000000000e+00  3.4580463101062181e-01 4.4293081813926843e-01 0.0000000000000000e+00  3.4554905036511530e-01 4.5228175680994187e-01 0.0000000000000000e+00  3.4556060990758275e-01 4.6116411620785136e-01 0.0000000000000000e+00  3.4529621147026157e-01 4.7054323282610128e-01 0.0000000000000000e+00  3.4530590395248700e-01 4.7941720390430353e-01 0.0000000000000000e+00  3.4503246498769913e-01 4.8882593399193952e-01 0.0000000000000000e+00  3.4504039110181584e-01 4.9769111619519008e-01 0.0000000000000000e+00  3.4475767381612110e-01 5.0713097446207167e-01 0.0000000000000000e+00  3.4476394014145689e-01 5.1598692691931858e-01 0.0000000000000000e+00  3.4447171955814954e-01 5.2545935397517551e-01 0.0000000000000000e+00  3.4447641869093049e-01 5.3430570564151803e-01 0.0000000000000000e+00  3.4417443945669474e-01 5.4381230055749807e-01 0.0000000000000000e+00  3.4417766459108401e-01 5.5264866851538774e-01 0.0000000000000000e+00  3.4386570511164666e-01 5.6219085913496725e-01 0.0000000000000000e+00  3.4386753426325745e-01 5.7101692067417165e-01 0.0000000000000000e+00  3.4354531964598012e-01 5.8059644524503218e-01 0.0000000000000000e+00  3.4354581932756961e-01 5.8941190692611811e-01 0.0000000000000000e+00  3.4321314553128129e-01 5.9903015866397280e-01 0.0000000000000000e+00  3.4321237125605364e-01 6.0783475973934098e-01 0.0000000000000000e+00  3.4286893761164061e-01 6.1749366333903444e-01 0.0000000000000000e+00  3.4286693046695349e-01 6.2628722575898899e-01 0.0000000000000000e+00  3.4251256827973658e-01 6.3598797475616708e-01 0.0000000000000000e+00  3.4250936550369404e-01 6.4477038767677031e-01 0.0000000000000000e+00  3.4214372720120467e-01 6.5451507447235324e-01 0.0000000000000000e+00  3.4213937618912199e-01 6.6328622848944618e-01 0.0000000000000000e+00  3.4176236162411477e-01 6.7307557636675530e-01 0.0000000000000000e+00  3.4175685046387294e-01 6.8183570360525303e-01 0.0000000000000000e+00  3.4136804677023558e-01 6.9167209501974458e-01 0.0000000000000000e+00  3.4136147744556683e-01 7.0042082688964724e-01 0.0000000000000000e+00  3.4096087825916521e-01 7.1030444282228455e-01 0.0000000000000000e+00  3.4095305424516897e-01 7.1904302011852517e-01 0.0000000000000000e+00  3.4054017984502305e-01 7.2897664455315103e-01 0.0000000000000000e+00  3.4053134589812806e-01 7.3770364981290626e-01 0.0000000000000000e+00  3.4010624650117766e-01 7.4768789441986794e-01 0.0000000000000000e+00  3.4009565095535293e-01 7.5640612885746639e-01 0.0000000000000000e+00  3.3965818052134611e-01 7.6644404554445122e-01 0.0000000000000000e+00  3.3964621851410071e-01 7.7514913461084944e-01 0.0000000000000000e+00  3.3919608126785949e-01 7.8524408421816905e-01 0.0000000000000000e+00  3.3918180230266320e-01 7.9394229780605574e-01 0.0000000000000000e+00  3.3871905516390183e-01 8.0408848803113042e-01 0.0000000000000000e+00  3.3870417640082839e-01 8.1278209364522547e-01 0.0000000000000000e+00  3.3822574693091823e-01 8.2298089286708132e-01 0.0000000000000000e+00  3.3821117221157315e-01 8.3167819436720858e-01 0.0000000000000000e+00  3.3771916287824533e-01 8.4191919324928088e-01 0.0000000000000000e+00  3.3770073116494631e-01 8.5061402825088428e-01 0.0000000000000000e+00  3.3719912997195645e-01 8.6094292168715536e-01 0.0000000000000000e+00  3.3717044466877732e-01 8.6956934644977568e-01 0.0000000000000000e+00  3.3666872112307217e-01 8.8003704742222133e-01 0.0000000000000000e+00  3.3662131407798446e-01 8.8860506824171381e-01 0.0000000000000000e+00  3.3611135979567536e-01 8.9913151319966400e-01 0.0000000000000000e+00  3.3608246791006208e-01 9.0781063179199861e-01 0.0000000000000000e+00  3.3549761237576087e-01 9.1812330712232770e-01 0.0000000000000000e+00  3.3556000680810566e-01 9.2727895688007034e-01 0.0000000000000000e+00  3.3485984558963511e-01 9.3706862884410091e-01 0.0000000000000000e+00  3.3497493142372026e-01 9.4663387407610300e-01 0.0000000000000000e+00  3.3432093949450936e-01 9.5675496029937079e-01 0.0000000000000000e+00  3.3417308840419219e-01 9.6485805919748691e-01 0.0000000000000000e+00  3.3401475615211623e-01 9.7797044361979024e-01 0.0000000000000000e+00  3.3314214597315983e-01 9.8209091387034775e-01 0.0000000000000000e+00  3.3367369565169930e-01 9.9898271275913009e-01 0.0000000000000000e+00  3.3255566256138902e-01 1.0020986168258530e+00 0.0000000000000000e+00  3.3222039977406403e-01 1.0142354269919560e+00 0.0000000000000000e+00  3.3360930260424132e-01 1.0308984333120037e+00 0.0000000000000000e+00  3.2893466316944531e-01 1.0200060837664695e+00 0.0000000000000000e+00  3.3566261882359089e-01 1.0652760092839662e+00 0.0000000000000000e+00  3.2664493253752663e-01 1.0310100346507491e+00 0.0000000000000000e+00  3.3318044064301144e-01 1.0762202660855607e+00 0.0000000000000000e+00  3.3280763186797679e-01 1.0881888085630935e+00 0.0000000000000000e+00  3.1867490722317587e-01 1.0213411307978610e+00 0.0000000000000000e+00  3.5028767203336431e-01 1.2047535064578270e+00 0.0000000000000000e+00  2.9730032034811354e-01 9.3108928103171185e-01 0.0000000000000000e+00  3.5389578973539798e-01 1.2234980819112535e+00 0.0000000000000000e+00  2.4899924184400615e-01 8.0347428976945867e-01 0.0000000000000000e+00  5.3777374815479173e-02 -1.6010543918275750e+00 0.0000000000000000e+00  7.5782423965077422e-02 -1.0074104841117384e+00 0.0000000000000000e+00  7.1737548170293958e-02 -1.2726263777945062e+00 0.0000000000000000e+00  7.0101856496739695e-02 -1.1497849207659947e+00 0.0000000000000000e+00  7.0787790266610015e-02 -1.2061322892605848e+00 0.0000000000000000e+00  6.9885243952228740e-02 -1.1800504656540554e+00 0.0000000000000000e+00  6.9180241107953469e-02 -1.1901277534796806e+00 0.0000000000000000e+00  6.9264087965587279e-02 -1.1852796701368369e+00 0.0000000000000000e+00  6.8027421426295753e-02 -1.1862926400505835e+00 0.0000000000000000e+00  6.8341890418474813e-02 -1.1849770597906222e+00 0.0000000000000000e+00  6.7023530294274714e-02 -1.1851290503239758e+00 0.0000000000000000e+00  6.7349520405546745e-02 -1.1838828591556649e+00 0.0000000000000000e+00  6.6036384023522521e-02 -1.1844421334730706e+00 0.0000000000000000e+00  6.6348847642213757e-02 -1.1829504519918101e+00 0.0000000000000000e+00  6.5041379973250671e-02 -1.1838927150948597e+00 0.0000000000000000e+00  6.5345836474639540e-02 -1.1822813235757428e+00 0.0000000000000000e+00  6.4038349481072038e-02 -1.1834953877047234e+00 0.0000000000000000e+00  6.4337987946992733e-02 -1.1818571558321789e+00 0.0000000000000000e+00  6.3028651675734279e-02 -1.1832897468415617e+00 0.0000000000000000e+00  6.3323607638280169e-02 -1.1816684878909303e+00 0.0000000000000000e+00  6.2012422596655112e-02 -1.1833009330223385e+00 0.0000000000000000e+00  6.2301978103563319e-02 -1.1817187370615689e+00 0.0000000000000000e+00  6.0989198120046620e-02 -1.1835459309980489e+00 0.0000000000000000e+00  6.1272734635419213e-02 -1.1820165361740025e+00 0.0000000000000000e+00  5.9958410959617327e-02 -1.1840388451195905e+00 0.0000000000000000e+00  6.0235608135984345e-02 -1.1825718888764745e+00 0.0000000000000000e+00  5.8919585934100543e-02 -1.1847923131564928e+00 0.0000000000000000e+00  5.9190399728531844e-02 -1.1833945950511739e+00 0.0000000000000000e+00  5.7872428342192452e-02 -1.1858171582179404e+00 0.0000000000000000e+00  5.8137047293166745e-02 -1.1844930757004914e+00 0.0000000000000000e+00  5.6816909063990034e-02 -1.1871212690377384e+00 0.0000000000000000e+00  5.7075741608104268e-02 -1.1858727949799706e+00 0.0000000000000000e+00  5.5753386107060703e-02 -1.1887078222877869e+00 0.0000000000000000e+00  5.6007094033054476e-02 -1.1875339127198181e+00 0.0000000000000000e+00  5.4682784188268850e-02 -1.1905726223595261e+00 0.0000000000000000e+00  5.4932371195428438e-02 -1.1894678685453535e+00 0.0000000000000000e+00  5.3606851578524344e-02 -1.1927002259483228e+00 0.0000000000000000e+00  5.3853813645291675e-02 -1.1916525909903473e+00 0.0000000000000000e+00  5.2528509434809495e-02 -1.1950585352689493e+00 0.0000000000000000e+00  5.2775046616819768e-02 -1.1940461148199397e+00 0.0000000000000000e+00  5.1452292187845687e-02 -1.1975917521843435e+00 0.0000000000000000e+00  5.1701564304223409e-02 -1.1965787395647858e+00 0.0000000000000000e+00  5.0384837772229900e-02 -1.2002121426716483e+00 0.0000000000000000e+00  5.0641214937493288e-02 -1.1991446438199174e+00 0.0000000000000000e+00  4.9335315905903225e-02 -1.2027921230913750e+00 0.0000000000000000e+00  4.9604527223212402e-02 -1.2015952112095178e+00 0.0000000000000000e+00  4.8315579630460861e-02 -1.2051598341111553e+00 0.0000000000000000e+00  4.8604605018542732e-02 -1.2037382053669545e+00 0.0000000000000000e+00  4.7339715367161701e-02 -1.2071033016926866e+00 0.0000000000000000e+00  4.7656243625016498e-02 -1.2053484098736740e+00 0.0000000000000000e+00  4.6422679411860804e-02 -1.2083885780478281e+00 0.0000000000000000e+00  4.6774076538753234e-02 -1.2061935393254406e+00 0.0000000000000000e+00  4.5578043811377200e-02 -1.2087926706233334e+00 0.0000000000000000e+00  4.5970069230289651e-02 -1.2060718509588977e+00 0.0000000000000000e+00  4.4815486748732571e-02 -1.2081426921744851e+00 0.0000000000000000e+00  4.5251271681013394e-02 -1.2048483508560472e+00 0.0000000000000000e+00  4.4139087283085146e-02 -1.2063451902378299e+00 0.0000000000000000e+00  4.4618851280435225e-02 -1.2024735252695162e+00 0.0000000000000000e+00  4.3547195682182259e-02 -1.2033926457725472e+00 0.0000000000000000e+00  4.4068759945632849e-02 -1.1989775785719112e+00 0.0000000000000000e+00  4.3033747363508540e-02 -1.1993473603380866e+00 0.0000000000000000e+00  4.3593472222225933e-02 -1.1944471775962893e+00 0.0000000000000000e+00  4.2590184119075232e-02 -1.1943143944598431e+00 0.0000000000000000e+00  4.3183880326174102e-02 -1.1889980509599705e+00 0.0000000000000000e+00  4.2207167463270696e-02 -1.1884160057444690e+00 0.0000000000000000e+00  4.2830737250035403e-02 -1.1827530724229358e+00 0.0000000000000000e+00  4.1875717639253761e-02 -1.1817737990808979e+00 0.0000000000000000e+00  4.2525500310854496e-02 -1.1758287353100716e+00 0.0000000000000000e+00  4.1587795428891620e-02 -1.1744989582623637e+00 0.0000000000000000e+00  4.2260695921542461e-02 -1.1683286973032689e+00 0.0000000000000000e+00  4.1336497544097059e-02 -1.1666883444574543e+00 0.0000000000000000e+00  4.2029988254982276e-02 -1.1603418902325822e+00 0.0000000000000000e+00  4.1116035820896978e-02 -1.1584240326443436e+00 0.0000000000000000e+00  4.1828098059367630e-02 -1.1519430675017441e+00 0.0000000000000000e+00  4.0921618339156168e-02 -1.1497745217549264e+00 0.0000000000000000e+00  4.1650662917079556e-02 -1.1431944080711420e+00 0.0000000000000000e+00  4.0749300177069764e-02 -1.1407965673015090e+00 0.0000000000000000e+00  4.1494087449151382e-02 -1.1341474130319820e+00 0.0000000000000000e+00  4.0595837240724172e-02 -1.1315370922503099e+00 0.0000000000000000e+00  4.1355405528585680e-02 -1.1248447264862893e+00 0.0000000000000000e+00  4.0458556944227855e-02 -1.1220349331264867e+00 0.0000000000000000e+00  4.1232162291015624e-02 -1.1153217334995802e+00 0.0000000000000000e+00  4.0335249478302672e-02 -1.1123223379198306e+00 0.0000000000000000e+00  4.1122316832901955e-02 -1.1056078992811917e+00 0.0000000000000000e+00  4.0224078847487174e-02 -1.1024262087087311e+00 0.0000000000000000e+00  4.1024163582021766e-02 -1.0957278639463248e+00 0.0000000000000000e+00  4.0123511134769758e-02 -1.0923691137989910e+00 0.0000000000000000e+00  4.0936269405358494e-02 -1.0857023259356968e+00 0.0000000000000000e+00  4.0032257079297737e-02 -1.0821701040644804e+00 0.0000000000000000e+00  4.0857423502390883e-02 -1.0755487508979675e+00 0.0000000000000000e+00  3.9949226255568980e-02 -1.0718453680747941e+00 0.0000000000000000e+00  4.0786597469388668e-02 -1.0652819401579816e+00 0.0000000000000000e+00  3.9873490541477971e-02 -1.0614087565923167e+00 0.0000000000000000e+00  4.0722913360557222e-02 -1.0549144879003585e+00 0.0000000000000000e+00  3.9804254982570349e-02 -1.0508722020525758e+00 0.0000000000000000e+00  4.0665617995405676e-02 -1.0444571509302942e+00 0.0000000000000000e+00  3.9740834549466843e-02 -1.0402460536834306e+00 0.0000000000000000e+00  4.0614062120318567e-02 -1.0339191502304830e+00 0.0000000000000000e+00  3.9682635595290353e-02 -1.0295393448757326e+00 0.0000000000000000e+00  4.0567683368291065e-02 -1.0233084189698090e+00 0.0000000000000000e+00  3.9629141047789793e-02 -1.0187600064241800e+00 0.0000000000000000e+00  4.0525992164456001e-02 -1.0126318089235369e+00 0.0000000000000000e+00  3.9579898688342677e-02 -1.0079150346946781e+00 0.0000000000000000e+00  4.0488559828515513e-02 -1.0018952659917169e+00 0.0000000000000000e+00  3.9534511899081352e-02 -9.9701062361726811e-01 0.0000000000000000e+00  4.0455008630006430e-02 -9.9110397788341809e-01 0.0000000000000000e+00  3.9492632149334184e-02 -9.8605227133836848e-01 0.0000000000000000e+00  4.0425003219068174e-02 -9.8026250241587587e-01 0.0000000000000000e+00  3.9453953759352720e-02 -9.7504485264813312e-01 0.0000000000000000e+00  4.0398242083789115e-02 -9.6937489702128543e-01 0.0000000000000000e+00  3.9418210454427401e-02 -9.6399266452937060e-01 0.0000000000000000e+00  4.0374451139852836e-02 -9.5844481623768629e-01 0.0000000000000000e+00  3.9385170343222899e-02 -9.5289949741755486e-01 0.0000000000000000e+00  4.0353379294793289e-02 -9.4747557945419303e-01 0.0000000000000000e+00  3.9354635622945382e-02 -9.4176863289282275e-01 0.0000000000000000e+00  4.0334784915799268e-02 -9.3647038150448614e-01 0.0000000000000000e+00  3.9326452327208598e-02 -9.3060268440403993e-01 0.0000000000000000e+00  4.0318424959215123e-02 -9.2543246186985517e-01 0.0000000000000000e+00  3.9300499831424196e-02 -9.1940375710693956e-01 0.0000000000000000e+00  4.0304074842899267e-02 -9.1436479408313409e-01 0.0000000000000000e+00  3.9276669625242518e-02 -9.0817377609197980e-01 0.0000000000000000e+00  4.0291508278211062e-02 -9.0327040238612033e-01 0.0000000000000000e+00  3.9254941156982096e-02 -8.9691328806692705e-01 0.0000000000000000e+00  4.0280373584269571e-02 -8.9215429497354104e-01 0.0000000000000000e+00  3.9235473234895298e-02 -8.8562002325212252e-01 0.0000000000000000e+00  4.0270227915630889e-02 -8.8102292337241028e-01 0.0000000000000000e+00  3.9218377317398107e-02 -8.7429246441054875e-01 0.0000000000000000e+00  4.0260888280512080e-02 -8.6987869335925427e-01 0.0000000000000000e+00  3.9203457322904020e-02 -8.6293392907318200e-01 0.0000000000000000e+00  4.0252284297761322e-02 -8.5872228482726920e-01 0.0000000000000000e+00  3.9190995031835492e-02 -8.5154019104738043e-01 0.0000000000000000e+00  4.0243078253006277e-02 -8.4757424015042271e-01 0.0000000000000000e+00  3.9183248726501689e-02 -8.4007592751922078e-01 0.0000000000000000e+00  4.0229866053365149e-02 -8.3648740458376758e-01 0.0000000000000000e+00  3.9183640562617347e-02 -8.2848761665394344e-01 0.0000000000000000e+00  4.0210161198094993e-02 -8.2550016403630222e-01 0.0000000000000000e+00  3.9191771785557265e-02 -8.1678202744923234e-01 0.0000000000000000e+00  4.0188351882016159e-02 -8.1454327315331776e-01 0.0000000000000000e+00  3.9198233868032541e-02 -8.0510759223539519e-01 0.0000000000000000e+00  4.0178219653619347e-02 -8.0340067831540363e-01 0.0000000000000000e+00  3.9186177209448135e-02 -7.9372921690531972e-01 0.0000000000000000e+00  4.0196915667577895e-02 -7.9180427287802202e-01 0.0000000000000000e+00  3.9140828310183118e-02 -7.8287844492935155e-01 0.0000000000000000e+00  4.0253994649013219e-02 -7.7960600759855525e-01 0.0000000000000000e+00  3.9059518451401543e-02 -7.7259613766940338e-01 0.0000000000000000e+00  4.0344478223509790e-02 -7.6688614106199804e-01 0.0000000000000000e+00  3.8954343663430924e-02 -7.6269089096625120e-01 0.0000000000000000e+00  4.0450725895072537e-02 -7.5392260866098448e-01 0.0000000000000000e+00  3.8846145439012339e-02 -7.5283358954211754e-01 0.0000000000000000e+00  4.0551355804399197e-02 -7.4105022080546024e-01 0.0000000000000000e+00  3.8754015369826068e-02 -7.4272270395408768e-01 0.0000000000000000e+00  4.0631282207272280e-02 -7.2850376637285907e-01 0.0000000000000000e+00  3.8687554342663251e-02 -7.3220669353561052e-01 0.0000000000000000e+00  4.0685921037498171e-02 -7.1635334276487472e-01 0.0000000000000000e+00  3.8646698529722301e-02 -7.2128696621323352e-01 0.0000000000000000e+00  4.0718305837513645e-02 -7.0455032663050621e-01 0.0000000000000000e+00  3.8626389976199701e-02 -7.1004396270387082e-01 0.0000000000000000e+00  4.0734199581453287e-02 -6.9300400769619686e-01 0.0000000000000000e+00  3.8620682286054593e-02 -6.9857203760594688e-01 0.0000000000000000e+00  4.0739138120745644e-02 -6.8162768187576783e-01 0.0000000000