<?xml version="1.0"?>
<VTKFile type="UnstructuredGrid"  version="0.1"  >
<UnstructuredGrid>
<Piece  NumberOfPoints="801" NumberOfCells="800">
<Points>
<DataArray  type="Float64"  NumberOfComponents="3"  format="ascii">-5 0 0  -4.9875 0 0  -4.975 0 0  -4.9625 0 0  -4.95 0 0  -4.9375 0 0  -4.925 0 0  -4.9125 0 0  -4.9 0 0  -4.8875 0 0  -4.875 0 0  -4.8625 0 0  -4.85 0 0  -4.8375 0 0  -4.825 0 0  -4.8125 0 0  -4.8 0 0  -4.7875 0 0  -4.775 0 0  -4.7625 0 0  -4.75 0 0  -4.7375 0 0  -4.725 0 0  -4.7125 0 0  -4.7 0 0  -4.6875 0 0  -4.675 0 0  -4.6625 0 0  -4.65 0 0  -4.6375 0 0  -4.625 0 0  -4.6125 0 0  -4.6 0 0  -4.5875 0 0  -4.575 0 0  -4.5625 0 0  -4.55 0 0  -4.5375 0 0  -4.525 0 0  -4.5125 0 0  -4.5 0 0  -4.4875 0 0  -4.475 0 0  -4.4625 0 0  -4.45 0 0  -4.4375 0 0  -4.425 0 0  -4.4125 0 0  -4.4 0 0  -4.3875 0 0  -4.375 0 0  -4.3625 0 0  -4.35 0 0  -4.3375 0 0  -4.325 0 0  -4.3125 0 0  -4.3 0 0  -4.2875 0 0  -4.275 0 0  -4.2625 0 0  -4.25 0 0  -4.2375 0 0  -4.225 0 0  -4.2125 0 0  -4.2 0 0  -4.1875 0 0  -4.175 0 0  -4.1625 0 0  -4.15 0 0  -4.1375 0 0  -4.125 0 0  -4.1125 0 0  -4.1 0 0  -4.0875 0 0  -4.075 0 0  -4.0625 0 0  -4.05 0 0  -4.0375 0 0  -4.025 0 0  -4.0125 0 0  -4 0 0  -3.9875 0 0  -3.975 0 0  -3.9625 0 0  -3.95 0 0  -3.9375 0 0  -3.925 0 0  -3.9125 0 0  -3.9 0 0  -3.8875 0 0  -3.875 0 0  -3.8625 0 0  -3.85 0 0  -3.8375 0 0  -3.825 0 0  -3.8125 0 0  -3.8 0 0  -3.7875 0 0  -3.775 0 0  -3.7625 0 0  -3.75 0 0  -3.7375 0 0  -3.725 0 0  -3.7125 0 0  -3.7 0 0  -3.6875 0 0  -3.675 0 0  -3.6625 0 0  -3.65 0 0  -3.6375 0 0  -3.625 0 0  -3.6125 0 0  -3.6 0 0  -3.5875 0 0  -3.575 0 0  -3.5625 0 0  -3.55 0 0  -3.5375 0 0  -3.525 0 0  -3.5125 0 0  -3.5 0 0  -3.4875 0 0  -3.475 0 0  -3.4625 0 0  -3.45 0 0  -3.4375 0 0  -3.425 0 0  -3.4125 0 0  -3.4 0 0  -3.3875 0 0  -3.375 0 0  -3.3625 0 0  -3.35 0 0  -3.3375 0 0  -3.325 0 0  -3.3125 0 0  -3.3 0 0  -3.2875 0 0  -3.275 0 0  -3.2625 0 0  -3.25 0 0  -3.2375 0 0  -3.225 0 0  -3.2125 0 0  -3.2 0 0  -3.1875 0 0  -3.175 0 0  -3.1625 0 0  -3.15 0 0  -3.1375 0 0  -3.125 0 0  -3.1125 0 0  -3.1 0 0  -3.0875 0 0  -3.075 0 0  -3.0625 0 0  -3.05 0 0  -3.0375 0 0  -3.025 0 0  -3.0125 0 0  -3 0 0  -2.9875 0 0  -2.975 0 0  -2.9625 0 0  -2.95 0 0  -2.9375 0 0  -2.925 0 0  -2.9125 0 0  -2.9 0 0  -2.8875 0 0  -2.875 0 0  -2.8625 0 0  -2.85 0 0  -2.8375 0 0  -2.825 0 0  -2.8125 0 0  -2.8 0 0  -2.7875 0 0  -2.775 0 0  -2.7625 0 0  -2.75 0 0  -2.7375 0 0  -2.725 0 0  -2.7125 0 0  -2.7 0 0  -2.6875 0 0  -2.675 0 0  -2.6625 0 0  -2.65 0 0  -2.6375 0 0  -2.625 0 0  -2.6125 0 0  -2.6 0 0  -2.5875 0 0  -2.575 0 0  -2.5625 0 0  -2.55 0 0  -2.5375 0 0  -2.525 0 0  -2.5125 0 0  -2.5 0 0  -2.4875 0 0  -2.475 0 0  -2.4625 0 0  -2.45 0 0  -2.4375 0 0  -2.425 0 0  -2.4125 0 0  -2.4 0 0  -2.3875 0 0  -2.375 0 0  -2.3625 0 0  -2.35 0 0  -2.3375 0 0  -2.325 0 0  -2.3125 0 0  -2.3 0 0  -2.2875 0 0  -2.275 0 0  -2.2625 0 0  -2.25 0 0  -2.2375 0 0  -2.225 0 0  -2.2125 0 0  -2.2 0 0  -2.1875 0 0  -2.175 0 0  -2.1625 0 0  -2.15 0 0  -2.1375 0 0  -2.125 0 0  -2.1125 0 0  -2.1 0 0  -2.0875 0 0  -2.075 0 0  -2.0625 0 0  -2.05 0 0  -2.0375 0 0  -2.025 0 0  -2.0125 0 0  -2 0 0  -1.9875 0 0  -1.975 0 0  -1.9625 0 0  -1.95 0 0  -1.9375 0 0  -1.925 0 0  -1.9125 0 0  -1.9 0 0  -1.8875 0 0  -1.875 0 0  -1.8625 0 0  -1.85 0 0  -1.8375 0 0  -1.825 0 0  -1.8125 0 0  -1.8 0 0  -1.7875 0 0  -1.775 0 0  -1.7625 0 0  -1.75 0 0  -1.7375 0 0  -1.725 0 0  -1.7125 0 0  -1.7 0 0  -1.6875 0 0  -1.675 0 0  -1.6625 0 0  -1.65 0 0  -1.6375 0 0  -1.625 0 0  -1.6125 0 0  -1.6 0 0  -1.5875 0 0  -1.575 0 0  -1.5625 0 0  -1.55 0 0  -1.5375 0 0  -1.525 0 0  -1.5125 0 0  -1.5 0 0  -1.4875 0 0  -1.475 0 0  -1.4625 0 0  -1.45 0 0  -1.4375 0 0  -1.425 0 0  -1.4125 0 0  -1.4 0 0  -1.3875 0 0  -1.375 0 0  -1.3625 0 0  -1.35 0 0  -1.3375 0 0  -1.325 0 0  -1.3125 0 0  -1.3 0 0  -1.2875 0 0  -1.275 0 0  -1.2625 0 0  -1.25 0 0  -1.2375 0 0  -1.225 0 0  -1.2125 0 0  -1.2 0 0  -1.1875 0 0  -1.175 0 0  -1.1625 0 0  -1.15 0 0  -1.1375 0 0  -1.125 0 0  -1.1125 0 0  -1.1 0 0  -1.0875 0 0  -1.075 0 0  -1.0625 0 0  -1.05 0 0  -1.0375 0 0  -1.025 0 0  -1.0125 0 0  -1 0 0  -0.9874999999999998 0 0  -0.9749999999999996 0 0  -0.9625000000000004 0 0  -0.9500000000000002 0 0  -0.9375 0 0  -0.9249999999999998 0 0  -0.9124999999999996 0 0  -0.9000000000000004 0 0  -0.8875000000000002 0 0  -0.875 0 0  -0.8624999999999998 0 0  -0.8499999999999996 0 0  -0.8375000000000004 0 0  -0.8250000000000002 0 0  -0.8125 0 0  -0.7999999999999998 0 0  -0.7874999999999996 0 0  -0.7750000000000004 0 0  -0.7625000000000002 0 0  -0.75 0 0  -0.7374999999999998 0 0  -0.7249999999999996 0 0  -0.7125000000000004 0 0  -0.7000000000000002 0 0  -0.6875 0 0  -0.6749999999999998 0 0  -0.6624999999999996 0 0  -0.6500000000000004 0 0  -0.6375000000000002 0 0  -0.625 0 0  -0.6124999999999998 0 0  -0.5999999999999996 0 0  -0.5875000000000004 0 0  -0.5750000000000002 0 0  -0.5625 0 0  -0.5499999999999998 0 0  -0.5374999999999996 0 0  -0.5250000000000004 0 0  -0.5125000000000002 0 0  -0.5 0 0  -0.4874999999999998 0 0  -0.4749999999999996 0 0  -0.4625000000000004 0 0  -0.4500000000000002 0 0  -0.4375 0 0  -0.4249999999999998 0 0  -0.4124999999999996 0 0  -0.4000000000000004 0 0  -0.3875000000000002 0 0  -0.375 0 0  -0.3624999999999998 0 0  -0.3499999999999996 0 0  -0.3375000000000004 0 0  -0.3250000000000002 0 0  -0.3125 0 0  -0.2999999999999998 0 0  -0.2874999999999996 0 0  -0.2750000000000004 0 0  -0.2625000000000002 0 0  -0.25 0 0  -0.2374999999999998 0 0  -0.2249999999999996 0 0  -0.2125000000000004 0 0  -0.2000000000000002 0 0  -0.1875 0 0  -0.1749999999999998 0 0  -0.1624999999999996 0 0  -0.1500000000000004 0 0  -0.1375000000000002 0 0  -0.125 0 0  -0.1124999999999998 0 0  -0.09999999999999964 0 0  -0.08750000000000036 0 0  -0.07500000000000018 0 0  -0.0625 0 0  -0.04999999999999982 0 0  -0.03749999999999964 0 0  -0.02500000000000036 0 0  -0.01250000000000018 0 0  0 0 0  0.01250000000000018 0 0  0.02500000000000036 0 0  0.03749999999999964 0 0  0.04999999999999982 0 0  0.0625 0 0  0.07500000000000018 0 0  0.08750000000000036 0 0  0.09999999999999964 0 0  0.1124999999999998 0 0  0.125 0 0  0.1375000000000002 0 0  0.1500000000000004 0 0  0.1624999999999996 0 0  0.1749999999999998 0 0  0.1875 0 0  0.2000000000000002 0 0  0.2125000000000004 0 0  0.2249999999999996 0 0  0.2374999999999998 0 0  0.25 0 0  0.2625000000000002 0 0  0.2750000000000004 0 0  0.2874999999999996 0 0  0.2999999999999998 0 0  0.3125 0 0  0.3250000000000002 0 0  0.3375000000000004 0 0  0.3499999999999996 0 0  0.3624999999999998 0 0  0.375 0 0  0.3875000000000002 0 0  0.4000000000000004 0 0  0.4124999999999996 0 0  0.4249999999999998 0 0  0.4375 0 0  0.4500000000000002 0 0  0.4625000000000004 0 0  0.4749999999999996 0 0  0.4874999999999998 0 0  0.5 0 0  0.5125000000000002 0 0  0.5250000000000004 0 0  0.5374999999999996 0 0  0.5499999999999998 0 0  0.5625 0 0  0.5750000000000002 0 0  0.5875000000000004 0 0  0.5999999999999996 0 0  0.6124999999999998 0 0  0.625 0 0  0.6375000000000002 0 0  0.6500000000000004 0 0  0.6624999999999996 0 0  0.6749999999999998 0 0  0.6875 0 0  0.7000000000000002 0 0  0.7125000000000004 0 0  0.7249999999999996 0 0  0.7374999999999998 0 0  0.75 0 0  0.7625000000000002 0 0  0.7750000000000004 0 0  0.7874999999999996 0 0  0.7999999999999998 0 0  0.8125 0 0  0.8250000000000002 0 0  0.8375000000000004 0 0  0.8499999999999996 0 0  0.8624999999999998 0 0  0.875 0 0  0.8875000000000002 0 0  0.9000000000000004 0 0  0.9124999999999996 0 0  0.9249999999999998 0 0  0.9375 0 0  0.9500000000000002 0 0  0.9625000000000004 0 0  0.9749999999999996 0 0  0.9874999999999998 0 0  1 0 0  1.0125 0 0  1.025 0 0  1.0375 0 0  1.05 0 0  1.0625 0 0  1.075 0 0  1.0875 0 0  1.1 0 0  1.1125 0 0  1.125 0 0  1.1375 0 0  1.15 0 0  1.1625 0 0  1.175 0 0  1.1875 0 0  1.2 0 0  1.2125 0 0  1.225 0 0  1.2375 0 0  1.25 0 0  1.2625 0 0  1.275 0 0  1.2875 0 0  1.3 0 0  1.3125 0 0  1.325 0 0  1.3375 0 0  1.35 0 0  1.3625 0 0  1.375 0 0  1.3875 0 0  1.4 0 0  1.4125 0 0  1.425 0 0  1.4375 0 0  1.45 0 0  1.4625 0 0  1.475 0 0  1.4875 0 0  1.5 0 0  1.5125 0 0  1.525 0 0  1.5375 0 0  1.55 0 0  1.5625 0 0  1.575 0 0  1.5875 0 0  1.6 0 0  1.6125 0 0  1.625 0 0  1.6375 0 0  1.65 0 0  1.6625 0 0  1.675 0 0  1.6875 0 0  1.7 0 0  1.7125 0 0  1.725 0 0  1.7375 0 0  1.75 0 0  1.7625 0 0  1.775 0 0  1.7875 0 0  1.8 0 0  1.8125 0 0  1.825 0 0  1.8375 0 0  1.85 0 0  1.8625 0 0  1.875 0 0  1.8875 0 0  1.9 0 0  1.9125 0 0  1.925 0 0  1.9375 0 0  1.95 0 0  1.9625 0 0  1.975 0 0  1.9875 0 0  2 0 0  2.0125 0 0  2.025 0 0  2.0375 0 0  2.05 0 0  2.0625 0 0  2.075 0 0  2.0875 0 0  2.1 0 0  2.1125 0 0  2.125 0 0  2.1375 0 0  2.15 0 0  2.1625 0 0  2.175 0 0  2.1875 0 0  2.2 0 0  2.2125 0 0  2.225 0 0  2.2375 0 0  2.25 0 0  2.2625 0 0  2.275 0 0  2.2875 0 0  2.3 0 0  2.3125 0 0  2.325 0 0  2.3375 0 0  2.35 0 0  2.3625 0 0  2.375 0 0  2.3875 0 0  2.4 0 0  2.4125 0 0  2.425 0 0  2.4375 0 0  2.45 0 0  2.4625 0 0  2.475 0 0  2.4875 0 0  2.5 0 0  2.5125 0 0  2.525 0 0  2.5375 0 0  2.55 0 0  2.5625 0 0  2.575 0 0  2.5875 0 0  2.6 0 0  2.6125 0 0  2.625 0 0  2.6375 0 0  2.65 0 0  2.6625 0 0  2.675 0 0  2.6875 0 0  2.7 0 0  2.7125 0 0  2.725 0 0  2.7375 0 0  2.75 0 0  2.7625 0 0  2.775 0 0  2.7875 0 0  2.8 0 0  2.8125 0 0  2.825 0 0  2.8375 0 0  2.85 0 0  2.8625 0 0  2.875 0 0  2.8875 0 0  2.9 0 0  2.9125 0 0  2.925 0 0  2.9375 0 0  2.95 0 0  2.9625 0 0  2.975 0 0  2.9875 0 0  3 0 0  3.012499999999999 0 0  3.025 0 0  3.0375 0 0  3.050000000000001 0 0  3.0625 0 0  3.074999999999999 0 0  3.0875 0 0  3.1 0 0  3.112500000000001 0 0  3.125 0 0  3.137499999999999 0 0  3.15 0 0  3.1625 0 0  3.175000000000001 0 0  3.1875 0 0  3.199999999999999 0 0  3.2125 0 0  3.225 0 0  3.237500000000001 0 0  3.25 0 0  3.262499999999999 0 0  3.275 0 0  3.2875 0 0  3.300000000000001 0 0  3.3125 0 0  3.324999999999999 0 0  3.3375 0 0  3.35 0 0  3.362500000000001 0 0  3.375 0 0  3.387499999999999 0 0  3.4 0 0  3.4125 0 0  3.425000000000001 0 0  3.4375 0 0  3.449999999999999 0 0  3.4625 0 0  3.475 0 0  3.4875
[...]
<PointData  Vectors="(h, u)"> 
<DataArray  type="Float64"  Name="(h, u)"  NumberOfComponents="3" format="ascii">1.7628202984752836e-01 0.0000000000000000e+00 0.0000000000000000e+00  1.7601856348613268e-01 5.5638434820573669e-03 0.0000000000000000e+00  1.7628018731476883e-01 1.1088056372180412e-02 0.0000000000000000e+00  1.7601424255157247e-01 1.6691807931843845e-02 0.0000000000000000e+00  1.7627464822338301e-01 2.2176702564351922e-02 0.0000000000000000e+00  1.7600558933594590e-01 2.7820763046451518e-02 0.0000000000000000e+00  1.7626539742881958e-01 3.3266727108433418e-02 0.0000000000000000e+00  1.7599260561135019e-01 3.8951451120757201e-02 0.0000000000000000e+00  1.7625243605041607e-01 4.4358795036019569e-02 0.0000000000000000e+00  1.7597529904453538e-01 5.0084381679547298e-02 0.0000000000000000e+00  1.7623575760865459e-01 5.5453486966474883e-02 0.0000000000000000e+00  1.7595364775499492e-01 6.1220152713342954e-02 0.0000000000000000e+00  1.7621533580119914e-01 6.6551617862414675e-02 0.0000000000000000e+00  1.7592761796868944e-01 7.2359506473832366e-02 0.0000000000000000e+00  1.7619116776137370e-01 7.7653928274478992e-02 0.0000000000000000e+00  1.7589719950150268e-01 8.3502942076938522e-02 0.0000000000000000e+00  1.7616326840372182e-01 8.8760925904457250e-02 0.0000000000000000e+00  1.7586236102850825e-01 9.4650986949480653e-02 0.0000000000000000e+00  1.7613161161079496e-01 9.9873352672171317e-02 0.0000000000000000e+00  1.7582303517160747e-01 1.0580447351437519e-01 0.0000000000000000e+00  1.7609616993841443e-01 1.1099198047243518e-01 0.0000000000000000e+00  1.7577919542875153e-01 1.1696399664969731e-01 0.0000000000000000e+00  1.7605695746981445e-01 1.2211719644085317e-01 0.0000000000000000e+00  1.7573082652376737e-01 1.2813002915038160e-01 0.0000000000000000e+00  1.7601394077225768e-01 1.3324961744280642e-01 0.0000000000000000e+00  1.7567784751672827e-01 1.3930351479289221e-01 0.0000000000000000e+00  1.7596705016450734e-01 1.4439010954846263e-01 0.0000000000000000e+00  1.7562020723412422e-01 1.5048521004398677e-01 0.0000000000000000e+00  1.7591629120930927e-01 1.5553899766313439e-01 0.0000000000000000e+00  1.7555790100067262e-01 1.6167549009325644e-01 0.0000000000000000e+00  1.7586164692565506e-01 1.6669675375939502e-01 0.0000000000000000e+00  1.7549082507983302e-01 1.7287537559416863e-01 0.0000000000000000e+00  1.7580302205309536e-01 1.7786443853628497e-01 0.0000000000000000e+00  1.7541887147925575e-01 1.8408586719522266e-01 0.0000000000000000e+00  1.7574042088778233e-01 1.8904242398560581e-01 0.0000000000000000e+00  1.7534203130888140e-01 1.9530720306366647e-01 0.0000000000000000e+00  1.7567386300986965e-01 2.0023099125374630e-01 0.0000000000000000e+00  1.7526018218773814e-01 2.0654042762598551e-01 0.0000000000000000e+00  1.7560322450338833e-01 2.1143146187946174e-01 0.0000000000000000e+00  1.7517315157516233e-01 2.1778694301715024e-01 0.0000000000000000e+00  1.7552848681195693e-01 2.2264433358555011e-01 0.0000000000000000e+00  1.7508093958330112e-01 2.2904690574607137e-01 0.0000000000000000e+00  1.7544970437881399e-01 2.3386952124000776e-01 0.0000000000000000e+00  1.7498342891891194e-01 2.4032140967186333e-01 0.0000000000000000e+00  1.7536670520204112e-01 2.4510856374270418e-01 0.0000000000000000e+00  1.7488037430838288e-01 2.5161254682237405e-01 0.0000000000000000e+00  1.7527942418680484e-01 2.5636212056606367e-01 0.0000000000000000e+00  1.7477179593991132e-01 2.6292046793237539e-01 0.0000000000000000e+00  1.7518796806268680e-01 2.6762952111363014e-01 0.0000000000000000e+00  1.7465759356214189e-01 2.7424626699837418e-01 0.0000000000000000e+00  1.7509210463197350e-01 2.7891261634516457e-01 0.0000000000000000e+00  1.7453741018708976e-01 2.8559296655315625e-01 0.0000000000000000e+00  1.7499170953868443e-01 2.9021244072364311e-01 0.0000000000000000e+00  1.7441129305195660e-01 2.9696054047390041e-01 0.0000000000000000e+00  1.7488698956991947e-01 3.0152756041355872e-01 0.0000000000000000e+00  1.7427916358595469e-01 3.0834987518391344e-01 0.0000000000000000e+00  1.7477762772874283e-01 3.1286050216968320e-01 0.0000000000000000e+00  1.7414048358251741e-01 3.1976527029512009e-01 0.0000000000000000e+00  1.7466342437731538e-01 3.2421294023068215e-01 0.0000000000000000e+00  1.7399536743006835e-01 3.3120611424716268e-01 0.0000000000000000e+00  1.7454475901258107e-01 3.3558221216710621e-01 0.0000000000000000e+00  1.7384376997304113e-01 3.4267298623167269e-01 0.0000000000000000e+00  1.7442113982857546e-01 3.4697217839322347e-01 0.0000000000000000e+00  1.7368487433846347e-01 3.5417227266984336e-01 0.0000000000000000e+00  1.7429227128109392e-01 3.5838518355737725e-01 0.0000000000000000e+00  1.7351899868980891e-01 3.6570190533326463e-01 0.0000000000000000e+00  1.7415881195362809e-01 3.6981634616870318e-01 0.0000000000000000e+00  1.7334611796935090e-01 3.7726246378730216e-01 0.0000000000000000e+00  1.7401987157574653e-01 3.8127234639707575e-01 0.0000000000000000e+00  1.7316498893129775e-01 3.8886373667229451e-01 0.0000000000000000e+00  1.7387511902072764e-01 3.9275558136314109e-01 0.0000000000000000e+00  1.7297644298123477e-01 4.0050000300701394e-01 0.0000000000000000e+00  1.7372565126889924e-01 4.0425766036535637e-01 0.0000000000000000e+00  1.7278028446516921e-01 4.1217330151857823e-01 0.0000000000000000e+00  1.7356973205748980e-01 4.1579149242570318e-01 0.0000000000000000e+00  1.7257467400835522e-01 4.2389802356216094e-01 0.0000000000000000e+00  1.7340736713604674e-01 4.2735686871619921e-01 0.0000000000000000e+00  1.7236155008510798e-01 4.3566014246859985e-01 0.0000000000000000e+00  1.7324016720681962e-01 4.3894152946937670e-01 0.0000000000000000e+00  1.7213986194952202e-01 4.4746808169717878e-01 0.0000000000000000e+00  1.7306478288381275e-01 4.5057064568009436e-01 0.0000000000000000e+00  1.7190731921635066e-01 4.5933954558422418e-01 0.0000000000000000e+00  1.7288265481107593e-01 4.6223329367713029e-01 0.0000000000000000e+00  1.7166784966365825e-01 4.7124539691605716e-01 0.0000000000000000e+00  1.7269528953140323e-01 4.7391809427758952e-01 0.0000000000000000e+00  1.7141788922766391e-01 4.8321292331007426e-01 0.0000000000000000e+00  1.7249691884839419e-01 4.8566861074772755e-01 0.0000000000000000e+00  1.7115614068142038e-01 4.9525231366581929e-01 0.0000000000000000e+00  1.7229270029290034e-01 4.9744584492140453e-01 0.0000000000000000e+00  1.7088889128970583e-01 5.0731656393787983e-01 0.0000000000000000e+00  1.7208138439396289e-01 5.0925927329622633e-01 0.0000000000000000e+00  1.7060729006664935e-01 5.1947292146557222e-01 0.0000000000000000e+00  1.7185561094575436e-01 5.2116461054663754e-01 0.0000000000000000e+00  1.7031543576928598e-01 5.3169082138378454e-01 0.0000000000000000e+00  1.7162708227948414e-01 5.3307322823436332e-01 0.0000000000000000e+00  1.7001906196526057e-01 5.4392734984411928e-01 0.0000000000000000e+00  1.7138563394998446e-01 5.4506223854931657e-01 0.0000000000000000e+00  1.6970241958799168e-01 5.5630209547659493e-01 0.0000000000000000e+00  1.7112876410211386e-01 5.5715059247057841e-01 0.0000000000000000e+00  1.6938290150627205e-01 5.6868383991048688e-01 0.0000000000000000e+00  1.7087342608384296e-01 5.6920949926127129e-01 0.0000000000000000e+00  1.6905483854816850e-01 5.8111615406109263e-01 0.0000000000000000e+00  1.7059304944056145e-01 5.8144075593758160e-01 0.0000000000000000e+00  1.6870314061619821e-01 5.9371416586172110e-01 0.0000000000000000e+00  1.7030602360630653e-01 5.9370418096137045e-01 0.0000000000000000e+00  1.6836302631856501e-01 6.0621127360762528e-01 0.0000000000000000e+00  1.7001840509440427e-01 6.0595340233033823e-01 0.0000000000000000e+00  1.6799854065326639e-01 6.1888149114955937e-01 0.0000000000000000e+00  1.6969245890255577e-01 6.1847575244278841e-01 0.0000000000000000e+00  1.6762386963657541e-01 6.3161753894750683e-01 0.0000000000000000e+00  1.6938486012026688e-01 6.3083879150088984e-01 0.0000000000000000e+00  1.6727094460440375e-01 6.4417670876735400e-01 0.0000000000000000e+00  1.6905266018421081e-01 6.4337072418910501e-01 0.0000000000000000e+00  1.6686955263491329e-01 6.5709430745633157e-01 0.0000000000000000e+00  1.6869290594612624e-01 6.5609455381246440e-01 0.0000000000000000e+00  1.6650573946981290e-01 6.6971358290104421e-01 0.0000000000000000e+00  1.6837696544278430e-01 6.6846476078425221e-01 0.0000000000000000e+00  1.6613617882250944e-01 6.8236542774854758e-01 0.0000000000000000e+00  1.6798805797054048e-01 6.8137619987582643e-01 0.0000000000000000e+00  1.6572899590146123e-01 6.9529382341891199e-01 0.0000000000000000e+00  1.6764520604134053e-01 6.9391585628082642e-01 0.0000000000000000e+00  1.6541701892698499e-01 7.0748288508478019e-01 0.0000000000000000e+00  1.6730426369717366e-01 7.0642102090625036e-01 0.0000000000000000e+00  1.6501652828667748e-01 7.2034356006109024e-01 0.0000000000000000e+00  1.6689407997984862e-01 7.1943498231374703e-01 0.0000000000000000e+00  1.6470483363879465e-01 7.3251928051047832e-01 0.0000000000000000e+00  1.6661963156157727e-01 7.3137606333179050e-01 0.0000000000000000e+00  1.6441410515670346e-01 7.4453777398784093e-01 0.0000000000000000e+00  1.6619806981639951e-01 7.4441469064790566e-01 0.0000000000000000e+00  1.6405794957623521e-01 7.5707067887034396e-01 0.0000000000000000e+00  1.6591421786690530e-01 7.5634795390131093e-01 0.0000000000000000e+00  1.6390936776182999e-01 7.6802471405425365e-01 0.0000000000000000e+00  1.6558102852577455e-01 7.6861067782392190e-01 0.0000000000000000e+00  1.6355790499263639e-01 7.8057057162445376e-01 0.0000000000000000e+00  1.6521668885443005e-01 7.8105539593454421e-01 0.0000000000000000e+00  1.6349592182499351e-01 7.9091458015079108e-01 0.0000000000000000e+00  1.6501044709126614e-01 7.9221801158212002e-01 0.0000000000000000e+00  1.6323275866579764e-01 8.0284736172519033e-01 0.0000000000000000e+00  1.6456234242767870e-01 8.0519073104441008e-01 0.0000000000000000e+00  1.6319671933605867e-01 8.1305219512028537e-01 0.0000000000000000e+00  1.6446194443850490e-01 8.1542296028582639e-01 0.0000000000000000e+00  1.6305323959834123e-01 8.2410819078427255e-01 0.0000000000000000e+00  1.6396014313431778e-01 8.2872554949145083e-01 0.0000000000000000e+00  1.6302474374194198e-01 8.3427159784947835e-01 0.0000000000000000e+00  1.6394765780871762e-01 8.3822537434657740e-01 0.0000000000000000e+00  1.6296194787789456e-01 8.4467895967758544e-01 0.0000000000000000e+00  1.6341011030111283e-01 8.5180573383460922e-01 0.0000000000000000e+00  1.6296771798813980e-01 8.5449823987697604e-01 0.0000000000000000e+00  1.6349336972090669e-01 8.6062020080027446e-01 0.0000000000000000e+00  1.6288838085690699e-01 8.6489600325863125e-01 0.0000000000000000e+00  1.6292993453872648e-01 8.7452364385954606e-01 0.0000000000000000e+00  1.6300968766447801e-01 8.7361850907548810e-01 0.0000000000000000e+00  1.6309334580004520e-01 8.8289789773122651e-01 0.0000000000000000e+00  1.6276508344006063e-01 8.8504264459797721e-01 0.0000000000000000e+00  1.6258507699480354e-01 8.9660911907342677e-01 0.0000000000000000e+00  1.6312282499828218e-01 8.9162788609983601e-01 0.0000000000000000e+00  1.6266511427265096e-01 9.0590226326556123e-01 0.0000000000000000e+00  1.6260163559362467e-01 9.0487254490229985e-01 0.0000000000000000e+00  1.6249476026799034e-01 9.1728028797485006e-01 0.0000000000000000e+00  1.6315390362990551e-01 9.0961417463787442e-01 0.0000000000000000e+00  1.6211902712617110e-01 9.3039255872233817e-01 0.0000000000000000e+00  1.6262802709451812e-01 9.2258338220834990e-01 0.0000000000000000e+00  1.6261164111773599e-01 9.3687762771079597e-01 0.0000000000000000e+00  1.6276148026960038e-01 9.3030807394102066e-01 0.0000000000000000e+00  1.6176469063802629e-01 9.5384765221772527e-01 0.0000000000000000e+00  1.6305880768737421e-01 9.3666592466861875e-01 0.0000000000000000e+00  1.6229249166703902e-01 9.6019667909628248e-01 0.0000000000000000e+00  1.6214548691289227e-01 9.5239817089409806e-01 0.0000000000000000e+00  1.6232218510087190e-01 9.7040453602926358e-01 0.0000000000000000e+00  1.6294205065906620e-01 9.5483075627229463e-01 0.0000000000000000e+00  1.6142015463465270e-01 9.8781308746166041e-01 0.0000000000000000e+00  1.6270143881667215e-01 9.6536938173643627e-01 0.0000000000000000e+00  1.6255070862745233e-01 9.8936772895208847e-01 0.0000000000000000e+00  1.6158167079755001e-01 9.8282072223990880e-01 0.0000000000000000e+00  1.6244321416952670e-01 1.0004210473399480e+00 0.0000000000000000e+00  1.6268139652224020e-01 9.8309372284791685e-01 0.0000000000000000e+00  1.6122894605530402e-01 1.0199577705931020e+00 0.0000000000000000e+00  1.6260435127706899e-01 9.9262949167736525e-01 0.0000000000000000e+00  1.6266028846287467e-01 1.0188307168343123e+00 0.0000000000000000e+00  1.6052928871215064e-01 1.0178295169357285e+00 0.0000000000000000e+00  1.6388673345197016e-01 1.0191441376773773e+00 0.0000000000000000e+00  1.6078561355352297e-01 1.0249757815184748e+00 0.0000000000000000e+00  1.6226102019153338e-01 1.0415247771051617e+00 0.0000000000000000e+00  1.6244447645799984e-01 1.0212695927747928e+00 0.0000000000000000e+00  1.6171496633333685e-01 1.0554312418032692e+00 0.0000000000000000e+00  1.6094761160647034e-01 1.0422228386071004e+00 0.0000000000000000e+00  1.6486655410561782e-01 1.0405234370019310e+00 0.0000000000000000e+00  1.5689986598091524e-01 1.0830908329710573e+00 0.0000000000000000e+00  1.6806856626248803e-01 1.0250925485655742e+00 0.0000000000000000e+00  1.5525432731558630e-01 1.1052979083890686e+00 0.0000000000000000e+00  1.6723948803616878e-01 1.0410056791203535e+00 0.0000000000000000e+00  1.5846865049181447e-01 1.0896746443787266e+00 0.0000000000000000e+00  1.6236408160442550e-01 1.0883574936585063e+00 0.0000000000000000e+00  1.6420377849952983e-01 1.0543958076563471e+00 0.0000000000000000e+00  1.5643877743467924e-01 1.1438397670058738e+00 0.0000000000000000e+00  1.6889790236549590e-01 1.0271770163171985e+00 0.0000000000000000e+00  1.5242972635965232e-01 1.1844820788845003e+00 0.0000000000000000e+00  1.7105875231501377e-01 1.0197514876075695e+00 0.0000000000000000e+00  1.5115980618626706e-01 1.2037637177353797e+00 0.0000000000000000e+00  1.7112853061024969e-01 1.0287418728054667e+00 0.0000000000000000e+00  1.5182642045113559e-01 1.2078345355321229e+00 0.0000000000000000e+00  1.7005275049414947e-01 1.0467470360817455e+00 0.0000000000000000e+00  1.5337247446533281e-01 1.2049284641033160e+00 0.0000000000000000e+00  1.6856591222089168e-01 1.0680220903841757e+00 0.0000000000000000e+00  1.5507808904060308e-01 1.2006545228593770e+00 0.0000000000000000e+00  1.6710262885060745e-01 1.0892073141617216e+00 0.0000000000000000e+00  1.5657618630754819e-01 1.1978411662289061e+00 0.0000000000000000e+00  1.6587229434045406e-01 1.1087303650774654e+00 0.0000000000000000e+00  1.5773570518061916e-01 1.1974524484504483e+00 0.0000000000000000e+00  1.6493778572216064e-01 1.1261777281421326e+00 0.0000000000000000e+00  1.5855660380995362e-01 1.1994146148102893e+00 0.0000000000000000e+00  1.6428027549198074e-01 1.1417809410624946e+00 0.0000000000000000e+00  1.5909485904650916e-01 1.2032097774826227e+00 0.0000000000000000e+00  1.6384867016606747e-01 1.1560201299242081e+00 0.0000000000000000e+00  1.5941676651652875e-01 1.2082487016564398e+00 0.0000000000000000e+00  1.6358979373344129e-01 1.1693680377042954e+00 0.0000000000000000e+00  1.5957829799740061e-01 1.2140591597600385e+00 0.0000000000000000e+00  1.6346028401838161e-01 1.1821657880347942e+00 0.0000000000000000e+00  1.5962160999088892e-01 1.2203492574395163e+00 0.0000000000000000e+00  1.6342631105571984e-01 1.1945883255899377e+00 0.0000000000000000e+00  1.5957975885799189e-01 1.2270064436367227e+00 0.0000000000000000e+00  1.6345863239129121e-01 1.2066537496490068e+00 0.0000000000000000e+00  1.5948267989286705e-01 1.2340704391125081e+00 0.0000000000000000e+00  1.6352816696215858e-01 1.2182545485697627e+00 0.0000000000000000e+00  1.5936045168731724e-01 1.2416915965241875e+00 0.0000000000000000e+00  1.6360544896930890e-01 1.2292026749123148e+00 0.0000000000000000e+00  1.5924194254904039e-01 1.2500747113630790e+00 0.0000000000000000e+00  1.6366416248900195e-01 1.2392943172031243e+00 0.0000000000000000e+00  1.5914946683095951e-01 1.2594054411110094e+00 0.0000000000000000e+00  1.6368827308100875e-01 1.2483831943077992e+00 0.0000000000000000e+00  1.5909149203363390e-01 1.2697728561135568e+00 0.0000000000000000e+00  1.6367833115511163e-01 1.2564538249891477e+00 0.0000000000000000e+00  1.5905773394189104e-01 1.2811104581058292e+00 0.0000000000000000e+00  1.6365446735729028e-01 1.2636522165490733e+00 0.0000000000000000e+00  1.5902011464457183e-01 1.2931915804965859e+00 0.0000000000000000e+00  1.6365003538737335e-01 1.2702684561096012e+00 0.0000000000000000e+00  1.5894275274764902e-01 1.3056868756616367e+00 0.0000000000000000e+00  1.6369963761471457e-01 1.2766383545887359e+00 0.0000000000000000e+00  1.5879672672452705e-01 1.3182824105123667e+00 0.0000000000000000e+00  1.6382137573997174e-01 1.2830370084905620e+00 0.0000000000000000e+00  1.5857588459295177e-01 1.3307792280527089e+00 0.0000000000000000e+00  1.6400845830295305e-01 1.2895770823930381e+00 0.0000000000000000e+00  1.5829887194437303e-01 1.3431557298120189e+00 0.0000000000000000e+00  1.6422990805500753e-01 1.2962303413517333e+00 0.0000000000000000e+00  1.5800300676050064e-01 1.3554779821493457e+00 0.0000000000000000e+00  1.6444849465899439e-01 1.3029162578425257e+00 0.0000000000000000e+00  1.5771821409445028e-01 1.3678209194409383e+00 0.0000000000000000e+00  1.6464132269153858e-01 1.3096264177067904e+00 0.0000000000000000e+00  1.5745929441259640e-01 1.3800995183921976e+00 0.0000000000000000e+00  1.6480499177971258e-01 1.3165082704930773e+00 0.0000000000000000e+00  1.5721426366596641e-01 1.3921731960322459e+00 0.0000000000000000e+00  1.6495959253819231e-01 1.3236846049244184e+00 0.0000000000000000e+00  1.5697028706575222e-01 1.4038972096146622e+00 0.0000000000000000e+00  1.6510590250376633e-01 1.3312902816155308e+00 0.0000000000000000e+00  1.5672616676660164e-01 1.4152842044596721e+00 0.0000000000000000e+00  1.6525483963076265e-01 1.3390953467436257e+00 0.0000000000000000e+00  1.5647617049877258e-01 1.4266202093160452e+00 0.0000000000000000e+00  1.6539704216363296e-01 1.3469158840819029e+00 0.0000000000000000e+00  1.5623141871497270e-01 1.4380047459995113e+00 0.0000000000000000e+00  1.6556709187275512e-01 1.3544332913007013e+00 0.0000000000000000e+00  1.5589667368298857e-01 1.4500855954872709e+00 0.0000000000000000e+00  1.6590849120069803e-01 1.3607506214970959e+00 0.0000000000000000e+00  1.5535085112181754e-01 1.4635817949368863e+00 0.0000000000000000e+00  1.6655014928744000e-01 1.3650269029666771e+00 0.0000000000000000e+00  1.5438820350903595e-01 1.4801386074235012e+00 0.0000000000000000e+00  1.6785476336753050e-01 1.3642746178158973e+00 0.0000000000000000e+00  1.5264400804366396e-01 1.5029781163030838e+00 0.0000000000000000e+00  1.6997537361187351e-01 1.3570569700767248e+00 0.0000000000000000e+00  1.5050262306399267e-01 1.5292258252425381e+00 0.0000000000000000e+00  1.7187160735194110e-01 1.3515463538838819e+00 0.0000000000000000e+00  1.4925267967469935e-01 1.5482638754484825e+00 0.0000000000000000e+00  1.7214200742032759e-01 1.3588787974262517e+00 0.0000000000000000e+00  1.4963999297562186e-01 1.5538585855690836e+00 0.0000000000000000e+00  1.7082530361455783e-01 1.3785607035641145e+00 0.0000000000000000e+00  1.5089933285454149e-01 1.5526841423033459e+00 0.0000000000000000e+00  1.6948644350698003e-01 1.3978820612578426e+00 0.0000000000000000e+00  1.5154707107920168e-01 1.5570010169657167e+00 0.0000000000000000e+00  1.6904571478675506e-01 1.4100182390006650e+00 0.0000000000000000e+00  1.5146603449706136e-01 1.5666838600008646e+00 0.0000000000000000e+00  1.6852762765076890e-01 1.4238846679880601e+00 0.0000000000000000e+00  1.5125502629082827e-01 1.5760163520662114e+00 0.0000000000000000e+00  1.6801149146190686e-01 1.4384352552251580e+00 0.0000000000000000e+00  1.5059621464606285e-01 1.5897521850468301e+00 0.0000000000000000e+00  1.6870375788098943e-01 1.4410067071316404e+00 0.0000000000000000e+00  1.505879