<?xml version="1.0"?>
<VTKFile type="UnstructuredGrid"  version="0.1"  >
<UnstructuredGrid>
<Piece  NumberOfPoints="801" NumberOfCells="800">
<Points>
<DataArray  type="Float64"  NumberOfComponents="3"  format="ascii">-5 0 0  -4.9875 0 0  -4.975 0 0  -4.9625 0 0  -4.95 0 0  -4.9375 0 0  -4.925 0 0  -4.9125 0 0  -4.9 0 0  -4.8875 0 0  -4.875 0 0  -4.8625 0 0  -4.85 0 0  -4.8375 0 0  -4.825 0 0  -4.8125 0 0  -4.8 0 0  -4.7875 0 0  -4.775 0 0  -4.7625 0 0  -4.75 0 0  -4.7375 0 0  -4.725 0 0  -4.7125 0 0  -4.7 0 0  -4.6875 0 0  -4.675 0 0  -4.6625 0 0  -4.65 0 0  -4.6375 0 0  -4.625 0 0  -4.6125 0 0  -4.6 0 0  -4.5875 0 0  -4.575 0 0  -4.5625 0 0  -4.55 0 0  -4.5375 0 0  -4.525 0 0  -4.5125 0 0  -4.5 0 0  -4.4875 0 0  -4.475 0 0  -4.4625 0 0  -4.45 0 0  -4.4375 0 0  -4.425 0 0  -4.4125 0 0  -4.4 0 0  -4.3875 0 0  -4.375 0 0  -4.3625 0 0  -4.35 0 0  -4.3375 0 0  -4.325 0 0  -4.3125 0 0  -4.3 0 0  -4.2875 0 0  -4.275 0 0  -4.2625 0 0  -4.25 0 0  -4.2375 0 0  -4.225 0 0  -4.2125 0 0  -4.2 0 0  -4.1875 0 0  -4.175 0 0  -4.1625 0 0  -4.15 0 0  -4.1375 0 0  -4.125 0 0  -4.1125 0 0  -4.1 0 0  -4.0875 0 0  -4.075 0 0  -4.0625 0 0  -4.05 0 0  -4.0375 0 0  -4.025 0 0  -4.0125 0 0  -4 0 0  -3.9875 0 0  -3.975 0 0  -3.9625 0 0  -3.95 0 0  -3.9375 0 0  -3.925 0 0  -3.9125 0 0  -3.9 0 0  -3.8875 0 0  -3.875 0 0  -3.8625 0 0  -3.85 0 0  -3.8375 0 0  -3.825 0 0  -3.8125 0 0  -3.8 0 0  -3.7875 0 0  -3.775 0 0  -3.7625 0 0  -3.75 0 0  -3.7375 0 0  -3.725 0 0  -3.7125 0 0  -3.7 0 0  -3.6875 0 0  -3.675 0 0  -3.6625 0 0  -3.65 0 0  -3.6375 0 0  -3.625 0 0  -3.6125 0 0  -3.6 0 0  -3.5875 0 0  -3.575 0 0  -3.5625 0 0  -3.55 0 0  -3.5375 0 0  -3.525 0 0  -3.5125 0 0  -3.5 0 0  -3.4875 0 0  -3.475 0 0  -3.4625 0 0  -3.45 0 0  -3.4375 0 0  -3.425 0 0  -3.4125 0 0  -3.4 0 0  -3.3875 0 0  -3.375 0 0  -3.3625 0 0  -3.35 0 0  -3.3375 0 0  -3.325 0 0  -3.3125 0 0  -3.3 0 0  -3.2875 0 0  -3.275 0 0  -3.2625 0 0  -3.25 0 0  -3.2375 0 0  -3.225 0 0  -3.2125 0 0  -3.2 0 0  -3.1875 0 0  -3.175 0 0  -3.1625 0 0  -3.15 0 0  -3.1375 0 0  -3.125 0 0  -3.1125 0 0  -3.1 0 0  -3.0875 0 0  -3.075 0 0  -3.0625 0 0  -3.05 0 0  -3.0375 0 0  -3.025 0 0  -3.0125 0 0  -3 0 0  -2.9875 0 0  -2.975 0 0  -2.9625 0 0  -2.95 0 0  -2.9375 0 0  -2.925 0 0  -2.9125 0 0  -2.9 0 0  -2.8875 0 0  -2.875 0 0  -2.8625 0 0  -2.85 0 0  -2.8375 0 0  -2.825 0 0  -2.8125 0 0  -2.8 0 0  -2.7875 0 0  -2.775 0 0  -2.7625 0 0  -2.75 0 0  -2.7375 0 0  -2.725 0 0  -2.7125 0 0  -2.7 0 0  -2.6875 0 0  -2.675 0 0  -2.6625 0 0  -2.65 0 0  -2.6375 0 0  -2.625 0 0  -2.6125 0 0  -2.6 0 0  -2.5875 0 0  -2.575 0 0  -2.5625 0 0  -2.55 0 0  -2.5375 0 0  -2.525 0 0  -2.5125 0 0  -2.5 0 0  -2.4875 0 0  -2.475 0 0  -2.4625 0 0  -2.45 0 0  -2.4375 0 0  -2.425 0 0  -2.4125 0 0  -2.4 0 0  -2.3875 0 0  -2.375 0 0  -2.3625 0 0  -2.35 0 0  -2.3375 0 0  -2.325 0 0  -2.3125 0 0  -2.3 0 0  -2.2875 0 0  -2.275 0 0  -2.2625 0 0  -2.25 0 0  -2.2375 0 0  -2.225 0 0  -2.2125 0 0  -2.2 0 0  -2.1875 0 0  -2.175 0 0  -2.1625 0 0  -2.15 0 0  -2.1375 0 0  -2.125 0 0  -2.1125 0 0  -2.1 0 0  -2.0875 0 0  -2.075 0 0  -2.0625 0 0  -2.05 0 0  -2.0375 0 0  -2.025 0 0  -2.0125 0 0  -2 0 0  -1.9875 0 0  -1.975 0 0  -1.9625 0 0  -1.95 0 0  -1.9375 0 0  -1.925 0 0  -1.9125 0 0  -1.9 0 0  -1.8875 0 0  -1.875 0 0  -1.8625 0 0  -1.85 0 0  -1.8375 0 0  -1.825 0 0  -1.8125 0 0  -1.8 0 0  -1.7875 0 0  -1.775 0 0  -1.7625 0 0  -1.75 0 0  -1.7375 0 0  -1.725 0 0  -1.7125 0 0  -1.7 0 0  -1.6875 0 0  -1.675 0 0  -1.6625 0 0  -1.65 0 0  -1.6375 0 0  -1.625 0 0  -1.6125 0 0  -1.6 0 0  -1.5875 0 0  -1.575 0 0  -1.5625 0 0  -1.55 0 0  -1.5375 0 0  -1.525 0 0  -1.5125 0 0  -1.5 0 0  -1.4875 0 0  -1.475 0 0  -1.4625 0 0  -1.45 0 0  -1.4375 0 0  -1.425 0 0  -1.4125 0 0  -1.4 0 0  -1.3875 0 0  -1.375 0 0  -1.3625 0 0  -1.35 0 0  -1.3375 0 0  -1.325 0 0  -1.3125 0 0  -1.3 0 0  -1.2875 0 0  -1.275 0 0  -1.2625 0 0  -1.25 0 0  -1.2375 0 0  -1.225 0 0  -1.2125 0 0  -1.2 0 0  -1.1875 0 0  -1.175 0 0  -1.1625 0 0  -1.15 0 0  -1.1375 0 0  -1.125 0 0  -1.1125 0 0  -1.1 0 0  -1.0875 0 0  -1.075 0 0  -1.0625 0 0  -1.05 0 0  -1.0375 0 0  -1.025 0 0  -1.0125 0 0  -1 0 0  -0.9874999999999998 0 0  -0.9749999999999996 0 0  -0.9625000000000004 0 0  -0.9500000000000002 0 0  -0.9375 0 0  -0.9249999999999998 0 0  -0.9124999999999996 0 0  -0.9000000000000004 0 0  -0.8875000000000002 0 0  -0.875 0 0  -0.8624999999999998 0 0  -0.8499999999999996 0 0  -0.8375000000000004 0 0  -0.8250000000000002 0 0  -0.8125 0 0  -0.7999999999999998 0 0  -0.7874999999999996 0 0  -0.7750000000000004 0 0  -0.7625000000000002 0 0  -0.75 0 0  -0.7374999999999998 0 0  -0.7249999999999996 0 0  -0.7125000000000004 0 0  -0.7000000000000002 0 0  -0.6875 0 0  -0.6749999999999998 0 0  -0.6624999999999996 0 0  -0.6500000000000004 0 0  -0.6375000000000002 0 0  -0.625 0 0  -0.6124999999999998 0 0  -0.5999999999999996 0 0  -0.5875000000000004 0 0  -0.5750000000000002 0 0  -0.5625 0 0  -0.5499999999999998 0 0  -0.5374999999999996 0 0  -0.5250000000000004 0 0  -0.5125000000000002 0 0  -0.5 0 0  -0.4874999999999998 0 0  -0.4749999999999996 0 0  -0.4625000000000004 0 0  -0.4500000000000002 0 0  -0.4375 0 0  -0.4249999999999998 0 0  -0.4124999999999996 0 0  -0.4000000000000004 0 0  -0.3875000000000002 0 0  -0.375 0 0  -0.3624999999999998 0 0  -0.3499999999999996 0 0  -0.3375000000000004 0 0  -0.3250000000000002 0 0  -0.3125 0 0  -0.2999999999999998 0 0  -0.2874999999999996 0 0  -0.2750000000000004 0 0  -0.2625000000000002 0 0  -0.25 0 0  -0.2374999999999998 0 0  -0.2249999999999996 0 0  -0.2125000000000004 0 0  -0.2000000000000002 0 0  -0.1875 0 0  -0.1749999999999998 0 0  -0.1624999999999996 0 0  -0.1500000000000004 0 0  -0.1375000000000002 0 0  -0.125 0 0  -0.1124999999999998 0 0  -0.09999999999999964 0 0  -0.08750000000000036 0 0  -0.07500000000000018 0 0  -0.0625 0 0  -0.04999999999999982 0 0  -0.03749999999999964 0 0  -0.02500000000000036 0 0  -0.01250000000000018 0 0  0 0 0  0.01250000000000018 0 0  0.02500000000000036 0 0  0.03749999999999964 0 0  0.04999999999999982 0 0  0.0625 0 0  0.07500000000000018 0 0  0.08750000000000036 0 0  0.09999999999999964 0 0  0.1124999999999998 0 0  0.125 0 0  0.1375000000000002 0 0  0.1500000000000004 0 0  0.1624999999999996 0 0  0.1749999999999998 0 0  0.1875 0 0  0.2000000000000002 0 0  0.2125000000000004 0 0  0.2249999999999996 0 0  0.2374999999999998 0 0  0.25 0 0  0.2625000000000002 0 0  0.2750000000000004 0 0  0.2874999999999996 0 0  0.2999999999999998 0 0  0.3125 0 0  0.3250000000000002 0 0  0.3375000000000004 0 0  0.3499999999999996 0 0  0.3624999999999998 0 0  0.375 0 0  0.3875000000000002 0 0  0.4000000000000004 0 0  0.4124999999999996 0 0  0.4249999999999998 0 0  0.4375 0 0  0.4500000000000002 0 0  0.4625000000000004 0 0  0.4749999999999996 0 0  0.4874999999999998 0 0  0.5 0 0  0.5125000000000002 0 0  0.5250000000000004 0 0  0.5374999999999996 0 0  0.5499999999999998 0 0  0.5625 0 0  0.5750000000000002 0 0  0.5875000000000004 0 0  0.5999999999999996 0 0  0.6124999999999998 0 0  0.625 0 0  0.6375000000000002 0 0  0.6500000000000004 0 0  0.6624999999999996 0 0  0.6749999999999998 0 0  0.6875 0 0  0.7000000000000002 0 0  0.7125000000000004 0 0  0.7249999999999996 0 0  0.7374999999999998 0 0  0.75 0 0  0.7625000000000002 0 0  0.7750000000000004 0 0  0.7874999999999996 0 0  0.7999999999999998 0 0  0.8125 0 0  0.8250000000000002 0 0  0.8375000000000004 0 0  0.8499999999999996 0 0  0.8624999999999998 0 0  0.875 0 0  0.8875000000000002 0 0  0.9000000000000004 0 0  0.9124999999999996 0 0  0.9249999999999998 0 0  0.9375 0 0  0.9500000000000002 0 0  0.9625000000000004 0 0  0.9749999999999996 0 0  0.9874999999999998 0 0  1 0 0  1.0125 0 0  1.025 0 0  1.0375 0 0  1.05 0 0  1.0625 0 0  1.075 0 0  1.0875 0 0  1.1 0 0  1.1125 0 0  1.125 0 0  1.1375 0 0  1.15 0 0  1.1625 0 0  1.175 0 0  1.1875 0 0  1.2 0 0  1.2125 0 0  1.225 0 0  1.2375 0 0  1.25 0 0  1.2625 0 0  1.275 0 0  1.2875 0 0  1.3 0 0  1.3125 0 0  1.325 0 0  1.3375 0 0  1.35 0 0  1.3625 0 0  1.375 0 0  1.3875 0 0  1.4 0 0  1.4125 0 0  1.425 0 0  1.4375 0 0  1.45 0 0  1.4625 0 0  1.475 0 0  1.4875 0 0  1.5 0 0  1.5125 0 0  1.525 0 0  1.5375 0 0  1.55 0 0  1.5625 0 0  1.575 0 0  1.5875 0 0  1.6 0 0  1.6125 0 0  1.625 0 0  1.6375 0 0  1.65 0 0  1.6625 0 0  1.675 0 0  1.6875 0 0  1.7 0 0  1.7125 0 0  1.725 0 0  1.7375 0 0  1.75 0 0  1.7625 0 0  1.775 0 0  1.7875 0 0  1.8 0 0  1.8125 0 0  1.825 0 0  1.8375 0 0  1.85 0 0  1.8625 0 0  1.875 0 0  1.8875 0 0  1.9 0 0  1.9125 0 0  1.925 0 0  1.9375 0 0  1.95 0 0  1.9625 0 0  1.975 0 0  1.9875 0 0  2 0 0  2.0125 0 0  2.025 0 0  2.0375 0 0  2.05 0 0  2.0625 0 0  2.075 0 0  2.0875 0 0  2.1 0 0  2.1125 0 0  2.125 0 0  2.1375 0 0  2.15 0 0  2.1625 0 0  2.175 0 0  2.1875 0 0  2.2 0 0  2.2125 0 0  2.225 0 0  2.2375 0 0  2.25 0 0  2.2625 0 0  2.275 0 0  2.2875 0 0  2.3 0 0  2.3125 0 0  2.325 0 0  2.3375 0 0  2.35 0 0  2.3625 0 0  2.375 0 0  2.3875 0 0  2.4 0 0  2.4125 0 0  2.425 0 0  2.4375 0 0  2.45 0 0  2.4625 0 0  2.475 0 0  2.4875 0 0  2.5 0 0  2.5125 0 0  2.525 0 0  2.5375 0 0  2.55 0 0  2.5625 0 0  2.575 0 0  2.5875 0 0  2.6 0 0  2.6125 0 0  2.625 0 0  2.6375 0 0  2.65 0 0  2.6625 0 0  2.675 0 0  2.6875 0 0  2.7 0 0  2.7125 0 0  2.725 0 0  2.7375 0 0  2.75 0 0  2.7625 0 0  2.775 0 0  2.7875 0 0  2.8 0 0  2.8125 0 0  2.825 0 0  2.8375 0 0  2.85 0 0  2.8625 0 0  2.875 0 0  2.8875 0 0  2.9 0 0  2.9125 0 0  2.925 0 0  2.9375 0 0  2.95 0 0  2.9625 0 0  2.975 0 0  2.9875 0 0  3 0 0  3.012499999999999 0 0  3.025 0 0  3.0375 0 0  3.050000000000001 0 0  3.0625 0 0  3.074999999999999 0 0  3.0875 0 0  3.1 0 0  3.112500000000001 0 0  3.125 0 0  3.137499999999999 0 0  3.15 0 0  3.1625 0 0  3.175000000000001 0 0  3.1875 0 0  3.199999999999999 0 0  3.2125 0 0  3.225 0 0  3.237500000000001 0 0  3.25 0 0  3.262499999999999 0 0  3.275 0 0  3.2875 0 0  3.300000000000001 0 0  3.3125 0 0  3.324999999999999 0 0  3.3375 0 0  3.35 0 0  3.362500000000001 0 0  3.375 0 0  3.387499999999999 0 0  3.4 0 0  3.4125 0 0  3.425000000000001 0 0  3.4375 0 0  3.449999999999999 0 0  3.4625 0 0  3.475 0 0  3.4875
[...]
<PointData  Vectors="(h, u)"> 
<DataArray  type="Float64"  Name="(h, u)"  NumberOfComponents="3" format="ascii">5.5000000000000021e-02 0.0000000000000000e+00 0.0000000000000000e+00  5.5000000000000007e-02 -7.6764352951180644e-17 0.0000000000000000e+00  5.5000000000000021e-02 -2.5624291933861558e-16 0.0000000000000000e+00  5.5000000000000007e-02 -1.5296195883792751e-16 0.0000000000000000e+00  5.5000000000000021e-02 -3.6342086843480672e-16 0.0000000000000000e+00  5.5000000000000007e-02 1.4981674185934193e-16 0.0000000000000000e+00  5.5000000000000014e-02 -2.7269781797106949e-16 0.0000000000000000e+00  5.5000000000000007e-02 -2.7153155419526401e-17 0.0000000000000000e+00  5.5000000000000028e-02 -5.5581535821319453e-16 0.0000000000000000e+00  5.5000000000000035e-02 -1.0410632419453260e-17 0.0000000000000000e+00  5.5000000000000028e-02 -3.9028271732156618e-16 0.0000000000000000e+00  5.5000000000000021e-02 -7.6297839707691644e-17 0.0000000000000000e+00  5.5000000000000028e-02 -6.0511790404556256e-16 0.0000000000000000e+00  5.5000000000000035e-02 -5.7493340610904215e-17 0.0000000000000000e+00  5.5000000000000035e-02 -1.6256251470931838e-16 0.0000000000000000e+00  5.5000000000000028e-02 2.5148883649754015e-16 0.0000000000000000e+00  5.5000000000000035e-02 -3.2195232947864292e-16 0.0000000000000000e+00  5.5000000000000021e-02 1.3662575069938099e-16 0.0000000000000000e+00  5.5000000000000028e-02 -5.4175720956048621e-16 0.0000000000000000e+00  5.5000000000000021e-02 2.2534915104615725e-17 0.0000000000000000e+00  5.5000000000000028e-02 -4.1905212304401765e-16 0.0000000000000000e+00  5.5000000000000021e-02 9.1331358181655385e-17 0.0000000000000000e+00  5.5000000000000028e-02 -3.0432552413705877e-16 0.0000000000000000e+00  5.5000000000000021e-02 1.3292004771007639e-16 0.0000000000000000e+00  5.5000000000000028e-02 -2.5303269654716721e-16 0.0000000000000000e+00  5.5000000000000021e-02 1.1483134847505568e-16 0.0000000000000000e+00  5.5000000000000028e-02 -2.1708889605963386e-16 0.0000000000000000e+00  5.5000000000000021e-02 1.2904718340113653e-16 0.0000000000000000e+00  5.5000000000000028e-02 -8.5618198238244536e-17 0.0000000000000000e+00  5.5000000000000021e-02 2.0825667981798236e-16 0.0000000000000000e+00  5.5000000000000028e-02 6.4047244545776532e-17 0.0000000000000000e+00  5.5000000000000021e-02 1.9909271716957397e-16 0.0000000000000000e+00  5.5000000000000028e-02 6.7140530669212247e-17 0.0000000000000000e+00  5.5000000000000021e-02 3.0621218584276632e-17 0.0000000000000000e+00  5.5000000000000028e-02 -2.2200779324433986e-17 0.0000000000000000e+00  5.5000000000000021e-02 -1.3038772149539353e-16 0.0000000000000000e+00  5.5000000000000028e-02 -1.4165971472137492e-17 0.0000000000000000e+00  5.5000000000000021e-02 -1.3608935536880322e-16 0.0000000000000000e+00  5.5000000000000028e-02 1.1154156500204002e-16 0.0000000000000000e+00  5.5000000000000021e-02 -1.1357981072111708e-16 0.0000000000000000e+00  5.5000000000000028e-02 1.9594589241494737e-16 0.0000000000000000e+00  5.5000000000000021e-02 -1.6285943736039188e-16 0.0000000000000000e+00  5.5000000000000028e-02 2.7610300434132953e-16 0.0000000000000000e+00  5.5000000000000021e-02 -1.8329571986065502e-16 0.0000000000000000e+00  5.5000000000000028e-02 5.5733577103945379e-16 0.0000000000000000e+00  5.5000000000000014e-02 -1.0521702918927920e-16 0.0000000000000000e+00  5.5000000000000028e-02 4.0748614465681262e-16 0.0000000000000000e+00  5.5000000000000014e-02 5.7914318891282503e-18 0.0000000000000000e+00  5.5000000000000028e-02 1.5604998411883374e-16 0.0000000000000000e+00  5.5000000000000021e-02 5.3844085778426162e-17 0.0000000000000000e+00  5.5000000000000028e-02 2.1830465714004510e-16 0.0000000000000000e+00  5.5000000000000021e-02 4.0573582051443737e-17 0.0000000000000000e+00  5.5000000000000028e-02 7.5125750794906379e-17 0.0000000000000000e+00  5.5000000000000021e-02 2.0974172260512173e-17 0.0000000000000000e+00  5.5000000000000028e-02 -1.7487442621443947e-16 0.0000000000000000e+00  5.5000000000000021e-02 -2.2134258996259958e-16 0.0000000000000000e+00  5.5000000000000028e-02 1.0605791682948200e-16 0.0000000000000000e+00  5.5000000000000014e-02 -1.4250235892835267e-16 0.0000000000000000e+00  5.5000000000000028e-02 -1.3798727598486510e-16 0.0000000000000000e+00  5.5000000000000014e-02 -2.6770400248993742e-17 0.0000000000000000e+00  5.5000000000000028e-02 -1.3374327994126327e-16 0.0000000000000000e+00  5.5000000000000014e-02 8.0589207392640802e-17 0.0000000000000000e+00  5.5000000000000028e-02 -1.7592026005249357e-16 0.0000000000000000e+00  5.5000000000000014e-02 4.0273020904337869e-17 0.0000000000000000e+00  5.5000000000000028e-02 -4.3226335227138114e-16 0.0000000000000000e+00  5.5000000000000021e-02 2.0543035596883603e-17 0.0000000000000000e+00  5.5000000000000028e-02 -5.1188593487698474e-17 0.0000000000000000e+00  5.5000000000000021e-02 1.1509889721064470e-16 0.0000000000000000e+00  5.5000000000000028e-02 1.6066097256970491e-16 0.0000000000000000e+00  5.5000000000000021e-02 4.9803052449270428e-17 0.0000000000000000e+00  5.5000000000000028e-02 1.2241098873977909e-16 0.0000000000000000e+00  5.5000000000000021e-02 -7.9164478140239100e-17 0.0000000000000000e+00  5.5000000000000028e-02 1.7426655712279225e-16 0.0000000000000000e+00  5.5000000000000021e-02 1.6416636810479956e-17 0.0000000000000000e+00  5.5000000000000028e-02 4.8625551379590436e-16 0.0000000000000000e+00  5.5000000000000014e-02 2.7911893521443811e-16 0.0000000000000000e+00  5.5000000000000021e-02 1.3446761945719260e-16 0.0000000000000000e+00  5.5000000000000014e-02 -2.1882650980757191e-16 0.0000000000000000e+00  5.5000000000000028e-02 -2.5702955936544639e-16 0.0000000000000000e+00  5.5000000000000021e-02 -4.7201646594617117e-17 0.0000000000000000e+00  5.5000000000000028e-02 -1.3873370133882023e-16 0.0000000000000000e+00  5.5000000000000021e-02 -6.8765848985364714e-17 0.0000000000000000e+00  5.5000000000000028e-02 7.2753165114630286e-17 0.0000000000000000e+00  5.5000000000000021e-02 -9.4365834611205173e-17 0.0000000000000000e+00  5.5000000000000028e-02 2.3980736286515279e-16 0.0000000000000000e+00  5.5000000000000021e-02 -1.2560739348513079e-16 0.0000000000000000e+00  5.5000000000000028e-02 3.2633543119953221e-16 0.0000000000000000e+00  5.5000000000000014e-02 -1.2090416939936021e-16 0.0000000000000000e+00  5.5000000000000028e-02 1.0028018944971612e-17 0.0000000000000000e+00  5.5000000000000014e-02 -1.1551337224656521e-18 0.0000000000000000e+00  5.5000000000000028e-02 -1.2795352075388180e-16 0.0000000000000000e+00  5.5000000000000014e-02 7.4392944602536463e-17 0.0000000000000000e+00  5.5000000000000028e-02 -4.2671954536331935e-16 0.0000000000000000e+00  5.5000000000000021e-02 1.2825136092549232e-16 0.0000000000000000e+00  5.5000000000000028e-02 -3.7804687244073363e-17 0.0000000000000000e+00  5.5000000000000014e-02 4.5394468935465131e-16 0.0000000000000000e+00  5.5000000000000021e-02 -1.9848634884608248e-16 0.0000000000000000e+00  5.5000000000000021e-02 7.5139502688887937e-16 0.0000000000000000e+00  5.5000000000000014e-02 -5.9246173675489376e-17 0.0000000000000000e+00  5.5000000000000028e-02 3.8910791701084057e-16 0.0000000000000000e+00  5.5000000000000028e-02 -2.1701533134829237e-16 0.0000000000000000e+00  5.5000000000000028e-02 1.7104293663167347e-16 0.0000000000000000e+00  5.5000000000000028e-02 -2.3184950988471646e-16 0.0000000000000000e+00  5.5000000000000028e-02 1.8494270447427972e-17 0.0000000000000000e+00  5.5000000000000014e-02 -1.7332759210131753e-16 0.0000000000000000e+00  5.5000000000000021e-02 -7.0645997657760871e-17 0.0000000000000000e+00  5.5000000000000014e-02 -1.5569272498704523e-16 0.0000000000000000e+00  5.5000000000000028e-02 -8.7782723645918329e-17 0.0000000000000000e+00  5.5000000000000028e-02 -1.5147482301491482e-16 0.0000000000000000e+00  5.5000000000000028e-02 2.1067658292768683e-16 0.0000000000000000e+00  5.5000000000000028e-02 -1.6408595677088639e-16 0.0000000000000000e+00  5.5000000000000028e-02 3.3674329484590423e-16 0.0000000000000000e+00  5.5000000000000021e-02 -2.5789726062974269e-16 0.0000000000000000e+00  5.5000000000000028e-02 -3.0365920236520596e-18 0.0000000000000000e+00  5.5000000000000021e-02 -1.9505208595614436e-16 0.0000000000000000e+00  5.5000000000000028e-02 -2.2074045917470023e-16 0.0000000000000000e+00  5.5000000000000021e-02 6.5072937860933376e-17 0.0000000000000000e+00  5.5000000000000021e-02 -2.2013946815152270e-16 0.0000000000000000e+00  5.5000000000000028e-02 -4.9269208244431974e-17 0.0000000000000000e+00  5.5000000000000021e-02 7.3504603416748270e-17 0.0000000000000000e+00  5.5000000000000028e-02 -1.2739524865725910e-16 0.0000000000000000e+00  5.5000000000000021e-02 1.6552596755732658e-16 0.0000000000000000e+00  5.5000000000000028e-02 -2.0608653570106403e-16 0.0000000000000000e+00  5.5000000000000021e-02 1.3129651460723904e-16 0.0000000000000000e+00  5.5000000000000028e-02 -5.0494642500423540e-16 0.0000000000000000e+00  5.5000000000000028e-02 4.5608418820601915e-17 0.0000000000000000e+00  5.5000000000000028e-02 -2.1453479961291318e-16 0.0000000000000000e+00  5.5000000000000028e-02 5.9444320109000840e-17 0.0000000000000000e+00  5.5000000000000028e-02 -1.9310215698720489e-17 0.0000000000000000e+00  5.5000000000000028e-02 1.2305211862389167e-16 0.0000000000000000e+00  5.5000000000000028e-02 1.4988648517583022e-16 0.0000000000000000e+00  5.5000000000000028e-02 1.1128518356820386e-16 0.0000000000000000e+00  5.5000000000000028e-02 -2.8386702213394334e-17 0.0000000000000000e+00  5.5000000000000028e-02 -9.3974743140816388e-17 0.0000000000000000e+00  5.5000000000000028e-02 -1.8198720753749430e-16 0.0000000000000000e+00  5.5000000000000028e-02 -3.8613197454935591e-17 0.0000000000000000e+00  5.5000000000000028e-02 1.9282900225311423e-17 0.0000000000000000e+00  5.5000000000000028e-02 2.0604055016673383e-16 0.0000000000000000e+00  5.5000000000000028e-02 2.7651125761995542e-16 0.0000000000000000e+00  5.5000000000000028e-02 3.2501852091022156e-16 0.0000000000000000e+00  5.5000000000000028e-02 4.6024571867302307e-16 0.0000000000000000e+00  5.5000000000000021e-02 1.4351543509269643e-16 0.0000000000000000e+00  5.5000000000000028e-02 1.9768737281411770e-16 0.0000000000000000e+00  5.5000000000000014e-02 1.6147059772154691e-16 0.0000000000000000e+00  5.5000000000000021e-02 1.4327857911075272e-16 0.0000000000000000e+00  5.5000000000000014e-02 -1.6509880585529909e-16 0.0000000000000000e+00  5.5000000000000028e-02 -3.6491302007386686e-16 0.0000000000000000e+00  5.5000000000000014e-02 -3.9341020810724908e-16 0.0000000000000000e+00  5.5000000000000028e-02 -7.4526674472253479e-17 0.0000000000000000e+00  5.5000000000000014e-02 1.4184787960355291e-16 0.0000000000000000e+00  5.5000000000000028e-02 1.4711227023554635e-16 0.0000000000000000e+00  5.5000000000000014e-02 -1.1292947237003230e-16 0.0000000000000000e+00  5.5000000000000035e-02 2.1726990981711906e-16 0.0000000000000000e+00  5.5000000000000014e-02 2.3677173290298524e-16 0.0000000000000000e+00  5.5000000000000028e-02 2.0197626778716409e-16 0.0000000000000000e+00  5.5000000000000007e-02 5.8897545099313117e-17 0.0000000000000000e+00  5.5000000000000028e-02 -1.2984613308847838e-17 0.0000000000000000e+00  5.5000000000000007e-02 6.2880442101084681e-17 0.0000000000000000e+00  5.5000000000000028e-02 -3.5012166473659521e-16 0.0000000000000000e+00  5.5000000000000014e-02 9.9840614191309842e-17 0.0000000000000000e+00  5.5000000000000028e-02 -1.3593740112086184e-16 0.0000000000000000e+00  5.5000000000000007e-02 1.4103427307987113e-16 0.0000000000000000e+00  5.5000000000000028e-02 -3.3620831687736175e-16 0.0000000000000000e+00  5.5000000000000028e-02 1.4057061575054509e-16 0.0000000000000000e+00  5.5000000000000035e-02 -3.0233120191429805e-16 0.0000000000000000e+00  5.5000000000000007e-02 -9.7883886481262737e-17 0.0000000000000000e+00  5.5000000000000035e-02 -1.0971990163334344e-16 0.0000000000000000e+00  5.5000000000000007e-02 -2.8713607782430435e-16 0.0000000000000000e+00  5.5000000000000070e-02 6.1198600167348266e-16 0.0000000000000000e+00  5.4999999999999896e-02 -1.8180990176923364e-15 0.0000000000000000e+00  5.5000000000000403e-02 5.4831404034830884e-15 0.0000000000000000e+00  5.4999999999998814e-02 -1.6147206624829524e-14 0.0000000000000000e+00  5.5000000000003657e-02 4.8654015655628738e-14 0.0000000000000000e+00  5.4999999999989120e-02 -1.4587739904062732e-13 0.0000000000000000e+00  5.5000000000032571e-02 4.3468100452043945e-13 0.0000000000000000e+00  5.4999999999903501e-02 -1.2890132612738962e-12 0.0000000000000000e+00  5.5000000000285133e-02 3.8068912207322162e-12 0.0000000000000000e+00  5.4999999999161039e-02 -1.1203031298513179e-11 0.0000000000000000e+00  5.5000000002461032e-02 3.2861757884690050e-11 0.0000000000000000e+00  5.4999999992802681e-02 -9.6105556011005404e-11 0.0000000000000000e+00  5.5000000020990952e-02 2.8028943102735420e-10 0.0000000000000000e+00  5.4999999938938636e-02 -8.1533808335140489e-10 0.0000000000000000e+00  5.5000000177188223e-02 2.3659145265694548e-09 0.0000000000000000e+00  5.4999999487039139e-02 -6.8491249175319665e-09 0.0000000000000000e+00  5.5000001481679293e-02 1.9782440899941080e-08 0.0000000000000000e+00  5.4999995729500956e-02 -5.7010902660573833e-08 0.0000000000000000e+00  5.5000012282549318e-02 1.6393956331356781e-07 0.0000000000000000e+00  5.4999964745512844e-02 -4.7039427140100493e-07 0.0000000000000000e+00  5.5000100992330547e-02 1.3467424620096399e-06 0.0000000000000000e+00  5.4999711236472293e-02 -3.8471444189695774e-06 0.0000000000000000e+00  5.5000824129247818e-02 1.0964880963886524e-05 0.0000000000000000e+00  5.4997652513636967e-02 -3.1185193854342057e-05 0.0000000000000000e+00  5.5006669939265188e-02 8.8540381976445173e-05 0.0000000000000000e+00  5.4981132963262340e-02 -2.5154084280661380e-04 0.0000000000000000e+00  5.5052836183576204e-02 7.1806330694591130e-04 0.0000000000000000e+00  5.4855811656837609e-02 -2.0964606613378301e-03 0.0000000000000000e+00  5.5366752637125129e-02 6.3981823918314003e-03 0.0000000000000000e+00  5.4266119045636843e-02 -2.2189354760589867e-02 0.0000000000000000e+00  5.5059802386800506e-02 8.7158082230695294e-02 0.0000000000000000e+00  1.1493501945544637e-01 -1.0775260507530040e+00 0.0000000000000000e+00  2.2849822107344314e-01 -2.3416816739178952e+00 0.0000000000000000e+00  2.9976541552145070e-01 -2.8536748979207807e+00 0.0000000000000000e+00  3.4305702937576660e-01 -3.1177002146342674e+00 0.0000000000000000e+00  3.6283843585502429e-01 -3.2286377108113173e+00 0.0000000000000000e+00  3.7221077794348134e-01 -3.2821298058717687e+00 0.0000000000000000e+00  3.7526856554524118e-01 -3.3019085605665577e+00 0.0000000000000000e+00  3.7546602337706858e-01 -3.3070791375500335e+00 0.0000000000000000e+00  3.7415657375678824e-01 -3.3047844418506176e+00 0.0000000000000000e+00  3.7206110601758174e-01 -3.2983586040349526e+00 0.0000000000000000e+00  3.6962758833170900e-01 -3.2902545299534744e+00 0.0000000000000000e+00  3.6695147435082043e-01 -3.2809947412912028e+00 0.0000000000000000e+00  3.6421598788119047e-01 -3.2712848087151487e+00 0.0000000000000000e+00  3.6140577648959077e-01 -3.2612503485891802e+00 0.0000000000000000e+00  3.5858065398268957e-01 -3.2511365287117053e+00 0.0000000000000000e+00  3.5574717608444434e-01 -3.2408779832524077e+00 0.0000000000000000e+00  3.5290779356296365e-01 -3.2306376638001471e+00 0.0000000000000000e+00  3.5006972027727945e-01 -3.2203676608603118e+00 0.0000000000000000e+00  3.4724051183236626e-01 -3.2100809051078079e+00 0.0000000000000000e+00  3.4441162594141411e-01 -3.1998227632446685e+00 0.0000000000000000e+00  3.4159128950997697e-01 -3.1895668686877525e+00 0.0000000000000000e+00  3.3877954191682724e-01 -3.1793141628021515e+00 0.0000000000000000e+00  3.3597238075539892e-01 -3.1690936298764751e+00 0.0000000000000000e+00  3.3317422111785927e-01 -3.1588824972300724e+00 0.0000000000000000e+00  3.3038499092695828e-01 -3.1486853914186121e+00 0.0000000000000000e+00  3.2760206302460854e-01 -3.1385174234068050e+00 0.0000000000000000e+00  3.2482831769331982e-01 -3.1283659267755359e+00 0.0000000000000000e+00  3.2206358623976489e-01 -3.1182327950034496e+00 0.0000000000000000e+00  3.1930646834782733e-01 -3.1081277471091995e+00 0.0000000000000000e+00  3.1655841727144829e-01 -3.0980443291218465e+00 0.0000000000000000e+00  3.1381971500464884e-01 -3.0879821673223331e+00 0.0000000000000000e+00  3.1108945961127393e-01 -3.0779481408493599e+00 0.0000000000000000e+00  3.0836834759457460e-01 -3.0679392510942534e+00 0.0000000000000000e+00  3.0565683517943820e-01 -3.0579548119989628e+00 0.0000000000000000e+00  3.0295445047136155e-01 -3.0479982316875094e+00 0.0000000000000000e+00  3.0026139845864402e-01 -3.0380701698606960e+00 0.0000000000000000e+00  2.9757815304886809e-01 -3.0281687158991546e+00 0.0000000000000000e+00  2.9490457784410196e-01 -3.0182962360434025e+00 0.0000000000000000e+00  2.9224066945696553e-01 -3.0084536629222796e+00 0.0000000000000000e+00  2.8958672555645448e-01 -2.9986406869398867e+00 0.0000000000000000e+00  2.8694291546403516e-01 -2.9888572967856244e+00 0.0000000000000000e+00  2.8430915194679796e-01 -2.9791052633419688e+00 0.0000000000000000e+00  2.8168562545981052e-01 -2.9693844867309758e+00 0.0000000000000000e+00  2.7907251913398112e-01 -2.9596950726433748e+00 0.0000000000000000e+00  2.7646994948389575e-01 -2.9500373051678572e+00 0.0000000000000000e+00  2.7387792433649033e-01 -2.9404122963964308e+00 0.0000000000000000e+00  2.7129665514058710e-01 -2.9308197043218138e+00 0.0000000000000000e+00  2.6872629131790488e-01 -2.9212597825464477e+00 0.0000000000000000e+00  2.6616696367697340e-01 -2.9117325783971744e+00 0.0000000000000000e+00  2.6361874341695329e-01 -2.9022388132972985e+00 0.0000000000000000e+00  2.6108183400618712e-01 -2.8927780174119837e+00 0.0000000000000000e+00  2.5855641173749239e-01 -2.8833502502659276e+00 0.0000000000000000e+00  2.5604263799742832e-01 -2.8739552160196733e+00 0.0000000000000000e+00  2.5354064129961135e-01 -2.8645932340165197e+00 0.0000000000000000e+00  2.5105062275950640e-01 -2.8552636983755759e+00 0.0000000000000000e+00  2.4857281936332923e-01 -2.8459662023512577e+00 0.0000000000000000e+00  2.4610744324475706e-01 -2.8366999934265569e+00 0.0000000000000000e+00  2.4365470432404310e-01 -2.8274647657743142e+00 0.0000000000000000e+00  2.4121481235729414e-01 -2.8182597086234731e+00 0.0000000000000000e+00  2.3878808216780362e-01 -2.8090837752791824e+00 0.0000000000000000e+00  2.3637480476586614e-01 -2.7999355412518172e+00 0.0000000000000000e+00  2.3397533142852167e-01 -2.7908136233768639e+00 0.0000000000000000e+00  2.3158992809157264e-01 -2.7817166454055950e+00 0.0000000000000000e+00  2.2921899179467353e-01 -2.7726428197664417e+00 0.0000000000000000e+00  2.2686289550564662e-01 -2.7635899436752656e+00 0.0000000000000000e+00  2.2452218616441022e-01 -2.7545551065877190e+00 0.0000000000000000e+00  2.2219732787741805e-01 -2.7455353285813193e+00 0.0000000000000000e+00  2.1988890603253189e-01 -2.7365272629639299e+00 0.0000000000000000e+00  2.1759741912159347e-01 -2.7275274966507457e+00 0.0000000000000000e+00  2.1532355180743284e-01 -2.7185318137131405e+00 0.0000000000000000e+00  2.1306800405578541e-01 -2.7095352020698686e+00 0.0000000000000000e+00  2.1083170301941767e-01 -2.7005315334609179e+00 0.0000000000000000e+00  2.0861560842477422e-01 -2.6915136964261870e+00 0.0000000000000000e+00  2.0642084773891317e-01 -2.6824738236450614e+00 0.0000000000000000e+00  2.0424858943457377e-01 -2.6734029443741272e+00 0.0000000000000000e+00  2.0210017838829752e-01 -2.6642912318009273e+00 0.0000000000000000e+00  1.9997712487179067e-01 -2.6551268197849067e+00 0.0000000000000000e+00  1.9788122492221452e-01 -2.6458961481909067e+00 0.0000000000000000e+00  1.9581460106103207e-01 -2.6365823626843397e+00 0.0000000000000000e+00  1.9377976424313317e-01 -2.6271660579276515e+00 0.0000000000000000e+00  1.9177965064425362e-01 -2.6176236566094575e+00 0.0000000000000000e+00  1.8981763989743189e-01 -2.6079284671794958e+00 0.0000000000000000e+00  1.8789756663403487e-01 -2.5980492