<?xml version="1.0"?>
<VTKFile type="UnstructuredGrid"  version="0.1"  >
<UnstructuredGrid>
<Piece  NumberOfPoints="801" NumberOfCells="800">
<Points>
<DataArray  type="Float64"  NumberOfComponents="3"  format="ascii">-5 0 0  -4.9875 0 0  -4.975 0 0  -4.9625 0 0  -4.95 0 0  -4.9375 0 0  -4.925 0 0  -4.9125 0 0  -4.9 0 0  -4.8875 0 0  -4.875 0 0  -4.8625 0 0  -4.85 0 0  -4.8375 0 0  -4.825 0 0  -4.8125 0 0  -4.8 0 0  -4.7875 0 0  -4.775 0 0  -4.7625 0 0  -4.75 0 0  -4.7375 0 0  -4.725 0 0  -4.7125 0 0  -4.7 0 0  -4.6875 0 0  -4.675 0 0  -4.6625 0 0  -4.65 0 0  -4.6375 0 0  -4.625 0 0  -4.6125 0 0  -4.6 0 0  -4.5875 0 0  -4.575 0 0  -4.5625 0 0  -4.55 0 0  -4.5375 0 0  -4.525 0 0  -4.5125 0 0  -4.5 0 0  -4.4875 0 0  -4.475 0 0  -4.4625 0 0  -4.45 0 0  -4.4375 0 0  -4.425 0 0  -4.4125 0 0  -4.4 0 0  -4.3875 0 0  -4.375 0 0  -4.3625 0 0  -4.35 0 0  -4.3375 0 0  -4.325 0 0  -4.3125 0 0  -4.3 0 0  -4.2875 0 0  -4.275 0 0  -4.2625 0 0  -4.25 0 0  -4.2375 0 0  -4.225 0 0  -4.2125 0 0  -4.2 0 0  -4.1875 0 0  -4.175 0 0  -4.1625 0 0  -4.15 0 0  -4.1375 0 0  -4.125 0 0  -4.1125 0 0  -4.1 0 0  -4.0875 0 0  -4.075 0 0  -4.0625 0 0  -4.05 0 0  -4.0375 0 0  -4.025 0 0  -4.0125 0 0  -4 0 0  -3.9875 0 0  -3.975 0 0  -3.9625 0 0  -3.95 0 0  -3.9375 0 0  -3.925 0 0  -3.9125 0 0  -3.9 0 0  -3.8875 0 0  -3.875 0 0  -3.8625 0 0  -3.85 0 0  -3.8375 0 0  -3.825 0 0  -3.8125 0 0  -3.8 0 0  -3.7875 0 0  -3.775 0 0  -3.7625 0 0  -3.75 0 0  -3.7375 0 0  -3.725 0 0  -3.7125 0 0  -3.7 0 0  -3.6875 0 0  -3.675 0 0  -3.6625 0 0  -3.65 0 0  -3.6375 0 0  -3.625 0 0  -3.6125 0 0  -3.6 0 0  -3.5875 0 0  -3.575 0 0  -3.5625 0 0  -3.55 0 0  -3.5375 0 0  -3.525 0 0  -3.5125 0 0  -3.5 0 0  -3.4875 0 0  -3.475 0 0  -3.4625 0 0  -3.45 0 0  -3.4375 0 0  -3.425 0 0  -3.4125 0 0  -3.4 0 0  -3.3875 0 0  -3.375 0 0  -3.3625 0 0  -3.35 0 0  -3.3375 0 0  -3.325 0 0  -3.3125 0 0  -3.3 0 0  -3.2875 0 0  -3.275 0 0  -3.2625 0 0  -3.25 0 0  -3.2375 0 0  -3.225 0 0  -3.2125 0 0  -3.2 0 0  -3.1875 0 0  -3.175 0 0  -3.1625 0 0  -3.15 0 0  -3.1375 0 0  -3.125 0 0  -3.1125 0 0  -3.1 0 0  -3.0875 0 0  -3.075 0 0  -3.0625 0 0  -3.05 0 0  -3.0375 0 0  -3.025 0 0  -3.0125 0 0  -3 0 0  -2.9875 0 0  -2.975 0 0  -2.9625 0 0  -2.95 0 0  -2.9375 0 0  -2.925 0 0  -2.9125 0 0  -2.9 0 0  -2.8875 0 0  -2.875 0 0  -2.8625 0 0  -2.85 0 0  -2.8375 0 0  -2.825 0 0  -2.8125 0 0  -2.8 0 0  -2.7875 0 0  -2.775 0 0  -2.7625 0 0  -2.75 0 0  -2.7375 0 0  -2.725 0 0  -2.7125 0 0  -2.7 0 0  -2.6875 0 0  -2.675 0 0  -2.6625 0 0  -2.65 0 0  -2.6375 0 0  -2.625 0 0  -2.6125 0 0  -2.6 0 0  -2.5875 0 0  -2.575 0 0  -2.5625 0 0  -2.55 0 0  -2.5375 0 0  -2.525 0 0  -2.5125 0 0  -2.5 0 0  -2.4875 0 0  -2.475 0 0  -2.4625 0 0  -2.45 0 0  -2.4375 0 0  -2.425 0 0  -2.4125 0 0  -2.4 0 0  -2.3875 0 0  -2.375 0 0  -2.3625 0 0  -2.35 0 0  -2.3375 0 0  -2.325 0 0  -2.3125 0 0  -2.3 0 0  -2.2875 0 0  -2.275 0 0  -2.2625 0 0  -2.25 0 0  -2.2375 0 0  -2.225 0 0  -2.2125 0 0  -2.2 0 0  -2.1875 0 0  -2.175 0 0  -2.1625 0 0  -2.15 0 0  -2.1375 0 0  -2.125 0 0  -2.1125 0 0  -2.1 0 0  -2.0875 0 0  -2.075 0 0  -2.0625 0 0  -2.05 0 0  -2.0375 0 0  -2.025 0 0  -2.0125 0 0  -2 0 0  -1.9875 0 0  -1.975 0 0  -1.9625 0 0  -1.95 0 0  -1.9375 0 0  -1.925 0 0  -1.9125 0 0  -1.9 0 0  -1.8875 0 0  -1.875 0 0  -1.8625 0 0  -1.85 0 0  -1.8375 0 0  -1.825 0 0  -1.8125 0 0  -1.8 0 0  -1.7875 0 0  -1.775 0 0  -1.7625 0 0  -1.75 0 0  -1.7375 0 0  -1.725 0 0  -1.7125 0 0  -1.7 0 0  -1.6875 0 0  -1.675 0 0  -1.6625 0 0  -1.65 0 0  -1.6375 0 0  -1.625 0 0  -1.6125 0 0  -1.6 0 0  -1.5875 0 0  -1.575 0 0  -1.5625 0 0  -1.55 0 0  -1.5375 0 0  -1.525 0 0  -1.5125 0 0  -1.5 0 0  -1.4875 0 0  -1.475 0 0  -1.4625 0 0  -1.45 0 0  -1.4375 0 0  -1.425 0 0  -1.4125 0 0  -1.4 0 0  -1.3875 0 0  -1.375 0 0  -1.3625 0 0  -1.35 0 0  -1.3375 0 0  -1.325 0 0  -1.3125 0 0  -1.3 0 0  -1.2875 0 0  -1.275 0 0  -1.2625 0 0  -1.25 0 0  -1.2375 0 0  -1.225 0 0  -1.2125 0 0  -1.2 0 0  -1.1875 0 0  -1.175 0 0  -1.1625 0 0  -1.15 0 0  -1.1375 0 0  -1.125 0 0  -1.1125 0 0  -1.1 0 0  -1.0875 0 0  -1.075 0 0  -1.0625 0 0  -1.05 0 0  -1.0375 0 0  -1.025 0 0  -1.0125 0 0  -1 0 0  -0.9874999999999998 0 0  -0.9749999999999996 0 0  -0.9625000000000004 0 0  -0.9500000000000002 0 0  -0.9375 0 0  -0.9249999999999998 0 0  -0.9124999999999996 0 0  -0.9000000000000004 0 0  -0.8875000000000002 0 0  -0.875 0 0  -0.8624999999999998 0 0  -0.8499999999999996 0 0  -0.8375000000000004 0 0  -0.8250000000000002 0 0  -0.8125 0 0  -0.7999999999999998 0 0  -0.7874999999999996 0 0  -0.7750000000000004 0 0  -0.7625000000000002 0 0  -0.75 0 0  -0.7374999999999998 0 0  -0.7249999999999996 0 0  -0.7125000000000004 0 0  -0.7000000000000002 0 0  -0.6875 0 0  -0.6749999999999998 0 0  -0.6624999999999996 0 0  -0.6500000000000004 0 0  -0.6375000000000002 0 0  -0.625 0 0  -0.6124999999999998 0 0  -0.5999999999999996 0 0  -0.5875000000000004 0 0  -0.5750000000000002 0 0  -0.5625 0 0  -0.5499999999999998 0 0  -0.5374999999999996 0 0  -0.5250000000000004 0 0  -0.5125000000000002 0 0  -0.5 0 0  -0.4874999999999998 0 0  -0.4749999999999996 0 0  -0.4625000000000004 0 0  -0.4500000000000002 0 0  -0.4375 0 0  -0.4249999999999998 0 0  -0.4124999999999996 0 0  -0.4000000000000004 0 0  -0.3875000000000002 0 0  -0.375 0 0  -0.3624999999999998 0 0  -0.3499999999999996 0 0  -0.3375000000000004 0 0  -0.3250000000000002 0 0  -0.3125 0 0  -0.2999999999999998 0 0  -0.2874999999999996 0 0  -0.2750000000000004 0 0  -0.2625000000000002 0 0  -0.25 0 0  -0.2374999999999998 0 0  -0.2249999999999996 0 0  -0.2125000000000004 0 0  -0.2000000000000002 0 0  -0.1875 0 0  -0.1749999999999998 0 0  -0.1624999999999996 0 0  -0.1500000000000004 0 0  -0.1375000000000002 0 0  -0.125 0 0  -0.1124999999999998 0 0  -0.09999999999999964 0 0  -0.08750000000000036 0 0  -0.07500000000000018 0 0  -0.0625 0 0  -0.04999999999999982 0 0  -0.03749999999999964 0 0  -0.02500000000000036 0 0  -0.01250000000000018 0 0  0 0 0  0.01250000000000018 0 0  0.02500000000000036 0 0  0.03749999999999964 0 0  0.04999999999999982 0 0  0.0625 0 0  0.07500000000000018 0 0  0.08750000000000036 0 0  0.09999999999999964 0 0  0.1124999999999998 0 0  0.125 0 0  0.1375000000000002 0 0  0.1500000000000004 0 0  0.1624999999999996 0 0  0.1749999999999998 0 0  0.1875 0 0  0.2000000000000002 0 0  0.2125000000000004 0 0  0.2249999999999996 0 0  0.2374999999999998 0 0  0.25 0 0  0.2625000000000002 0 0  0.2750000000000004 0 0  0.2874999999999996 0 0  0.2999999999999998 0 0  0.3125 0 0  0.3250000000000002 0 0  0.3375000000000004 0 0  0.3499999999999996 0 0  0.3624999999999998 0 0  0.375 0 0  0.3875000000000002 0 0  0.4000000000000004 0 0  0.4124999999999996 0 0  0.4249999999999998 0 0  0.4375 0 0  0.4500000000000002 0 0  0.4625000000000004 0 0  0.4749999999999996 0 0  0.4874999999999998 0 0  0.5 0 0  0.5125000000000002 0 0  0.5250000000000004 0 0  0.5374999999999996 0 0  0.5499999999999998 0 0  0.5625 0 0  0.5750000000000002 0 0  0.5875000000000004 0 0  0.5999999999999996 0 0  0.6124999999999998 0 0  0.625 0 0  0.6375000000000002 0 0  0.6500000000000004 0 0  0.6624999999999996 0 0  0.6749999999999998 0 0  0.6875 0 0  0.7000000000000002 0 0  0.7125000000000004 0 0  0.7249999999999996 0 0  0.7374999999999998 0 0  0.75 0 0  0.7625000000000002 0 0  0.7750000000000004 0 0  0.7874999999999996 0 0  0.7999999999999998 0 0  0.8125 0 0  0.8250000000000002 0 0  0.8375000000000004 0 0  0.8499999999999996 0 0  0.8624999999999998 0 0  0.875 0 0  0.8875000000000002 0 0  0.9000000000000004 0 0  0.9124999999999996 0 0  0.9249999999999998 0 0  0.9375 0 0  0.9500000000000002 0 0  0.9625000000000004 0 0  0.9749999999999996 0 0  0.9874999999999998 0 0  1 0 0  1.0125 0 0  1.025 0 0  1.0375 0 0  1.05 0 0  1.0625 0 0  1.075 0 0  1.0875 0 0  1.1 0 0  1.1125 0 0  1.125 0 0  1.1375 0 0  1.15 0 0  1.1625 0 0  1.175 0 0  1.1875 0 0  1.2 0 0  1.2125 0 0  1.225 0 0  1.2375 0 0  1.25 0 0  1.2625 0 0  1.275 0 0  1.2875 0 0  1.3 0 0  1.3125 0 0  1.325 0 0  1.3375 0 0  1.35 0 0  1.3625 0 0  1.375 0 0  1.3875 0 0  1.4 0 0  1.4125 0 0  1.425 0 0  1.4375 0 0  1.45 0 0  1.4625 0 0  1.475 0 0  1.4875 0 0  1.5 0 0  1.5125 0 0  1.525 0 0  1.5375 0 0  1.55 0 0  1.5625 0 0  1.575 0 0  1.5875 0 0  1.6 0 0  1.6125 0 0  1.625 0 0  1.6375 0 0  1.65 0 0  1.6625 0 0  1.675 0 0  1.6875 0 0  1.7 0 0  1.7125 0 0  1.725 0 0  1.7375 0 0  1.75 0 0  1.7625 0 0  1.775 0 0  1.7875 0 0  1.8 0 0  1.8125 0 0  1.825 0 0  1.8375 0 0  1.85 0 0  1.8625 0 0  1.875 0 0  1.8875 0 0  1.9 0 0  1.9125 0 0  1.925 0 0  1.9375 0 0  1.95 0 0  1.9625 0 0  1.975 0 0  1.9875 0 0  2 0 0  2.0125 0 0  2.025 0 0  2.0375 0 0  2.05 0 0  2.0625 0 0  2.075 0 0  2.0875 0 0  2.1 0 0  2.1125 0 0  2.125 0 0  2.1375 0 0  2.15 0 0  2.1625 0 0  2.175 0 0  2.1875 0 0  2.2 0 0  2.2125 0 0  2.225 0 0  2.2375 0 0  2.25 0 0  2.2625 0 0  2.275 0 0  2.2875 0 0  2.3 0 0  2.3125 0 0  2.325 0 0  2.3375 0 0  2.35 0 0  2.3625 0 0  2.375 0 0  2.3875 0 0  2.4 0 0  2.4125 0 0  2.425 0 0  2.4375 0 0  2.45 0 0  2.4625 0 0  2.475 0 0  2.4875 0 0  2.5 0 0  2.5125 0 0  2.525 0 0  2.5375 0 0  2.55 0 0  2.5625 0 0  2.575 0 0  2.5875 0 0  2.6 0 0  2.6125 0 0  2.625 0 0  2.6375 0 0  2.65 0 0  2.6625 0 0  2.675 0 0  2.6875 0 0  2.7 0 0  2.7125 0 0  2.725 0 0  2.7375 0 0  2.75 0 0  2.7625 0 0  2.775 0 0  2.7875 0 0  2.8 0 0  2.8125 0 0  2.825 0 0  2.8375 0 0  2.85 0 0  2.8625 0 0  2.875 0 0  2.8875 0 0  2.9 0 0  2.9125 0 0  2.925 0 0  2.9375 0 0  2.95 0 0  2.9625 0 0  2.975 0 0  2.9875 0 0  3 0 0  3.012499999999999 0 0  3.025 0 0  3.0375 0 0  3.050000000000001 0 0  3.0625 0 0  3.074999999999999 0 0  3.0875 0 0  3.1 0 0  3.112500000000001 0 0  3.125 0 0  3.137499999999999 0 0  3.15 0 0  3.1625 0 0  3.175000000000001 0 0  3.1875 0 0  3.199999999999999 0 0  3.2125 0 0  3.225 0 0  3.237500000000001 0 0  3.25 0 0  3.262499999999999 0 0  3.275 0 0  3.2875 0 0  3.300000000000001 0 0  3.3125 0 0  3.324999999999999 0 0  3.3375 0 0  3.35 0 0  3.362500000000001 0 0  3.375 0 0  3.387499999999999 0 0  3.4 0 0  3.4125 0 0  3.425000000000001 0 0  3.4375 0 0  3.449999999999999 0 0  3.4625 0 0  3.475 0 0  3.4875
[...]
<PointData  Vectors="(h, u)"> 
<DataArray  type="Float64"  Name="(h, u)"  NumberOfComponents="3" format="ascii">1.9514645549217349e-01 0.0000000000000000e+00 0.0000000000000000e+00  1.9442364443539326e-01 6.0040589575833872e-03 0.0000000000000000e+00  1.9514469813441299e-01 1.1815838092624735e-02 0.0000000000000000e+00  1.9441863230475961e-01 1.8012646175867935e-02 0.0000000000000000e+00  1.9513943047498231e-01 2.3632019457343296e-02 0.0000000000000000e+00  1.9440861286868047e-01 3.0022405417552286e-02 0.0000000000000000e+00  1.9513065241205529e-01 3.5448636784069586e-02 0.0000000000000000e+00  1.9439357413047784e-01 4.2033990307763940e-02 0.0000000000000000e+00  1.9511834025235522e-01 4.7266012539580120e-02 0.0000000000000000e+00  1.9437348767302692e-01 5.4048342936692910e-02 0.0000000000000000e+00  1.9510247180755472e-01 5.9084588070428351e-02 0.0000000000000000e+00  1.9434834626630393e-01 6.6066216408905365e-02 0.0000000000000000e+00  1.9508304357196460e-01 7.0904507710172926e-02 0.0000000000000000e+00  1.9431814030695843e-01 7.8088219536745093e-02 0.0000000000000000e+00  1.9506001664712025e-01 8.2726116765636751e-02 0.0000000000000000e+00  1.9428281919808491e-01 9.0115327705484069e-02 0.0000000000000000e+00  1.9503333440981305e-01 9.4550000319437152e-02 0.0000000000000000e+00  1.9424236120089453e-01 1.0214835911799514e-01 0.0000000000000000e+00  1.9500298649955713e-01 1.0637637006983615e-01 0.0000000000000000e+00  1.9419676717775791e-01 1.1418785072823132e-01 0.0000000000000000e+00  1.9496892585128486e-01 1.1820562961085757e-01 0.0000000000000000e+00  1.9414596876961579e-01 1.2623480054406772e-01 0.0000000000000000e+00  1.9493105997564081e-01 1.3003858800331586e-01 0.0000000000000000e+00  1.9408992589414001e-01 1.3829004635643749e-01 0.0000000000000000e+00  1.9488937375945881e-01 1.4187555040561173e-01 0.0000000000000000e+00  1.9402865594154181e-01 1.5035395287236913e-01 0.0000000000000000e+00  1.9484381871533138e-01 1.5371701350159836e-01 0.0000000000000000e+00  1.9396207668568510e-01 1.6242752512572400e-01 0.0000000000000000e+00  1.9479426212459858e-01 1.6556408487165389e-01 0.0000000000000000e+00  1.9389013411707201e-01 1.7451159904396490e-01 0.0000000000000000e+00  1.9474068298765207e-01 1.7741711507885849e-01 0.0000000000000000e+00  1.9381287717047635e-01 1.8660629609240598e-01 0.0000000000000000e+00  1.9468302504125554e-01 1.8927666936852991e-01 0.0000000000000000e+00  1.9373021491162695e-01 1.9871269793004143e-01 0.0000000000000000e+00  1.9462110038268121e-01 2.0114420711018549e-01 0.0000000000000000e+00  1.9364209149021508e-01 2.1083164451627046e-01 0.0000000000000000e+00  1.9455488466868895e-01 2.1302003683641496e-01 0.0000000000000000e+00  1.9354860207645264e-01 2.2296292845400789e-01 0.0000000000000000e+00  1.9448430312081971e-01 2.2490483913395076e-01 0.0000000000000000e+00  1.9344963274159913e-01 2.3510779446651883e-01 0.0000000000000000e+00  1.9440910119967300e-01 2.3680056820855047e-01 0.0000000000000000e+00  1.9334513288803393e-01 2.4726698719765958e-01 0.0000000000000000e+00  1.9432927389342983e-01 2.4870742622555675e-01 0.0000000000000000e+00  1.9323524770764711e-01 2.5943983655947206e-01 0.0000000000000000e+00  1.9424471193061008e-01 2.6062640857875391e-01 0.0000000000000000e+00  1.9311980383804353e-01 2.7162790120081942e-01 0.0000000000000000e+00  1.9415508440540574e-01 2.7256011182622025e-01 0.0000000000000000e+00  1.9299877744306929e-01 2.8383163450304588e-01 0.0000000000000000e+00  1.9406043740469708e-01 2.8450844381863238e-01 0.0000000000000000e+00  1.9287236663486598e-01 2.9604989875870963e-01 0.0000000000000000e+00  1.9396057847378617e-01 2.9647301681431598e-01 0.0000000000000000e+00  1.9274029707544652e-01 3.0828492392784385e-01 0.0000000000000000e+00  1.9385509246242436e-01 3.0845701688935961e-01 0.0000000000000000e+00  1.9260263316582996e-01 3.2053655101533413e-01 0.0000000000000000e+00  1.9374411030175370e-01 3.2045969403279739e-01 0.0000000000000000e+00  1.9245960840279608e-01 3.3280343805038165e-01 0.0000000000000000e+00  1.9362726431815283e-01 3.3248382379617403e-01 0.0000000000000000e+00  1.9231079912471280e-01 3.4508893194245510e-01 0.0000000000000000e+00  1.9350409369808594e-01 3.4453282623683906e-01 0.0000000000000000e+00  1.9215646062102995e-01 3.5739156552088908e-01 0.0000000000000000e+00  1.9337485236673302e-01 3.5660500946746321e-01 0.0000000000000000e+00  1.9199676271955513e-01 3.6971047067144824e-01 0.0000000000000000e+00  1.9323886235149346e-01 3.6870535159617979e-01 0.0000000000000000e+00  1.9183109456024480e-01 3.8205029713062322e-01 0.0000000000000000e+00  1.9309577040028328e-01 3.8083653101977194e-01 0.0000000000000000e+00  1.9166005178983417e-01 3.9440707044697521e-01 0.0000000000000000e+00  1.9294593751160513e-01 3.9299615916872338e-01 0.0000000000000000e+00  1.9148348529732140e-01 4.0678207927353716e-01 0.0000000000000000e+00  1.9278819164101632e-01 4.0519285772609559e-01 0.0000000000000000e+00  1.9130068977343814e-01 4.1918052554652591e-01 0.0000000000000000e+00  1.9262263736030771e-01 4.1742612988672412e-01 0.0000000000000000e+00  1.9111276838440350e-01 4.3159470005808359e-01 0.0000000000000000e+00  1.9244946828419637e-01 4.2969485757104003e-01 0.0000000000000000e+00  1.9091874813043919e-01 4.4403168945030047e-01 0.0000000000000000e+00  1.9226691430809403e-01 4.4201198814122661e-01 0.0000000000000000e+00  1.9071836437102171e-01 4.5649353236925894e-01 0.0000000000000000e+00  1.9207614355981190e-01 4.5436937856446247e-01 0.0000000000000000e+00  1.9051306903732668e-01 4.6897005369556549e-01 0.0000000000000000e+00  1.9187623170143175e-01 4.6677386321409403e-01 0.0000000000000000e+00  1.9030041744530249e-01 4.8147892952732785e-01 0.0000000000000000e+00  1.9166547006213641e-01 4.7923786150646430e-01 0.0000000000000000e+00  1.9008199963206701e-01 4.9400903994178691e-01 0.0000000000000000e+00  1.9144640242293726e-01 4.9174323535920345e-01 0.0000000000000000e+00  1.8985800807081410e-01 5.0655929767326002e-01 0.0000000000000000e+00  1.9121522369947563e-01 5.0431743798400330e-01 0.0000000000000000e+00  1.8962514085594595e-01 5.1915359932587513e-01 0.0000000000000000e+00  1.9097308907041077e-01 5.1695226923488513e-01 0.0000000000000000e+00  1.8938828633360363e-01 5.3175721711012514e-01 0.0000000000000000e+00  1.9072137474884723e-01 5.2963797091703857e-01 0.0000000000000000e+00  1.8914242087719413e-01 5.4440640195785606e-01 0.0000000000000000e+00  1.9045365823586741e-01 5.4242093060968011e-01 0.0000000000000000e+00  1.8888873907126058e-01 5.5709276449947875e-01 0.0000000000000000e+00  1.9017763023301754e-01 5.5524598749875731e-01 0.0000000000000000e+00  1.8863119768226227e-01 5.6978809754316773e-01 0.0000000000000000e+00  1.8988555310708494e-01 5.6816917139123779e-01 0.0000000000000000e+00  1.8835921839080622e-01 5.8256846826158493e-01 0.0000000000000000e+00  1.8957840638518678e-01 5.8118372076327074e-01 0.0000000000000000e+00  1.8808620939729281e-01 5.9533758093970213e-01 0.0000000000000000e+00  1.8926270171773366e-01 5.9424301530286827e-01 0.0000000000000000e+00  1.8779988546430440e-01 6.0818392826895984e-01 0.0000000000000000e+00  1.8892099436867091e-01 6.0747334046372459e-01 0.0000000000000000e+00  1.8750363903460546e-01 6.2108310380799681e-01 0.0000000000000000e+00  1.8857529158334677e-01 6.2071606002896340e-01 0.0000000000000000e+00  1.8720711408178026e-01 6.3396577854493497e-01 0.0000000000000000e+00  1.8820305538586451e-01 6.3413445818404857e-01 0.0000000000000000e+00  1.8688427019155585e-01 6.4701992831430399e-01 0.0000000000000000e+00  1.8781463663036960e-01 6.4765393927438286e-01 0.0000000000000000e+00  1.8657278123086460e-01 6.5997367990622691e-01 0.0000000000000000e+00  1.8741812283885745e-01 6.6121625530898032e-01 0.0000000000000000e+00  1.8623073272355420e-01 6.7313038085567978e-01 0.0000000000000000e+00  1.8697880764004371e-01 6.7507318980909492e-01 0.0000000000000000e+00  1.8588871980029251e-01 6.8626877224210159e-01 0.0000000000000000e+00  1.8655553422741239e-01 6.8879824472512730e-01 0.0000000000000000e+00  1.8554063766448850e-01 6.9943358309987258e-01 0.0000000000000000e+00  1.8607355364191230e-01 7.0293441443293425e-01 0.0000000000000000e+00  1.8515272821539971e-01 7.1286991019367285e-01 0.0000000000000000e+00  1.8560739757249475e-01 7.1694045576798249e-01 0.0000000000000000e+00  1.8480324474867924e-01 7.2600978525955084e-01 0.0000000000000000e+00  1.8510777947400361e-01 7.3117531923771906e-01 0.0000000000000000e+00  1.8437155914370579e-01 7.3973084391789401e-01 0.0000000000000000e+00  1.8457868219587625e-01 7.4561047179310413e-01 0.0000000000000000e+00  1.8400594524216946e-01 7.5295342746838867e-01 0.0000000000000000e+00  1.8408885336630984e-01 7.5974525487885336e-01 0.0000000000000000e+00  1.8355961494667644e-01 7.6674844265490449e-01 0.0000000000000000e+00  1.8349383335648581e-01 7.7463448883172703e-01 0.0000000000000000e+00  1.8314927601128325e-01 7.8026345552983767e-01 0.0000000000000000e+00  1.8302499334533817e-01 7.8858801775145215e-01 0.0000000000000000e+00  1.8273601629648073e-01 7.9378355863724659e-01 0.0000000000000000e+00  1.8239514551356636e-01 8.0370733792168292e-01 0.0000000000000000e+00  1.8226050023679147e-01 8.0774283698823046e-01 0.0000000000000000e+00  1.8193666492802632e-01 8.1755801803972350e-01 0.0000000000000000e+00  1.8192444641310004e-01 8.2066249894333998e-01 0.0000000000000000e+00  1.8133239717841790e-01 8.3246656480715575e-01 0.0000000000000000e+00  1.8139174128527832e-01 8.3501025650708138e-01 0.0000000000000000e+00  1.8086732571982789e-01 8.4633988970609597e-01 0.0000000000000000e+00  1.8115704488478604e-01 8.4714890864062653e-01 0.0000000000000000e+00  1.8034920610473729e-01 8.6059212744664226e-01 0.0000000000000000e+00  1.8059742573597704e-01 8.6166482133692146e-01 0.0000000000000000e+00  1.7987806751946486e-01 8.7448564655812056e-01 0.0000000000000000e+00  1.8047485044645195e-01 8.7294046986228968e-01 0.0000000000000000e+00  1.7947287957505129e-01 8.8788209072127477e-01 0.0000000000000000e+00  1.7990695733536050e-01 8.8748873735081946e-01 0.0000000000000000e+00  1.7902865476676902e-01 9.0155335887966737e-01 0.0000000000000000e+00  1.7991396593355807e-01 8.9777087039258785e-01 0.0000000000000000e+00  1.7870474489925320e-01 9.1432556175141988e-01 0.0000000000000000e+00  1.7931967895414494e-01 9.1248707260183570e-01 0.0000000000000000e+00  1.7837175867893310e-01 9.2715061102348417e-01 0.0000000000000000e+00  1.7947393385784208e-01 9.2164465747259128e-01 0.0000000000000000e+00  1.7800920288380787e-01 9.4018512781015195e-01 0.0000000000000000e+00  1.7884435729743814e-01 9.3659649740462936e-01 0.0000000000000000e+00  1.7795814920257466e-01 9.5089761071751921e-01 0.0000000000000000e+00  1.7905862956150320e-01 9.4527724340747044e-01 0.0000000000000000e+00  1.7735357861396017e-01 9.6570321856269414e-01 0.0000000000000000e+00  1.7858027658104483e-01 9.5908089465544499e-01 0.0000000000000000e+00  1.7774315530506407e-01 9.7312439765361758e-01 0.0000000000000000e+00  1.7844545977163176e-01 9.7032280892132450e-01 0.0000000000000000e+00  1.7692976621697315e-01 9.8946031690116432e-01 0.0000000000000000e+00  1.7862086847334616e-01 9.7924087635581170e-01 0.0000000000000000e+00  1.7733181252611499e-01 9.9676833375766372e-01 0.0000000000000000e+00  1.7768655109195614e-01 9.9639483436457543e-01 0.0000000000000000e+00  1.7725478974909234e-01 1.0076149001317287e+00 0.0000000000000000e+00  1.7832328031968267e-01 1.0018594934579144e+00 0.0000000000000000e+00  1.7653311205910743e-01 1.0232448827071206e+00 0.0000000000000000e+00  1.7776982481404441e-01 1.0161574871494987e+00 0.0000000000000000e+00  1.7763889009190328e-01 1.0252834484327487e+00 0.0000000000000000e+00  1.7681772271497623e-01 1.0334083258311046e+00 0.0000000000000000e+00  1.7723476471023039e-01 1.0385314524975855e+00 0.0000000000000000e+00  1.7778729737952365e-01 1.0363519627999997e+00 0.0000000000000000e+00  1.7649608143260737e-01 1.0542627164399196e+00 0.0000000000000000e+00  1.7702402197598127e-01 1.0521748935767747e+00 0.0000000000000000e+00  1.7817771729971771e-01 1.0519784731344395e+00 0.0000000000000000e+00  1.7517955533481280e-01 1.0760309149456804e+00 0.0000000000000000e+00  1.7868344294469682e-01 1.0584175720378843e+00 0.0000000000000000e+00  1.7594964945189484e-01 1.0804247726824898e+00 0.0000000000000000e+00  1.7706255446581864e-01 1.0806880722827690e+00 0.0000000000000000e+00  1.7688078825924877e-01 1.0835925492826097e+00 0.0000000000000000e+00  1.7748304937787157e-01 1.0877564637523589e+00 0.0000000000000000e+00  1.7461660645517552e-01 1.1105542418770853e+00 0.0000000000000000e+00  1.8050838502555563e-01 1.0753931842367899e+00 0.0000000000000000e+00  1.7148774122065602e-01 1.1439525742539973e+00 0.0000000000000000e+00  1.8208516523080909e-01 1.0737869424198798e+00 0.0000000000000000e+00  1.7166158424918609e-01 1.1527558818742478e+00 0.0000000000000000e+00  1.7977660188630312e-01 1.1011697117833981e+00 0.0000000000000000e+00  1.7563322360245048e-01 1.1332364214632933e+00 0.0000000000000000e+00  1.7475229630539293e-01 1.1487711171754660e+00 0.0000000000000000e+00  1.8071620980775496e-01 1.1053724398327469e+00 0.0000000000000000e+00  1.6969950848029539e-01 1.1966094557702991e+00 0.0000000000000000e+00  1.8445618454470272e-01 1.0874573611203957e+00 0.0000000000000000e+00  1.6647272917782316e-01 1.2308991841274504e+00 0.0000000000000000e+00  1.8616729073461352e-01 1.0846705406089612e+00 0.0000000000000000e+00  1.6532832816774132e-01 1.2496489644660755e+00 0.0000000000000000e+00  1.8630093622988400e-01 1.0936732947253052e+00 0.0000000000000000e+00  1.6564518407539786e-01 1.2574421162985967e+00 0.0000000000000000e+00  1.8552199170441022e-01 1.1094880592237710e+00 0.0000000000000000e+00  1.6672523830393668e-01 1.2594951468204487e+00 0.0000000000000000e+00  1.8433253426997984e-01 1.1283518015593494e+00 0.0000000000000000e+00  1.6807824900858190e-01 1.2594868168329105e+00 0.0000000000000000e+00  1.8304412918342702e-01 1.1479365175185723e+00 0.0000000000000000e+00  1.6941752609672342e-01 1.2595689793479798e+00 0.0000000000000000e+00  1.8183211073227210e-01 1.1669381150638269e+00 0.0000000000000000e+00  1.7059810047387713e-01 1.2608277461633715e+00 0.0000000000000000e+00  1.8078152984863480e-01 1.1847269920183248e+00 0.0000000000000000e+00  1.7156583692325938e-01 1.2636673071925473e+00 0.0000000000000000e+00  1.7991818157734293e-01 1.2011136972504277e+00 0.0000000000000000e+00  1.7232099236403309e-01 1.2680848662311974e+00 0.0000000000000000e+00  1.7923185232404582e-01 1.2161752135200001e+00 0.0000000000000000e+00  1.7289167986865961e-01 1.2738700919673522e+00 0.0000000000000000e+00  1.7869467649945564e-01 1.2301186473017318e+00 0.0000000000000000e+00  1.7331552376640846e-01 1.2807424778385645e+00 0.0000000000000000e+00  1.7827418409531695e-01 1.2431845493014115e+00 0.0000000000000000e+00  1.7362861194536866e-01 1.2884337196509343e+00 0.0000000000000000e+00  1.7794098613343096e-01 1.2555901775903400e+00 0.0000000000000000e+00  1.7386038320884217e-01 1.2967253974952120e+00 0.0000000000000000e+00  1.7767199785785107e-01 1.2675060650946735e+00 0.0000000000000000e+00  1.7403241495744318e-01 1.3054575125361587e+00 0.0000000000000000e+00  1.7745079140716383e-01 1.2790536324058461e+00 0.0000000000000000e+00  1.7415925703075769e-01 1.3145222115956856e+00 0.0000000000000000e+00  1.7726654166747177e-01 1.2903129797518516e+00 0.0000000000000000e+00  1.7425006021116798e-01 1.3238513231522784e+00 0.0000000000000000e+00  1.7711267200299327e-01 1.3013338658108484e+00 0.0000000000000000e+00  1.7431001752507730e-01 1.3334041562155490e+00 0.0000000000000000e+00  1.7698568903610135e-01 1.3121455900081338e+00 0.0000000000000000e+00  1.7434167705759224e-01 1.3431578526838295e+00 0.0000000000000000e+00  1.7688392804876651e-01 1.3227639798675404e+00 0.0000000000000000e+00  1.7434607571480357e-01 1.3531029909783396e+00 0.0000000000000000e+00  1.7680677418850715e-01 1.3331936623171285e+00 0.0000000000000000e+00  1.7432334372163905e-01 1.3632388222084293e+00 0.0000000000000000e+00  1.7675438644418259e-01 1.3434361521929061e+00 0.0000000000000000e+00  1.7427251101628022e-01 1.3735647894416489e+00 0.0000000000000000e+00  1.7672816406104699e-01 1.3534934875671225e+00 0.0000000000000000e+00  1.7419200077042124e-01 1.3840815134629512e+00 0.0000000000000000e+00  1.7672868467891339e-01 1.3633623585068335e+00 0.0000000000000000e+00  1.7408238795395328e-01 1.3948015839375465e+00 0.0000000000000000e+00  1.7675436727123620e-01 1.3730222632369762e+00 0.0000000000000000e+00  1.7394505001409191e-01 1.4057466559635881e+00 0.0000000000000000e+00  1.7680496690652150e-01 1.3824700064712752e+00 0.0000000000000000e+00  1.7377760248039384e-01 1.4168924601034651e+00 0.0000000000000000e+00  1.7688518042097837e-01 1.3917545234879132e+00 0.0000000000000000e+00  1.7357508959147799e-01 1.4281963824419532e+00 0.0000000000000000e+00  1.7699425001232147e-01 1.4008836126577839e+00 0.0000000000000000e+00  1.7334870490117524e-01 1.4397111177363893e+00 0.0000000000000000e+00  1.7711081401407178e-01 1.4097545627529877e+00 0.0000000000000000e+00  1.7311941694947944e-01 1.4515446542231278e+00 0.0000000000000000e+00  1.7722859084231660e-01 1.4183551915387360e+00 0.0000000000000000e+00  1.7286786375663526e-01 1.4635145900676143e+00 0.0000000000000000e+00  1.7738874737934690e-01 1.4270830307317897e+00 0.0000000000000000e+00  1.7255085253378905e-01 1.4751803034307014e+00 0.0000000000000000e+00  1.7760158480560770e-01 1.4361115436412157e+00 0.0000000000000000e+00  1.7222445970108632e-01 1.4869288984906130e+00 0.0000000000000000e+00  1.7773636812161206e-01 1.4444879060912388e+00 0.0000000000000000e+00  1.7204806556786634e-01 1.4998412530636935e+00 0.0000000000000000e+00  1.7770816819126958e-01 1.4517750405165459e+00 0.0000000000000000e+00  1.7191317782537366e-01 1.5129645775933480e+00 0.0000000000000000e+00  1.7785976348953650e-01 1.4605098450617713e+00 0.0000000000000000e+00  1.7136556635735439e-01 1.5230164256547045e+00 0.0000000000000000e+00  1.7847147777412695e-01 1.4728100658742811e+00 0.0000000000000000e+00  1.7063060672474195e-01 1.5313629838126670e+00 0.0000000000000000e+00  1.7867396124838794e-01 1.4824567611590274e+00 0.0000000000000000e+00  1.7097895355333859e-01 1.5474611777453486e+00 0.0000000000000000e+00  1.7749667550990686e-01 1.4816227874876560e+00 0.0000000000000000e+00  1.7220248328214513e-01 1.5701870294230524e+00 0.0000000000000000e+00  1.7691073689363329e-01 1.4851564466404819e+00 0.0000000000000000e+00  1.7087623711089703e-01 1.5733983472562965e+00 0.0000000000000000e+00  1.8019631495506874e-01 1.5188084996792830e+00 0.0000000000000000e+00  1.6627396780779211e-01 1.5511588849990596e+00 0.0000000000000000e+00  1.8334035925046177e-01 1.5509205271480673e+00 0.0000000000000000e+00  1.6719075052073090e-01 1.5721013432115130e+00 0.0000000000000000e+00  1.7590158088112837e-01 1.5033491197785369e+00 0.0000000000000000e+00  1.7897744766852069e-01 1.6739462776546568e+00 0.0000000000000000e+00  1.6428293219044071e-01 1.4228348126437660e+00 0.0000000000000000e+00  1.8024975495291071e-01 1.6958292045574697e+00 0.0000000000000000e+00  1.7825694724652688e-01 1.5482517830214675e+00 0.0000000000000000e+00  1.4650181755719330e-01 1.4523925033686791e+00 0.0000000000000000e+00  2.1068099380564861e-01 1.7803753038302328e+00 0.0000000000000000e+00  6.6126825503872902e-02 8.5041873259203549e-01 0.0000000000000000e+00  2.5150473344211392e-02 -9.2342321050702225e-01 0.0000000000000000e+00  2.2793326211066792e-02 -3.9303880891011916e-01 0.0000000000000000e+00  3.3177671816702441e-02 -5.1088069470382280e-01 0.0000000000000000e+00  2.0301576119708311e-02 -5.2901648988677452e-01 0.0000000000000000e+00  3.4298927105840288e-02 -4.5150777552075072e-01 0.0000000000000000e+00  2.0805959267280693e-02 -5.2600716414669191e-01 0.0000000000000000e+00  3.4023561009786880e-02 -4.4053527004927495e-01 0.0000000000000000e+00  2.1700184862023054e-02 -5.0841736037136032e-01 0.0000000000000000e+00  3.3458220482281746e-02 -4.3602520100355424e-01 0.0000000000000000e+00 