<?xml version="1.0"?>
<VTKFile type="UnstructuredGrid"  version="0.1"  >
<UnstructuredGrid>
<Piece  NumberOfPoints="801" NumberOfCells="800">
<Points>
<DataArray  type="Float64"  NumberOfComponents="3"  format="ascii">-5 0 0  -4.9875 0 0  -4.975 0 0  -4.9625 0 0  -4.95 0 0  -4.9375 0 0  -4.925 0 0  -4.9125 0 0  -4.9 0 0  -4.8875 0 0  -4.875 0 0  -4.8625 0 0  -4.85 0 0  -4.8375 0 0  -4.825 0 0  -4.8125 0 0  -4.8 0 0  -4.7875 0 0  -4.775 0 0  -4.7625 0 0  -4.75 0 0  -4.7375 0 0  -4.725 0 0  -4.7125 0 0  -4.7 0 0  -4.6875 0 0  -4.675 0 0  -4.6625 0 0  -4.65 0 0  -4.6375 0 0  -4.625 0 0  -4.6125 0 0  -4.6 0 0  -4.5875 0 0  -4.575 0 0  -4.5625 0 0  -4.55 0 0  -4.5375 0 0  -4.525 0 0  -4.5125 0 0  -4.5 0 0  -4.4875 0 0  -4.475 0 0  -4.4625 0 0  -4.45 0 0  -4.4375 0 0  -4.425 0 0  -4.4125 0 0  -4.4 0 0  -4.3875 0 0  -4.375 0 0  -4.3625 0 0  -4.35 0 0  -4.3375 0 0  -4.325 0 0  -4.3125 0 0  -4.3 0 0  -4.2875 0 0  -4.275 0 0  -4.2625 0 0  -4.25 0 0  -4.2375 0 0  -4.225 0 0  -4.2125 0 0  -4.2 0 0  -4.1875 0 0  -4.175 0 0  -4.1625 0 0  -4.15 0 0  -4.1375 0 0  -4.125 0 0  -4.1125 0 0  -4.1 0 0  -4.0875 0 0  -4.075 0 0  -4.0625 0 0  -4.05 0 0  -4.0375 0 0  -4.025 0 0  -4.0125 0 0  -4 0 0  -3.9875 0 0  -3.975 0 0  -3.9625 0 0  -3.95 0 0  -3.9375 0 0  -3.925 0 0  -3.9125 0 0  -3.9 0 0  -3.8875 0 0  -3.875 0 0  -3.8625 0 0  -3.85 0 0  -3.8375 0 0  -3.825 0 0  -3.8125 0 0  -3.8 0 0  -3.7875 0 0  -3.775 0 0  -3.7625 0 0  -3.75 0 0  -3.7375 0 0  -3.725 0 0  -3.7125 0 0  -3.7 0 0  -3.6875 0 0  -3.675 0 0  -3.6625 0 0  -3.65 0 0  -3.6375 0 0  -3.625 0 0  -3.6125 0 0  -3.6 0 0  -3.5875 0 0  -3.575 0 0  -3.5625 0 0  -3.55 0 0  -3.5375 0 0  -3.525 0 0  -3.5125 0 0  -3.5 0 0  -3.4875 0 0  -3.475 0 0  -3.4625 0 0  -3.45 0 0  -3.4375 0 0  -3.425 0 0  -3.4125 0 0  -3.4 0 0  -3.3875 0 0  -3.375 0 0  -3.3625 0 0  -3.35 0 0  -3.3375 0 0  -3.325 0 0  -3.3125 0 0  -3.3 0 0  -3.2875 0 0  -3.275 0 0  -3.2625 0 0  -3.25 0 0  -3.2375 0 0  -3.225 0 0  -3.2125 0 0  -3.2 0 0  -3.1875 0 0  -3.175 0 0  -3.1625 0 0  -3.15 0 0  -3.1375 0 0  -3.125 0 0  -3.1125 0 0  -3.1 0 0  -3.0875 0 0  -3.075 0 0  -3.0625 0 0  -3.05 0 0  -3.0375 0 0  -3.025 0 0  -3.0125 0 0  -3 0 0  -2.9875 0 0  -2.975 0 0  -2.9625 0 0  -2.95 0 0  -2.9375 0 0  -2.925 0 0  -2.9125 0 0  -2.9 0 0  -2.8875 0 0  -2.875 0 0  -2.8625 0 0  -2.85 0 0  -2.8375 0 0  -2.825 0 0  -2.8125 0 0  -2.8 0 0  -2.7875 0 0  -2.775 0 0  -2.7625 0 0  -2.75 0 0  -2.7375 0 0  -2.725 0 0  -2.7125 0 0  -2.7 0 0  -2.6875 0 0  -2.675 0 0  -2.6625 0 0  -2.65 0 0  -2.6375 0 0  -2.625 0 0  -2.6125 0 0  -2.6 0 0  -2.5875 0 0  -2.575 0 0  -2.5625 0 0  -2.55 0 0  -2.5375 0 0  -2.525 0 0  -2.5125 0 0  -2.5 0 0  -2.4875 0 0  -2.475 0 0  -2.4625 0 0  -2.45 0 0  -2.4375 0 0  -2.425 0 0  -2.4125 0 0  -2.4 0 0  -2.3875 0 0  -2.375 0 0  -2.3625 0 0  -2.35 0 0  -2.3375 0 0  -2.325 0 0  -2.3125 0 0  -2.3 0 0  -2.2875 0 0  -2.275 0 0  -2.2625 0 0  -2.25 0 0  -2.2375 0 0  -2.225 0 0  -2.2125 0 0  -2.2 0 0  -2.1875 0 0  -2.175 0 0  -2.1625 0 0  -2.15 0 0  -2.1375 0 0  -2.125 0 0  -2.1125 0 0  -2.1 0 0  -2.0875 0 0  -2.075 0 0  -2.0625 0 0  -2.05 0 0  -2.0375 0 0  -2.025 0 0  -2.0125 0 0  -2 0 0  -1.9875 0 0  -1.975 0 0  -1.9625 0 0  -1.95 0 0  -1.9375 0 0  -1.925 0 0  -1.9125 0 0  -1.9 0 0  -1.8875 0 0  -1.875 0 0  -1.8625 0 0  -1.85 0 0  -1.8375 0 0  -1.825 0 0  -1.8125 0 0  -1.8 0 0  -1.7875 0 0  -1.775 0 0  -1.7625 0 0  -1.75 0 0  -1.7375 0 0  -1.725 0 0  -1.7125 0 0  -1.7 0 0  -1.6875 0 0  -1.675 0 0  -1.6625 0 0  -1.65 0 0  -1.6375 0 0  -1.625 0 0  -1.6125 0 0  -1.6 0 0  -1.5875 0 0  -1.575 0 0  -1.5625 0 0  -1.55 0 0  -1.5375 0 0  -1.525 0 0  -1.5125 0 0  -1.5 0 0  -1.4875 0 0  -1.475 0 0  -1.4625 0 0  -1.45 0 0  -1.4375 0 0  -1.425 0 0  -1.4125 0 0  -1.4 0 0  -1.3875 0 0  -1.375 0 0  -1.3625 0 0  -1.35 0 0  -1.3375 0 0  -1.325 0 0  -1.3125 0 0  -1.3 0 0  -1.2875 0 0  -1.275 0 0  -1.2625 0 0  -1.25 0 0  -1.2375 0 0  -1.225 0 0  -1.2125 0 0  -1.2 0 0  -1.1875 0 0  -1.175 0 0  -1.1625 0 0  -1.15 0 0  -1.1375 0 0  -1.125 0 0  -1.1125 0 0  -1.1 0 0  -1.0875 0 0  -1.075 0 0  -1.0625 0 0  -1.05 0 0  -1.0375 0 0  -1.025 0 0  -1.0125 0 0  -1 0 0  -0.9874999999999998 0 0  -0.9749999999999996 0 0  -0.9625000000000004 0 0  -0.9500000000000002 0 0  -0.9375 0 0  -0.9249999999999998 0 0  -0.9124999999999996 0 0  -0.9000000000000004 0 0  -0.8875000000000002 0 0  -0.875 0 0  -0.8624999999999998 0 0  -0.8499999999999996 0 0  -0.8375000000000004 0 0  -0.8250000000000002 0 0  -0.8125 0 0  -0.7999999999999998 0 0  -0.7874999999999996 0 0  -0.7750000000000004 0 0  -0.7625000000000002 0 0  -0.75 0 0  -0.7374999999999998 0 0  -0.7249999999999996 0 0  -0.7125000000000004 0 0  -0.7000000000000002 0 0  -0.6875 0 0  -0.6749999999999998 0 0  -0.6624999999999996 0 0  -0.6500000000000004 0 0  -0.6375000000000002 0 0  -0.625 0 0  -0.6124999999999998 0 0  -0.5999999999999996 0 0  -0.5875000000000004 0 0  -0.5750000000000002 0 0  -0.5625 0 0  -0.5499999999999998 0 0  -0.5374999999999996 0 0  -0.5250000000000004 0 0  -0.5125000000000002 0 0  -0.5 0 0  -0.4874999999999998 0 0  -0.4749999999999996 0 0  -0.4625000000000004 0 0  -0.4500000000000002 0 0  -0.4375 0 0  -0.4249999999999998 0 0  -0.4124999999999996 0 0  -0.4000000000000004 0 0  -0.3875000000000002 0 0  -0.375 0 0  -0.3624999999999998 0 0  -0.3499999999999996 0 0  -0.3375000000000004 0 0  -0.3250000000000002 0 0  -0.3125 0 0  -0.2999999999999998 0 0  -0.2874999999999996 0 0  -0.2750000000000004 0 0  -0.2625000000000002 0 0  -0.25 0 0  -0.2374999999999998 0 0  -0.2249999999999996 0 0  -0.2125000000000004 0 0  -0.2000000000000002 0 0  -0.1875 0 0  -0.1749999999999998 0 0  -0.1624999999999996 0 0  -0.1500000000000004 0 0  -0.1375000000000002 0 0  -0.125 0 0  -0.1124999999999998 0 0  -0.09999999999999964 0 0  -0.08750000000000036 0 0  -0.07500000000000018 0 0  -0.0625 0 0  -0.04999999999999982 0 0  -0.03749999999999964 0 0  -0.02500000000000036 0 0  -0.01250000000000018 0 0  0 0 0  0.01250000000000018 0 0  0.02500000000000036 0 0  0.03749999999999964 0 0  0.04999999999999982 0 0  0.0625 0 0  0.07500000000000018 0 0  0.08750000000000036 0 0  0.09999999999999964 0 0  0.1124999999999998 0 0  0.125 0 0  0.1375000000000002 0 0  0.1500000000000004 0 0  0.1624999999999996 0 0  0.1749999999999998 0 0  0.1875 0 0  0.2000000000000002 0 0  0.2125000000000004 0 0  0.2249999999999996 0 0  0.2374999999999998 0 0  0.25 0 0  0.2625000000000002 0 0  0.2750000000000004 0 0  0.2874999999999996 0 0  0.2999999999999998 0 0  0.3125 0 0  0.3250000000000002 0 0  0.3375000000000004 0 0  0.3499999999999996 0 0  0.3624999999999998 0 0  0.375 0 0  0.3875000000000002 0 0  0.4000000000000004 0 0  0.4124999999999996 0 0  0.4249999999999998 0 0  0.4375 0 0  0.4500000000000002 0 0  0.4625000000000004 0 0  0.4749999999999996 0 0  0.4874999999999998 0 0  0.5 0 0  0.5125000000000002 0 0  0.5250000000000004 0 0  0.5374999999999996 0 0  0.5499999999999998 0 0  0.5625 0 0  0.5750000000000002 0 0  0.5875000000000004 0 0  0.5999999999999996 0 0  0.6124999999999998 0 0  0.625 0 0  0.6375000000000002 0 0  0.6500000000000004 0 0  0.6624999999999996 0 0  0.6749999999999998 0 0  0.6875 0 0  0.7000000000000002 0 0  0.7125000000000004 0 0  0.7249999999999996 0 0  0.7374999999999998 0 0  0.75 0 0  0.7625000000000002 0 0  0.7750000000000004 0 0  0.7874999999999996 0 0  0.7999999999999998 0 0  0.8125 0 0  0.8250000000000002 0 0  0.8375000000000004 0 0  0.8499999999999996 0 0  0.8624999999999998 0 0  0.875 0 0  0.8875000000000002 0 0  0.9000000000000004 0 0  0.9124999999999996 0 0  0.9249999999999998 0 0  0.9375 0 0  0.9500000000000002 0 0  0.9625000000000004 0 0  0.9749999999999996 0 0  0.9874999999999998 0 0  1 0 0  1.0125 0 0  1.025 0 0  1.0375 0 0  1.05 0 0  1.0625 0 0  1.075 0 0  1.0875 0 0  1.1 0 0  1.1125 0 0  1.125 0 0  1.1375 0 0  1.15 0 0  1.1625 0 0  1.175 0 0  1.1875 0 0  1.2 0 0  1.2125 0 0  1.225 0 0  1.2375 0 0  1.25 0 0  1.2625 0 0  1.275 0 0  1.2875 0 0  1.3 0 0  1.3125 0 0  1.325 0 0  1.3375 0 0  1.35 0 0  1.3625 0 0  1.375 0 0  1.3875 0 0  1.4 0 0  1.4125 0 0  1.425 0 0  1.4375 0 0  1.45 0 0  1.4625 0 0  1.475 0 0  1.4875 0 0  1.5 0 0  1.5125 0 0  1.525 0 0  1.5375 0 0  1.55 0 0  1.5625 0 0  1.575 0 0  1.5875 0 0  1.6 0 0  1.6125 0 0  1.625 0 0  1.6375 0 0  1.65 0 0  1.6625 0 0  1.675 0 0  1.6875 0 0  1.7 0 0  1.7125 0 0  1.725 0 0  1.7375 0 0  1.75 0 0  1.7625 0 0  1.775 0 0  1.7875 0 0  1.8 0 0  1.8125 0 0  1.825 0 0  1.8375 0 0  1.85 0 0  1.8625 0 0  1.875 0 0  1.8875 0 0  1.9 0 0  1.9125 0 0  1.925 0 0  1.9375 0 0  1.95 0 0  1.9625 0 0  1.975 0 0  1.9875 0 0  2 0 0  2.0125 0 0  2.025 0 0  2.0375 0 0  2.05 0 0  2.0625 0 0  2.075 0 0  2.0875 0 0  2.1 0 0  2.1125 0 0  2.125 0 0  2.1375 0 0  2.15 0 0  2.1625 0 0  2.175 0 0  2.1875 0 0  2.2 0 0  2.2125 0 0  2.225 0 0  2.2375 0 0  2.25 0 0  2.2625 0 0  2.275 0 0  2.2875 0 0  2.3 0 0  2.3125 0 0  2.325 0 0  2.3375 0 0  2.35 0 0  2.3625 0 0  2.375 0 0  2.3875 0 0  2.4 0 0  2.4125 0 0  2.425 0 0  2.4375 0 0  2.45 0 0  2.4625 0 0  2.475 0 0  2.4875 0 0  2.5 0 0  2.5125 0 0  2.525 0 0  2.5375 0 0  2.55 0 0  2.5625 0 0  2.575 0 0  2.5875 0 0  2.6 0 0  2.6125 0 0  2.625 0 0  2.6375 0 0  2.65 0 0  2.6625 0 0  2.675 0 0  2.6875 0 0  2.7 0 0  2.7125 0 0  2.725 0 0  2.7375 0 0  2.75 0 0  2.7625 0 0  2.775 0 0  2.7875 0 0  2.8 0 0  2.8125 0 0  2.825 0 0  2.8375 0 0  2.85 0 0  2.8625 0 0  2.875 0 0  2.8875 0 0  2.9 0 0  2.9125 0 0  2.925 0 0  2.9375 0 0  2.95 0 0  2.9625 0 0  2.975 0 0  2.9875 0 0  3 0 0  3.012499999999999 0 0  3.025 0 0  3.0375 0 0  3.050000000000001 0 0  3.0625 0 0  3.074999999999999 0 0  3.0875 0 0  3.1 0 0  3.112500000000001 0 0  3.125 0 0  3.137499999999999 0 0  3.15 0 0  3.1625 0 0  3.175000000000001 0 0  3.1875 0 0  3.199999999999999 0 0  3.2125 0 0  3.225 0 0  3.237500000000001 0 0  3.25 0 0  3.262499999999999 0 0  3.275 0 0  3.2875 0 0  3.300000000000001 0 0  3.3125 0 0  3.324999999999999 0 0  3.3375 0 0  3.35 0 0  3.362500000000001 0 0  3.375 0 0  3.387499999999999 0 0  3.4 0 0  3.4125 0 0  3.425000000000001 0 0  3.4375 0 0  3.449999999999999 0 0  3.4625 0 0  3.475 0 0  3.4875
[...]
<PointData  Vectors="(h, u)"> 
<DataArray  type="Float64"  Name="(h, u)"  NumberOfComponents="3" format="ascii">1.1699545599778104e-01 0.0000000000000000e+00 0.0000000000000000e+00  1.1925462309598410e-01 4.4261831199512471e-03 0.0000000000000000e+00  1.1698706129967015e-01 8.5831086133750026e-03 0.0000000000000000e+00  1.1926375177069419e-01 1.3257639924286503e-02 0.0000000000000000e+00  1.1695995718654854e-01 1.7207511106363756e-02 0.0000000000000000e+00  1.1928594951282476e-01 2.2017317646279063e-02 0.0000000000000000e+00  1.1690904774329144e-01 2.5932208033631315e-02 0.0000000000000000e+00  1.1932750563257383e-01 3.0635780646883569e-02 0.0000000000000000e+00  1.1682822131327666e-01 3.4833611468128391e-02 0.0000000000000000e+00  1.1939403937201283e-01 3.9036471607044466e-02 0.0000000000000000e+00  1.1671392718758239e-01 4.3981145285878667e-02 0.0000000000000000e+00  1.1948659988593612e-01 4.7167940798700098e-02 0.0000000000000000e+00  1.1656899568431314e-01 5.3399322957244443e-02 0.0000000000000000e+00  1.1959823184385711e-01 5.5041711068117470e-02 0.0000000000000000e+00  1.1640471062749687e-01 6.3037509823646920e-02 0.0000000000000000e+00  1.1971308459845251e-01 6.2751914905560355e-02 0.0000000000000000e+00  1.1623962306480792e-01 7.2766387177905692e-02 0.0000000000000000e+00  1.1980955247645157e-01 7.0459548214110032e-02 0.0000000000000000e+00  1.1609510614466097e-01 8.2407363355923441e-02 0.0000000000000000e+00  1.1986657724302276e-01 7.8346076479897428e-02 0.0000000000000000e+00  1.1598928555445659e-01 9.1784623104785093e-02 0.0000000000000000e+00  1.1986985764447737e-01 8.6561891434308397e-02 0.0000000000000000e+00  1.1593210661191475e-01 1.0077556130625742e-01 0.0000000000000000e+00  1.1981469341175076e-01 9.5195879446607012e-02 0.0000000000000000e+00  1.1592420894715398e-01 1.0933277138789860e-01 0.0000000000000000e+00  1.1970457596472989e-01 1.0427442475770014e-01 0.0000000000000000e+00  1.1596018871890833e-01 1.1746809440006692e-01 0.0000000000000000e+00  1.1954702605910617e-01 1.1378113996703584e-01 0.0000000000000000e+00  1.1603368088838432e-01 1.2521776425391401e-01 0.0000000000000000e+00  1.1934895615136890e-01 1.2368353361812805e-01 0.0000000000000000e+00  1.1614063910218954e-01 1.3261852041416874e-01 0.0000000000000000e+00  1.1911357307921248e-01 1.3395318799796746e-01 0.0000000000000000e+00  1.1627981238049108e-01 1.3970316365101051e-01 0.0000000000000000e+00  1.1883994008403738e-01 1.4457014360910811e-01 0.0000000000000000e+00  1.1645256067171604e-01 1.4649798363009617e-01 0.0000000000000000e+00  1.1852419411891051e-01 1.5551841158059129e-01 0.0000000000000000e+00  1.1666379076750974e-01 1.5300881064143851e-01 0.0000000000000000e+00  1.1815955877685558e-01 1.6679556815492491e-01 0.0000000000000000e+00  1.1692313114671071e-01 1.5920578689358281e-01 0.0000000000000000e+00  1.1773423854203974e-01 1.7844252916096920e-01 0.0000000000000000e+00  1.1724469448964764e-01 1.6502196803835226e-01 0.0000000000000000e+00  1.1723113836970991e-01 1.9055675582290463e-01 0.0000000000000000e+00  1.1764467846363620e-01 1.7037077097482009e-01 0.0000000000000000e+00  1.1663412124197585e-01 2.0324570603501385e-01 0.0000000000000000e+00  1.1813541247525905e-01 1.7519254183214808e-01 0.0000000000000000e+00  1.1593932463432370e-01 2.1653236093519448e-01 0.0000000000000000e+00  1.1871444215029710e-01 1.7954177759089732e-01 0.0000000000000000e+00  1.1516478905226452e-01 2.3027040447649644e-01 0.0000000000000000e+00  1.1935271901417742e-01 1.8367886102118003e-01 0.0000000000000000e+00  1.1435415193355414e-01 2.4410458660856474e-01 0.0000000000000000e+00  1.1999191181112348e-01 1.8807929590900707e-01 0.0000000000000000e+00  1.1357417541456429e-01 2.5748076280913806e-01 0.0000000000000000e+00  1.2055609528839209e-01 1.9332157658072116e-01 0.0000000000000000e+00  1.1290389207431435e-01 2.6973390980113759e-01 0.0000000000000000e+00  1.2097087147658826e-01 1.9992766453053379e-01 0.0000000000000000e+00  1.1241316133966077e-01 2.8028177747850580e-01 0.0000000000000000e+00  1.2118026101503214e-01 2.0824513196355690e-01 0.0000000000000000e+00  1.1213964288146147e-01 2.8884227101900178e-01 0.0000000000000000e+00  1.2116004558258930e-01 2.1836667225966414e-01 0.0000000000000000e+00  1.1208081954922436e-01 2.9551405398493907e-01 0.0000000000000000e+00  1.2092719503223831e-01 2.3006817651162273e-01 0.0000000000000000e+00  1.1220324740318506e-01 3.0068856697374430e-01 0.0000000000000000e+00  1.2053567356615642e-01 2.4284555459049578e-01 0.0000000000000000e+00  1.1245370541141538e-01 3.0493033604234138e-01 0.0000000000000000e+00  1.2005360106554665e-01 2.5610431629900426e-01 0.0000000000000000e+00  1.1276702648518090e-01 3.0888501237132648e-01 0.0000000000000000e+00  1.1953971529314135e-01 2.6935079548635243e-01 0.0000000000000000e+00  1.1308229786141309e-01 3.1312305351771846e-01 0.0000000000000000e+00  1.1903961154545242e-01 2.8220863419594144e-01 0.0000000000000000e+00  1.1336305332528525e-01 3.1796085080324826e-01 0.0000000000000000e+00  1.1859038667998681e-01 2.9437142307900843e-01 0.0000000000000000e+00  1.1359561433204098e-01 3.2348663784584170e-01 0.0000000000000000e+00  1.1821206889458678e-01 3.0568689723068204e-01 0.0000000000000000e+00  1.1376824454218401e-01 3.2976037337748826e-01 0.0000000000000000e+00  1.1790126502638232e-01 3.1622081611792557e-01 0.0000000000000000e+00  1.1387052928926097e-01 3.3682597606260350e-01 0.0000000000000000e+00  1.1764970872452145e-01 3.2608646548255904e-01 0.0000000000000000e+00  1.1391524972669481e-01 3.4451503434633490e-01 0.0000000000000000e+00  1.1745651909842418e-01 3.3532944317148816e-01 0.0000000000000000e+00  1.1393303898917374e-01 3.5249764172185621e-01 0.0000000000000000e+00  1.1730357231384289e-01 3.4415251022678961e-01 0.0000000000000000e+00  1.1394263261088657e-01 3.6055641978217701e-01 0.0000000000000000e+00  1.1714619669738020e-01 3.5299914564096985e-01 0.0000000000000000e+00  1.1395977872997122e-01 3.6850696098115887e-01 0.0000000000000000e+00  1.1695667339643757e-01 3.6215116855951740e-01 0.0000000000000000e+00  1.1402182704392237e-01 3.7597521130344369e-01 0.0000000000000000e+00  1.1674018258821955e-01 3.7158432842223005e-01 0.0000000000000000e+00  1.1414767913559126e-01 3.8276739975846952e-01 0.0000000000000000e+00  1.1649285495772659e-01 3.8135907078892656e-01 0.0000000000000000e+00  1.1430134682349657e-01 3.8920461110155574e-01 0.0000000000000000e+00  1.1621492195208859e-01 3.9149713546466774e-01 0.0000000000000000e+00  1.1445067466460139e-01 3.9558015541236263e-01 0.0000000000000000e+00  1.1596241603396930e-01 4.0149721707497465e-01 0.0000000000000000e+00  1.1458864191312618e-01 4.0196105367819301e-01 0.0000000000000000e+00  1.1578765186672800e-01 4.1087710599973504e-01 0.0000000000000000e+00  1.1466442915126665e-01 4.0882346888325938e-01 0.0000000000000000e+00  1.1568452805375165e-01 4.1967466350786253e-01 0.0000000000000000e+00  1.1462908131932061e-01 4.1663561106636776e-01 0.0000000000000000e+00  1.1567515486214328e-01 4.2765130396661721e-01 0.0000000000000000e+00  1.1451728481500674e-01 4.2510859244764587e-01 0.0000000000000000e+00  1.1578882758789924e-01 4.3449392998139424e-01 0.0000000000000000e+00  1.1434350264891728e-01 4.3415556195378141e-01 0.0000000000000000e+00  1.1595684136676260e-01 4.4079247632416574e-01 0.0000000000000000e+00  1.1409657911540495e-01 4.4393285371188856e-01 0.0000000000000000e+00  1.1613639702027888e-01 4.4690116053752987e-01 0.0000000000000000e+00  1.1386722244472762e-01 4.5364886643783026e-01 0.0000000000000000e+00  1.1633603995763542e-01 4.5270855093857382e-01 0.0000000000000000e+00  1.1370140413695076e-01 4.6290234043037104e-01 0.0000000000000000e+00  1.1646347781484839e-01 4.5904736218722575e-01 0.0000000000000000e+00  1.1356789801542712e-01 4.7197404338019439e-01 0.0000000000000000e+00  1.1649758020837590e-01 4.6611062541253562e-01 0.0000000000000000e+00  1.1354484159898892e-01 4.8010997757712998e-01 0.0000000000000000e+00  1.1649974088963561e-01 4.7335667305465751e-01 0.0000000000000000e+00  1.1360996683459026e-01 4.8746122594623181e-01 0.0000000000000000e+00  1.1640380923200654e-01 4.8145693218757635e-01 0.0000000000000000e+00  1.1367825866460321e-01 4.9473862697961113e-01 0.0000000000000000e+00  1.1627375380164159e-01 4.8991009653037626e-01 0.0000000000000000e+00  1.1381998877217317e-01 5.0120369826785516e-01 0.0000000000000000e+00  1.1618533350726980e-01 4.9813582295695469e-01 0.0000000000000000e+00  1.1393291420820820e-01 5.0768097409767243e-01 0.0000000000000000e+00  1.1605819261058456e-01 5.0702754188699717e-01 0.0000000000000000e+00  1.1398314048150718e-01 5.1432584763719957e-01 0.0000000000000000e+00  1.1602611900340867e-01 5.1553270205455037e-01 0.0000000000000000e+00  1.1404954207476356e-01 5.2021045921840769e-01 0.0000000000000000e+00  1.1605452190660583e-01 5.2419902903316662e-01 0.0000000000000000e+00  1.1397289934689560e-01 5.2655066048081223e-01 0.0000000000000000e+00  1.1610757121424786e-01 5.3363224594923375e-01 0.0000000000000000e+00  1.1386675668925937e-01 5.3199291905030643e-01 0.0000000000000000e+00  1.1633526144927545e-01 5.4277087504254307e-01 0.0000000000000000e+00  1.1367333438902459e-01 5.3671885262455743e-01 0.0000000000000000e+00  1.1656951491273478e-01 5.5352566827401906e-01 0.0000000000000000e+00  1.1331282196911290e-01 5.4108422067210682e-01 0.0000000000000000e+00  1.1698388076951168e-01 5.6466347934141814e-01 0.0000000000000000e+00  1.1293634860235970e-01 5.4330770540778739e-01 0.0000000000000000e+00  1.1751618692347153e-01 5.7710703262706564e-01 0.0000000000000000e+00  1.1230262653787509e-01 5.4527767949111161e-01 0.0000000000000000e+00  1.1814171959058659e-01 5.9134520353630837e-01 0.0000000000000000e+00  1.1162887825692226e-01 5.4473575915782135e-01 0.0000000000000000e+00  1.1902624131117327e-01 6.0599469955784979e-01 0.0000000000000000e+00  1.1073849200470691e-01 5.4322428201524320e-01 0.0000000000000000e+00  1.1991114183748350e-01 6.2335547860842744e-01 0.0000000000000000e+00  1.0971573130487956e-01 5.4011286077990972e-01 0.0000000000000000e+00  1.2109617252990496e-01 6.4035571791791979e-01 0.0000000000000000e+00  1.0863052899698179e-01 5.3517624862719637e-01 0.0000000000000000e+00  1.2221854739632099e-01 6.5967984561033399e-01 0.0000000000000000e+00  1.0735336184617017e-01 5.3043531652046949e-01 0.0000000000000000e+00  1.2352834521719053e-01 6.7807790469279394e-01 0.0000000000000000e+00  1.0623402994619335e-01 5.2375997620943415e-01 0.0000000000000000e+00  1.2471951745299409e-01 6.9709851679193502e-01 0.0000000000000000e+00  1.0495905732220877e-01 5.1960950018287066e-01 0.0000000000000000e+00  1.2584969702100871e-01 7.1472115351787902e-01 0.0000000000000000e+00  1.0407825133372597e-01 5.1451047002996186e-01 0.0000000000000000e+00  1.2680379928319849e-01 7.3047921243403036e-01 0.0000000000000000e+00  1.0316999554416878e-01 5.1421065641871366e-01 0.0000000000000000e+00  1.2741403862800549e-01 7.4441996893410489e-01 0.0000000000000000e+00  1.0284514586250865e-01 5.1444270995461883e-01 0.0000000000000000e+00  1.2780536059108580e-01 7.5436151242067218e-01 0.0000000000000000e+00  1.0259127332441859e-01 5.2110906153532510e-01 0.0000000000000000e+00  1.2765670679723606e-01 7.6258894570127211e-01 0.0000000000000000e+00  1.0300566409170223e-01 5.2880499720750196e-01 0.0000000000000000e+00  1.2734569248418862e-01 7.6586019306282804e-01 0.0000000000000000e+00  1.0343830215017875e-01 5.4315183882783924e-01 0.0000000000000000e+00  1.2648231165501667e-01 7.6850651742614107e-01 0.0000000000000000e+00  1.0450169598078210e-01 5.5688265307539975e-01 0.0000000000000000e+00  1.2567129023530552e-01 7.6660971147915580e-01 0.0000000000000000e+00  1.0535714082375550e-01 5.7594005839264939e-01 0.0000000000000000e+00  1.2448390181370196e-01 7.6600631987321277e-01 0.0000000000000000e+00  1.0669531128613448e-01 5.9138625968893499e-01 0.0000000000000000e+00  1.2353052327376753e-01 7.6329110548427626e-01 0.0000000000000000e+00  1.0744133632809326e-01 6.1113884128410967e-01 0.0000000000000000e+00  1.2250718582292731e-01 7.6318004460228861e-01 0.0000000000000000e+00  1.0863186008646943e-01 6.2363168625218113e-01 0.0000000000000000e+00  1.2178268663706843e-01 7.6365871873693236e-01 0.0000000000000000e+00  1.0894536804034204e-01 6.4024499145664204e-01 0.0000000000000000e+00  1.2134586785029168e-01 7.6548784484174370e-01 0.0000000000000000e+00  1.0975260838152362e-01 6.4802088713632888e-01 0.0000000000000000e+00  1.2084090246176449e-01 7.7164809780365928e-01 0.0000000000000000e+00  1.0963977377353130e-01 6.6081413969708036e-01 0.0000000000000000e+00  1.2101499202431269e-01 7.7442188554172542e-01 0.0000000000000000e+00  1.1001159219019781e-01 6.6677757780847513e-01 0.0000000000000000e+00  1.2047715243010650e-01 7.8519339483517048e-01 0.0000000000000000e+00  1.0998490949649024e-01 6.7559301753080170e-01 0.0000000000000000e+00  1.2101522489123244e-01 7.8633062513001073e-01 0.0000000000000000e+00  1.0995623648674951e-01 6.8478288927168329e-01 0.0000000000000000e+00  1.2042611960430284e-01 7.9692100486280526e-01 0.0000000000000000e+00  1.1057246414683622e-01 6.8911710492890432e-01 0.0000000000000000e+00  1.2068475367798832e-01 7.9857890685447497e-01 0.0000000000000000e+00  1.1010697411491219e-01 7.0484463262483987e-01 0.0000000000000000e+00  1.2053060667544822e-01 8.0283408958271740e-01 0.0000000000000000e+00  1.1109265030056324e-01 7.0793287018872308e-01 0.0000000000000000e+00  1.1976482679062582e-01 8.1206303771156507e-01 0.0000000000000000e+00  1.1079133244172062e-01 7.2330468099087086e-01 0.0000000000000000e+00  1.2048158245435982e-01 8.0787484496893014e-01 0.0000000000000000e+00  1.1088274995649300e-01 7.3462182092859807e-01 0.0000000000000000e+00  1.1938437590092355e-01 8.2079475009618574e-01 0.0000000000000000e+00  1.1181296812841023e-01 7.3725735825428096e-01 0.0000000000000000e+00  1.1963007354860557e-01 8.2228968553655279e-01 0.0000000000000000e+00  1.1065150813433544e-01 7.5851323695124451e-01 0.0000000000000000e+00  1.2031274082405788e-01 8.2059679543713704e-01 0.0000000000000000e+00  1.1159064631276508e-01 7.5959544991258798e-01 0.0000000000000000e+00  1.1880202905550691e-01 8.3940832716043079e-01 0.0000000000000000e+00  1.1199534905643913e-01 7.6516875757193459e-01 0.0000000000000000e+00  1.2001549222192885e-01 8.3349790565383730e-01 0.0000000000000000e+00  1.1034153278217786e-01 7.8976144278050686e-01 0.0000000000000000e+00  1.2043889437912500e-01 8.3489761902277482e-01 0.0000000000000000e+00  1.1202676919462461e-01 7.8342583121236820e-01 0.0000000000000000e+00  1.1827381032483743e-01 8.6003310135066291e-01 0.0000000000000000e+00  1.1260238936089358e-01 7.8712022511264068e-01 0.0000000000000000e+00  1.1977370178654488e-01 8.5180193374080082e-01 0.0000000000000000e+00  1.1023590528526105e-01 8.1773281704937373e-01 0.0000000000000000e+00  1.2079129485827102e-01 8.4834635698032990e-01 0.0000000000000000e+00  1.1209801503200012e-01 8.0883247193693231e-01 0.0000000000000000e+00  1.1759536954186424e-01 8.8398251446126008e-01 0.0000000000000000e+00  1.1474935930287108e-01 7.9211227939422879e-01 0.0000000000000000e+00  1.1738532070127425e-01 8.9259058880516406e-01 0.0000000000000000e+00  1.1198484937034009e-01 8.2529461338892451e-01 0.0000000000000000e+00  1.2073818440721742e-01 8.6858395726652582e-01 0.0000000000000000e+00  1.1021764951414718e-01 8.4916949704831923e-01 0.0000000000000000e+00  1.1907217693465283e-01 8.9050103633895472e-01 0.0000000000000000e+00  1.1476450925633994e-01 8.1493989849963699e-01 0.0000000000000000e+00  1.1412071939087427e-01 9.4222842206025115e-01 0.0000000000000000e+00  1.1805364373135065e-01 7.9258494062974161e-01 0.0000000000000000e+00  1.1428853471183753e-01 9.4672392561627028e-01 0.0000000000000000e+00  1.1503348186891643e-01 8.2912273682252757e-01 0.0000000000000000e+00  1.1970499477618268e-01 9.0283903313613101e-01 0.0000000000000000e+00  1.0969028419975295e-01 8.8712200678300890e-01 0.0000000000000000e+00  1.2310807412863645e-01 8.7718533403756205e-01 0.0000000000000000e+00  1.0911674890899334e-01 9.0125979869876871e-01 0.0000000000000000e+00  1.2049263677349847e-01 9.0691597916473055e-01 0.0000000000000000e+00  1.1400836779461652e-01 8.6494666866034453e-01 0.0000000000000000e+00  1.1447630248397590e-01 9.6780324332013234e-01 0.0000000000000000e+00  1.1926172700483939e-01 8.2480550678612208e-01 0.0000000000000000e+00  1.0993356781832818e-01 1.0151627589595067e+00 0.0000000000000000e+00  1.2165514721940496e-01 8.1075738359315208e-01 0.0000000000000000e+00  1.0882562027132452e-01 1.0310476532188977e+00 0.0000000000000000e+00  1.2152957316273379e-01 8.2014371710754164e-01 0.0000000000000000e+00  1.1003850378890472e-01 1.0259309151968490e+00 0.0000000000000000e+00  1.2024226602402485e-01 8.4049286522025524e-01 0.0000000000000000e+00  1.1198043007377689e-01 1.0146577567522970e+00 0.0000000000000000e+00  1.1878663712180287e-01 8.6233041758132589e-01 0.0000000000000000e+00  1.1372626309145230e-01 1.0054990354471283e+00 0.0000000000000000e+00  1.1763220122126893e-01 8.8090366871627701e-01 0.0000000000000000e+00  1.1494397215704497e-01 1.0010716953830898e+00 0.0000000000000000e+00  1.1691488162722369e-01 8.9479169325550978e-01 0.0000000000000000e+00  1.1557881990521224e-01 1.0016234673848812e+00 0.0000000000000000e+00  1.1667240656334972e-01 9.0394192043103538e-01 0.0000000000000000e+00  1.1564729291393286e-01 1.0070440384551749e+00 0.0000000000000000e+00  1.1693492591896965e-01 9.0866466483148123e-01 0.0000000000000000e+00  1.1517814844914524e-01 1.0172672326195367e+00 0.0000000000000000e+00  1.1768584803872784e-01 9.0959456852636822e-01 0.0000000000000000e+00  1.1432691286179361e-01 1.0310369306102827e+00 0.0000000000000000e+00  1.1879805143904222e-01 9.0797783516796726e-01 0.0000000000000000e+00  1.1348564783572877e-01 1.0448361396711983e+00 0.0000000000000000e+00  1.1999723887889449e-01 9.0600013949630576e-01 0.0000000000000000e+00  1.1327715023221764e-01 1.0529905470116705e+00 0.0000000000000000e+00  1.2115237277577330e-01 9.0434122663737337e-01 0.0000000000000000e+00  1.1398857312601435e-01 1.0529607672202350e+00 0.0000000000000000e+00  1.2288308182199714e-01 8.9691860145218683e-01 0.0000000000000000e+00  1.1485932031297356e-01 1.0518609183136278e+00 0.0000000000000000e+00  1.2506467032924079e-01 8.8480354146604911e-01 0.0000000000000000e+00  1.2212395003028195e-01 9.9376339922486645e-01 0.0000000000000000e+00  1.2496637387856462e-01 8.9271385486177546e-01 0.0000000000000000e+00  1.0059452885048199e-01 1.1995249536098220e+00 0.0000000000000000e+00  1.0371243227059102e-01 1.1006205276527723e+00 0.0000000000000000e+00  1.1286976439306723e-01 1.0881613671263428e+00 0.0000000000000000e+00  1.1733397708955078e-01 9.7940321941036390e-01 0.0000000000000000e+00  1.1112399494362234e-01 1.1112021143986792e+00 0.0000000000000000e+00  1.1683365028440214e-01 9.9126901761359842e-01 0.0000000000000000e+00  1.1440540006456165e-01 1.0870754267925942e+00 0.0000000000000000e+00  1.1246920408314409e-01 1.0394345769130564e+00 0.0000000000000000e+00  1.1801751682021829e-01 1.0594926345910070e+00 0.0000000000000000e+00  1.1492607161132970e-01 1.0249193861415717e+00 0.0000000000000000e+00  1.1695950959342298e-01 1.0747666331707648e+00 0.0000000000000000e+00  1.2203970340778034e-01 9.6829936460779287e-01 0.0000000000000000e+00  1.1228776454513834e-01 1.1231883402895741e+00 0.0000000000000000e+00  1.2609620482111225e-01 9.3965852350488199e-01 0.0000000000000000e+00  1.1251912225227725e-01 1.1269636885451890e+00 0.0000000000000000e+00  1.0472579010273257e-01 1.1458895808349991e+00 0.0000000000000000e+00  1.2403299527802678e-01 1.0260961856379842e+00 0.0000000000000000e+00  1.1031652456806762e-01 1.1015989144773293e+00 0.0000000000000000e+00  1.1551683453121829e-01 1.1104184745957084e+00 0.0000000000000000e+00  1.2358988336441251e-01 9.8746443652558880e-01 0.0000000000000000e+00  1.1606498335344721e-01 1.1115952163036880e+00 0.0000000000000000e+00  1.3107748223512430e-01 9.2842291766125129e-01 0.0000000000000000e+00  1.208230