<?xml version="1.0"?>
<VTKFile type="UnstructuredGrid"  version="0.1"  >
<UnstructuredGrid>
<Piece  NumberOfPoints="801" NumberOfCells="800">
<Points>
<DataArray  type="Float64"  NumberOfComponents="3"  format="ascii">-5 0 0  -4.9875 0 0  -4.975 0 0  -4.9625 0 0  -4.95 0 0  -4.9375 0 0  -4.925 0 0  -4.9125 0 0  -4.9 0 0  -4.8875 0 0  -4.875 0 0  -4.8625 0 0  -4.85 0 0  -4.8375 0 0  -4.825 0 0  -4.8125 0 0  -4.8 0 0  -4.7875 0 0  -4.775 0 0  -4.7625 0 0  -4.75 0 0  -4.7375 0 0  -4.725 0 0  -4.7125 0 0  -4.7 0 0  -4.6875 0 0  -4.675 0 0  -4.6625 0 0  -4.65 0 0  -4.6375 0 0  -4.625 0 0  -4.6125 0 0  -4.6 0 0  -4.5875 0 0  -4.575 0 0  -4.5625 0 0  -4.55 0 0  -4.5375 0 0  -4.525 0 0  -4.5125 0 0  -4.5 0 0  -4.4875 0 0  -4.475 0 0  -4.4625 0 0  -4.45 0 0  -4.4375 0 0  -4.425 0 0  -4.4125 0 0  -4.4 0 0  -4.3875 0 0  -4.375 0 0  -4.3625 0 0  -4.35 0 0  -4.3375 0 0  -4.325 0 0  -4.3125 0 0  -4.3 0 0  -4.2875 0 0  -4.275 0 0  -4.2625 0 0  -4.25 0 0  -4.2375 0 0  -4.225 0 0  -4.2125 0 0  -4.2 0 0  -4.1875 0 0  -4.175 0 0  -4.1625 0 0  -4.15 0 0  -4.1375 0 0  -4.125 0 0  -4.1125 0 0  -4.1 0 0  -4.0875 0 0  -4.075 0 0  -4.0625 0 0  -4.05 0 0  -4.0375 0 0  -4.025 0 0  -4.0125 0 0  -4 0 0  -3.9875 0 0  -3.975 0 0  -3.9625 0 0  -3.95 0 0  -3.9375 0 0  -3.925 0 0  -3.9125 0 0  -3.9 0 0  -3.8875 0 0  -3.875 0 0  -3.8625 0 0  -3.85 0 0  -3.8375 0 0  -3.825 0 0  -3.8125 0 0  -3.8 0 0  -3.7875 0 0  -3.775 0 0  -3.7625 0 0  -3.75 0 0  -3.7375 0 0  -3.725 0 0  -3.7125 0 0  -3.7 0 0  -3.6875 0 0  -3.675 0 0  -3.6625 0 0  -3.65 0 0  -3.6375 0 0  -3.625 0 0  -3.6125 0 0  -3.6 0 0  -3.5875 0 0  -3.575 0 0  -3.5625 0 0  -3.55 0 0  -3.5375 0 0  -3.525 0 0  -3.5125 0 0  -3.5 0 0  -3.4875 0 0  -3.475 0 0  -3.4625 0 0  -3.45 0 0  -3.4375 0 0  -3.425 0 0  -3.4125 0 0  -3.4 0 0  -3.3875 0 0  -3.375 0 0  -3.3625 0 0  -3.35 0 0  -3.3375 0 0  -3.325 0 0  -3.3125 0 0  -3.3 0 0  -3.2875 0 0  -3.275 0 0  -3.2625 0 0  -3.25 0 0  -3.2375 0 0  -3.225 0 0  -3.2125 0 0  -3.2 0 0  -3.1875 0 0  -3.175 0 0  -3.1625 0 0  -3.15 0 0  -3.1375 0 0  -3.125 0 0  -3.1125 0 0  -3.1 0 0  -3.0875 0 0  -3.075 0 0  -3.0625 0 0  -3.05 0 0  -3.0375 0 0  -3.025 0 0  -3.0125 0 0  -3 0 0  -2.9875 0 0  -2.975 0 0  -2.9625 0 0  -2.95 0 0  -2.9375 0 0  -2.925 0 0  -2.9125 0 0  -2.9 0 0  -2.8875 0 0  -2.875 0 0  -2.8625 0 0  -2.85 0 0  -2.8375 0 0  -2.825 0 0  -2.8125 0 0  -2.8 0 0  -2.7875 0 0  -2.775 0 0  -2.7625 0 0  -2.75 0 0  -2.7375 0 0  -2.725 0 0  -2.7125 0 0  -2.7 0 0  -2.6875 0 0  -2.675 0 0  -2.6625 0 0  -2.65 0 0  -2.6375 0 0  -2.625 0 0  -2.6125 0 0  -2.6 0 0  -2.5875 0 0  -2.575 0 0  -2.5625 0 0  -2.55 0 0  -2.5375 0 0  -2.525 0 0  -2.5125 0 0  -2.5 0 0  -2.4875 0 0  -2.475 0 0  -2.4625 0 0  -2.45 0 0  -2.4375 0 0  -2.425 0 0  -2.4125 0 0  -2.4 0 0  -2.3875 0 0  -2.375 0 0  -2.3625 0 0  -2.35 0 0  -2.3375 0 0  -2.325 0 0  -2.3125 0 0  -2.3 0 0  -2.2875 0 0  -2.275 0 0  -2.2625 0 0  -2.25 0 0  -2.2375 0 0  -2.225 0 0  -2.2125 0 0  -2.2 0 0  -2.1875 0 0  -2.175 0 0  -2.1625 0 0  -2.15 0 0  -2.1375 0 0  -2.125 0 0  -2.1125 0 0  -2.1 0 0  -2.0875 0 0  -2.075 0 0  -2.0625 0 0  -2.05 0 0  -2.0375 0 0  -2.025 0 0  -2.0125 0 0  -2 0 0  -1.9875 0 0  -1.975 0 0  -1.9625 0 0  -1.95 0 0  -1.9375 0 0  -1.925 0 0  -1.9125 0 0  -1.9 0 0  -1.8875 0 0  -1.875 0 0  -1.8625 0 0  -1.85 0 0  -1.8375 0 0  -1.825 0 0  -1.8125 0 0  -1.8 0 0  -1.7875 0 0  -1.775 0 0  -1.7625 0 0  -1.75 0 0  -1.7375 0 0  -1.725 0 0  -1.7125 0 0  -1.7 0 0  -1.6875 0 0  -1.675 0 0  -1.6625 0 0  -1.65 0 0  -1.6375 0 0  -1.625 0 0  -1.6125 0 0  -1.6 0 0  -1.5875 0 0  -1.575 0 0  -1.5625 0 0  -1.55 0 0  -1.5375 0 0  -1.525 0 0  -1.5125 0 0  -1.5 0 0  -1.4875 0 0  -1.475 0 0  -1.4625 0 0  -1.45 0 0  -1.4375 0 0  -1.425 0 0  -1.4125 0 0  -1.4 0 0  -1.3875 0 0  -1.375 0 0  -1.3625 0 0  -1.35 0 0  -1.3375 0 0  -1.325 0 0  -1.3125 0 0  -1.3 0 0  -1.2875 0 0  -1.275 0 0  -1.2625 0 0  -1.25 0 0  -1.2375 0 0  -1.225 0 0  -1.2125 0 0  -1.2 0 0  -1.1875 0 0  -1.175 0 0  -1.1625 0 0  -1.15 0 0  -1.1375 0 0  -1.125 0 0  -1.1125 0 0  -1.1 0 0  -1.0875 0 0  -1.075 0 0  -1.0625 0 0  -1.05 0 0  -1.0375 0 0  -1.025 0 0  -1.0125 0 0  -1 0 0  -0.9874999999999998 0 0  -0.9749999999999996 0 0  -0.9625000000000004 0 0  -0.9500000000000002 0 0  -0.9375 0 0  -0.9249999999999998 0 0  -0.9124999999999996 0 0  -0.9000000000000004 0 0  -0.8875000000000002 0 0  -0.875 0 0  -0.8624999999999998 0 0  -0.8499999999999996 0 0  -0.8375000000000004 0 0  -0.8250000000000002 0 0  -0.8125 0 0  -0.7999999999999998 0 0  -0.7874999999999996 0 0  -0.7750000000000004 0 0  -0.7625000000000002 0 0  -0.75 0 0  -0.7374999999999998 0 0  -0.7249999999999996 0 0  -0.7125000000000004 0 0  -0.7000000000000002 0 0  -0.6875 0 0  -0.6749999999999998 0 0  -0.6624999999999996 0 0  -0.6500000000000004 0 0  -0.6375000000000002 0 0  -0.625 0 0  -0.6124999999999998 0 0  -0.5999999999999996 0 0  -0.5875000000000004 0 0  -0.5750000000000002 0 0  -0.5625 0 0  -0.5499999999999998 0 0  -0.5374999999999996 0 0  -0.5250000000000004 0 0  -0.5125000000000002 0 0  -0.5 0 0  -0.4874999999999998 0 0  -0.4749999999999996 0 0  -0.4625000000000004 0 0  -0.4500000000000002 0 0  -0.4375 0 0  -0.4249999999999998 0 0  -0.4124999999999996 0 0  -0.4000000000000004 0 0  -0.3875000000000002 0 0  -0.375 0 0  -0.3624999999999998 0 0  -0.3499999999999996 0 0  -0.3375000000000004 0 0  -0.3250000000000002 0 0  -0.3125 0 0  -0.2999999999999998 0 0  -0.2874999999999996 0 0  -0.2750000000000004 0 0  -0.2625000000000002 0 0  -0.25 0 0  -0.2374999999999998 0 0  -0.2249999999999996 0 0  -0.2125000000000004 0 0  -0.2000000000000002 0 0  -0.1875 0 0  -0.1749999999999998 0 0  -0.1624999999999996 0 0  -0.1500000000000004 0 0  -0.1375000000000002 0 0  -0.125 0 0  -0.1124999999999998 0 0  -0.09999999999999964 0 0  -0.08750000000000036 0 0  -0.07500000000000018 0 0  -0.0625 0 0  -0.04999999999999982 0 0  -0.03749999999999964 0 0  -0.02500000000000036 0 0  -0.01250000000000018 0 0  0 0 0  0.01250000000000018 0 0  0.02500000000000036 0 0  0.03749999999999964 0 0  0.04999999999999982 0 0  0.0625 0 0  0.07500000000000018 0 0  0.08750000000000036 0 0  0.09999999999999964 0 0  0.1124999999999998 0 0  0.125 0 0  0.1375000000000002 0 0  0.1500000000000004 0 0  0.1624999999999996 0 0  0.1749999999999998 0 0  0.1875 0 0  0.2000000000000002 0 0  0.2125000000000004 0 0  0.2249999999999996 0 0  0.2374999999999998 0 0  0.25 0 0  0.2625000000000002 0 0  0.2750000000000004 0 0  0.2874999999999996 0 0  0.2999999999999998 0 0  0.3125 0 0  0.3250000000000002 0 0  0.3375000000000004 0 0  0.3499999999999996 0 0  0.3624999999999998 0 0  0.375 0 0  0.3875000000000002 0 0  0.4000000000000004 0 0  0.4124999999999996 0 0  0.4249999999999998 0 0  0.4375 0 0  0.4500000000000002 0 0  0.4625000000000004 0 0  0.4749999999999996 0 0  0.4874999999999998 0 0  0.5 0 0  0.5125000000000002 0 0  0.5250000000000004 0 0  0.5374999999999996 0 0  0.5499999999999998 0 0  0.5625 0 0  0.5750000000000002 0 0  0.5875000000000004 0 0  0.5999999999999996 0 0  0.6124999999999998 0 0  0.625 0 0  0.6375000000000002 0 0  0.6500000000000004 0 0  0.6624999999999996 0 0  0.6749999999999998 0 0  0.6875 0 0  0.7000000000000002 0 0  0.7125000000000004 0 0  0.7249999999999996 0 0  0.7374999999999998 0 0  0.75 0 0  0.7625000000000002 0 0  0.7750000000000004 0 0  0.7874999999999996 0 0  0.7999999999999998 0 0  0.8125 0 0  0.8250000000000002 0 0  0.8375000000000004 0 0  0.8499999999999996 0 0  0.8624999999999998 0 0  0.875 0 0  0.8875000000000002 0 0  0.9000000000000004 0 0  0.9124999999999996 0 0  0.9249999999999998 0 0  0.9375 0 0  0.9500000000000002 0 0  0.9625000000000004 0 0  0.9749999999999996 0 0  0.9874999999999998 0 0  1 0 0  1.0125 0 0  1.025 0 0  1.0375 0 0  1.05 0 0  1.0625 0 0  1.075 0 0  1.0875 0 0  1.1 0 0  1.1125 0 0  1.125 0 0  1.1375 0 0  1.15 0 0  1.1625 0 0  1.175 0 0  1.1875 0 0  1.2 0 0  1.2125 0 0  1.225 0 0  1.2375 0 0  1.25 0 0  1.2625 0 0  1.275 0 0  1.2875 0 0  1.3 0 0  1.3125 0 0  1.325 0 0  1.3375 0 0  1.35 0 0  1.3625 0 0  1.375 0 0  1.3875 0 0  1.4 0 0  1.4125 0 0  1.425 0 0  1.4375 0 0  1.45 0 0  1.4625 0 0  1.475 0 0  1.4875 0 0  1.5 0 0  1.5125 0 0  1.525 0 0  1.5375 0 0  1.55 0 0  1.5625 0 0  1.575 0 0  1.5875 0 0  1.6 0 0  1.6125 0 0  1.625 0 0  1.6375 0 0  1.65 0 0  1.6625 0 0  1.675 0 0  1.6875 0 0  1.7 0 0  1.7125 0 0  1.725 0 0  1.7375 0 0  1.75 0 0  1.7625 0 0  1.775 0 0  1.7875 0 0  1.8 0 0  1.8125 0 0  1.825 0 0  1.8375 0 0  1.85 0 0  1.8625 0 0  1.875 0 0  1.8875 0 0  1.9 0 0  1.9125 0 0  1.925 0 0  1.9375 0 0  1.95 0 0  1.9625 0 0  1.975 0 0  1.9875 0 0  2 0 0  2.0125 0 0  2.025 0 0  2.0375 0 0  2.05 0 0  2.0625 0 0  2.075 0 0  2.0875 0 0  2.1 0 0  2.1125 0 0  2.125 0 0  2.1375 0 0  2.15 0 0  2.1625 0 0  2.175 0 0  2.1875 0 0  2.2 0 0  2.2125 0 0  2.225 0 0  2.2375 0 0  2.25 0 0  2.2625 0 0  2.275 0 0  2.2875 0 0  2.3 0 0  2.3125 0 0  2.325 0 0  2.3375 0 0  2.35 0 0  2.3625 0 0  2.375 0 0  2.3875 0 0  2.4 0 0  2.4125 0 0  2.425 0 0  2.4375 0 0  2.45 0 0  2.4625 0 0  2.475 0 0  2.4875 0 0  2.5 0 0  2.5125 0 0  2.525 0 0  2.5375 0 0  2.55 0 0  2.5625 0 0  2.575 0 0  2.5875 0 0  2.6 0 0  2.6125 0 0  2.625 0 0  2.6375 0 0  2.65 0 0  2.6625 0 0  2.675 0 0  2.6875 0 0  2.7 0 0  2.7125 0 0  2.725 0 0  2.7375 0 0  2.75 0 0  2.7625 0 0  2.775 0 0  2.7875 0 0  2.8 0 0  2.8125 0 0  2.825 0 0  2.8375 0 0  2.85 0 0  2.8625 0 0  2.875 0 0  2.8875 0 0  2.9 0 0  2.9125 0 0  2.925 0 0  2.9375 0 0  2.95 0 0  2.9625 0 0  2.975 0 0  2.9875 0 0  3 0 0  3.012499999999999 0 0  3.025 0 0  3.0375 0 0  3.050000000000001 0 0  3.0625 0 0  3.074999999999999 0 0  3.0875 0 0  3.1 0 0  3.112500000000001 0 0  3.125 0 0  3.137499999999999 0 0  3.15 0 0  3.1625 0 0  3.175000000000001 0 0  3.1875 0 0  3.199999999999999 0 0  3.2125 0 0  3.225 0 0  3.237500000000001 0 0  3.25 0 0  3.262499999999999 0 0  3.275 0 0  3.2875 0 0  3.300000000000001 0 0  3.3125 0 0  3.324999999999999 0 0  3.3375 0 0  3.35 0 0  3.362500000000001 0 0  3.375 0 0  3.387499999999999 0 0  3.4 0 0  3.4125 0 0  3.425000000000001 0 0  3.4375 0 0  3.449999999999999 0 0  3.4625 0 0  3.475 0 0  3.4875
[...]
<PointData  Vectors="(h, u)"> 
<DataArray  type="Float64"  Name="(h, u)"  NumberOfComponents="3" format="ascii">1.2691900138233680e-01 0.0000000000000000e+00 0.0000000000000000e+00  1.2670778073013519e-01 4.0840084859403557e-03 0.0000000000000000e+00  1.2690509948086154e-01 9.5362592809408384e-03 0.0000000000000000e+00  1.2672931765294054e-01 1.2228169321162625e-02 0.0000000000000000e+00  1.2686336606766205e-01 1.9120191603571018e-02 0.0000000000000000e+00  1.2677246618918317e-01 2.0304130411858429e-02 0.0000000000000000e+00  1.2679385937775037e-01 2.8793083633033130e-02 0.0000000000000000e+00  1.2683709179035291e-01 2.8277375545243080e-02 0.0000000000000000e+00  1.2669711031333813e-01 3.8583923738468653e-02 0.0000000000000000e+00  1.2692235793938356e-01 3.6128825359049765e-02 0.0000000000000000e+00  1.2657465106088595e-01 4.8504473093569631e-02 0.0000000000000000e+00  1.2702615730882008e-01 4.3859005596743945e-02 0.0000000000000000e+00  1.2642953985735703e-01 5.8545866411893202e-02 0.0000000000000000e+00  1.2714462613570951e-01 5.1490201443149648e-02 0.0000000000000000e+00  1.2626672740899472e-01 6.8677281497601522e-02 0.0000000000000000e+00  1.2727189087270294e-01 5.9066138372649332e-02 0.0000000000000000e+00  1.2609313724875076e-01 7.8847113308929045e-02 0.0000000000000000e+00  1.2740015157604120e-01 6.6648967489854757e-02 0.0000000000000000e+00  1.2591738867637259e-01 8.8986856934384143e-02 0.0000000000000000e+00  1.2752013785314578e-01 7.4313682528912600e-02 0.0000000000000000e+00  1.2574916447559964e-01 9.9017548267021346e-02 0.0000000000000000e+00  1.2762189586254274e-01 8.2140497916000643e-02 0.0000000000000000e+00  1.2559830043084372e-01 1.0885817858189749e-01 0.0000000000000000e+00  1.2769579555760391e-01 9.0206084731979691e-02 0.0000000000000000e+00  1.2547373381601989e-01 1.1843507764809984e-01 0.0000000000000000e+00  1.2773360041750420e-01 9.8574805384410408e-02 0.0000000000000000e+00  1.2538248086601461e-01 1.2769096016224599e-01 0.0000000000000000e+00  1.2772942625817174e-01 1.0729114696414312e-01 0.0000000000000000e+00  1.2532881207283575e-01 1.3659225426021421e-01 0.0000000000000000e+00  1.2768043334457324e-01 1.1637441023988677e-01 0.0000000000000000e+00  1.2531375966130689e-01 1.4513353484993391e-01 0.0000000000000000e+00  1.2758714206825197e-01 1.2581639279443896e-01 0.0000000000000000e+00  1.2533503182258224e-01 1.5333834963728929e-01 0.0000000000000000e+00  1.2745332687740907e-01 1.3558236858352496e-01 0.0000000000000000e+00  1.2538733683010433e-01 1.6125635274453229e-01 0.0000000000000000e+00  1.2728551329175122e-01 1.4561518377914570e-01 0.0000000000000000e+00  1.2546305274318451e-01 1.6895729771696760e-01 0.0000000000000000e+00  1.2709216588004718e-01 1.5584183443274061e-01 0.0000000000000000e+00  1.2555312844443195e-01 1.7652293616337064e-01 0.0000000000000000e+00  1.2688269999957530e-01 1.6618153739073629e-01 0.0000000000000000e+00  1.2564807689033580e-01 1.8403811998989905e-01 0.0000000000000000e+00  1.2666646930950728e-01 1.7655411574029886e-01 0.0000000000000000e+00  1.2573892238548648e-01 1.9158239256492435e-01 0.0000000000000000e+00  1.2645187182600723e-01 1.8688753637969033e-01 0.0000000000000000e+00  1.2581798552007759e-01 1.9922312687952673e-01 0.0000000000000000e+00  1.2624568255749002e-01 1.9712366432748810e-01 0.0000000000000000e+00  1.2587942458626178e-01 2.0701091390793561e-01 0.0000000000000000e+00  1.2605266950349511e-01 2.0722168635699270e-01 0.0000000000000000e+00  1.2591949401678584e-01 2.1497750314220723e-01 0.0000000000000000e+00  1.2587549577915669e-01 2.1715910135139749e-01 0.0000000000000000e+00  1.2593652410027162e-01 2.2313620158133460e-01 0.0000000000000000e+00  1.2571486785317976e-01 2.2693055418449273e-01 0.0000000000000000e+00  1.2593066730921718e-01 2.3148428677123531e-01 0.0000000000000000e+00  1.2556986582221771e-01 2.3654502707239478e-01 0.0000000000000000e+00  1.2590348763832318e-01 2.4000673896965827e-01 0.0000000000000000e+00  1.2543838443369856e-01 2.4602199769642019e-01 0.0000000000000000e+00  1.2585748244088682e-01 2.4868050546098905e-01 0.0000000000000000e+00  1.2531761643300093e-01 2.5538717360991620e-01 0.0000000000000000e+00  1.2579561802199840e-01 2.5747859795256850e-01 0.0000000000000000e+00  1.2520451653902645e-01 2.6466836611108774e-01 0.0000000000000000e+00  1.2572093388485681e-01 2.6637356142647289e-01 0.0000000000000000e+00  1.2509619215972470e-01 2.7389199918961632e-01 0.0000000000000000e+00  1.2563623647501168e-01 2.7534014987595690e-01 0.0000000000000000e+00  1.2499018018605676e-01 2.8308062673053280e-01 0.0000000000000000e+00  1.2554387955000440e-01 2.8435724603154300e-01 0.0000000000000000e+00  1.2488459668621965e-01 2.9225158103101201e-01 0.0000000000000000e+00  1.2544562773997001e-01 2.9340905894945551e-01 0.0000000000000000e+00  1.2477818300642858e-01 3.0141654580642913e-01 0.0000000000000000e+00  1.2534261024700111e-01 3.0248553551687940e-01 0.0000000000000000e+00  1.2467029144936172e-01 3.1058166997247383e-01 0.0000000000000000e+00  1.2523536759391626e-01 3.1158195479993600e-01 0.0000000000000000e+00  1.2456084084642580e-01 3.1974795149998253e-01 0.0000000000000000e+00  1.2512397473439588e-01 3.2069784752932523e-01 0.0000000000000000e+00  1.2445024513979226e-01 3.2891186241355980e-01 0.0000000000000000e+00  1.2500820699513804e-01 3.2983553365357765e-01 0.0000000000000000e+00  1.2433929677570843e-01 3.3806637674818502e-01 0.0000000000000000e+00  1.2488770563847623e-01 3.3899865868460444e-01 0.0000000000000000e+00  1.2422898041945866e-01 3.4720262095522003e-01 0.0000000000000000e+00  1.2476210963038384e-01 3.4819102421623777e-01 0.0000000000000000e+00  1.2412023069392183e-01 3.5631202879678336e-01 0.0000000000000000e+00  1.2463117481745202e-01 3.5741552357475526e-01 0.0000000000000000e+00  1.2401372390133325e-01 3.6538820570504055e-01 0.0000000000000000e+00  1.2449494228057791e-01 3.6667263234130792e-01 0.0000000000000000e+00  1.2390979327611534e-01 3.7442770767762251e-01 0.0000000000000000e+00  1.2435393766890242e-01 3.7595861289256127e-01 0.0000000000000000e+00  1.2380843713879132e-01 3.8343000237389818e-01 0.0000000000000000e+00  1.2420927122675925e-01 3.8526458958232124e-01 0.0000000000000000e+00  1.2370933368776837e-01 3.9239737353903797e-01 0.0000000000000000e+00  1.2406255984716476e-01 3.9457719598088448e-01 0.0000000000000000e+00  1.2361186488279136e-01 4.0133474413727560e-01 0.0000000000000000e+00  1.2391571307272344e-01 4.0388042709497479e-01 0.0000000000000000e+00  1.2351518135842371e-01 4.1024913298254040e-01 0.0000000000000000e+00  1.2377064510532219e-01 4.1315815263184419e-01 0.0000000000000000e+00  1.2341832732988056e-01 4.1914857517817000e-01 0.0000000000000000e+00  1.2362905817996532e-01 4.2239600511559716e-01 0.0000000000000000e+00  1.2332054047980708e-01 4.2803948138691239e-01 0.0000000000000000e+00  1.2349247645840647e-01 4.3158105138966424e-01 0.0000000000000000e+00  1.2322165517461814e-01 4.3692307012041315e-01 0.0000000000000000e+00  1.2336228357226489e-01 4.4070144752367402e-01 0.0000000000000000e+00  1.2312210361241657e-01 4.4579537215079162e-01 0.0000000000000000e+00  1.2323936757272276e-01 4.4974960857890084e-01 0.0000000000000000e+00  1.2302246325043323e-01 4.5465126925112204e-01 0.0000000000000000e+00  1.2312383598251581e-01 4.5872476516342003e-01 0.0000000000000000e+00  1.2292334088065232e-01 4.6348552164591234e-01 0.0000000000000000e+00  1.2301539719501620e-01 4.6762958119555947e-01 0.0000000000000000e+00  1.2282565518364627e-01 4.7229023038768753e-01 0.0000000000000000e+00  1.2291379155686602e-01 4.7646632932420180e-01 0.0000000000000000e+00  1.2273057431591898e-01 4.8105537061763992e-01 0.0000000000000000e+00  1.2281883215728730e-01 4.8523655023982454e-01 0.0000000000000000e+00  1.2263929529958213e-01 4.8977073526183190e-01 0.0000000000000000e+00  1.2273039367312856e-01 4.9394117520857900e-01 0.0000000000000000e+00  1.2255270354964523e-01 4.9842895341877874e-01 0.0000000000000000e+00  1.2264795755816216e-01 5.0258461151515532e-01 0.0000000000000000e+00  1.2247080230766755e-01 5.0703056962592363e-01 0.0000000000000000e+00  1.2257062998341899e-01 5.1117459585469815e-01 0.0000000000000000e+00  1.2239362993137591e-01 5.1557582595980167e-01 0.0000000000000000e+00  1.2249862408866771e-01 5.1970894919931865e-01 0.0000000000000000e+00  1.2232222063019149e-01 5.2405606489105661e-01 0.0000000000000000e+00  1.2243256792045794e-01 5.2818178051492570e-01 0.0000000000000000e+00  1.2225649842362699e-01 5.3247257085210742e-01 0.0000000000000000e+00  1.2237145276954454e-01 5.3660184440236214e-01 0.0000000000000000e+00  1.2219523145952232e-01 5.4083696993427410e-01 0.0000000000000000e+00  1.2231476441585894e-01 5.4497345609159586e-01 0.0000000000000000e+00  1.2213868060313032e-01 5.4914752369691144e-01 0.0000000000000000e+00  1.2226323692137614e-01 5.5328975165595962e-01 0.0000000000000000e+00  1.2208703126284040e-01 5.5740317973449260e-01 0.0000000000000000e+00  1.2221665572824762e-01 5.6155236275045606e-01 0.0000000000000000e+00  1.2203971457662319e-01 5.6560964338276942e-01 0.0000000000000000e+00  1.2217464185988555e-01 5.6976438903533722e-01 0.0000000000000000e+00  1.2199600244407220e-01 5.7377404201480864e-01 0.0000000000000000e+00  1.2213623308404883e-01 5.7793415523219716e-01 0.0000000000000000e+00  1.2195524136609337e-01 5.8190281563227486e-01 0.0000000000000000e+00  1.2210214220056002e-01 5.8605498261730860e-01 0.0000000000000000e+00  1.2191916021068705e-01 5.8998103867252372e-01 0.0000000000000000e+00  1.2207290662745274e-01 5.9412180703300010e-01 0.0000000000000000e+00  1.2188577677617393e-01 5.9802702530338647e-01 0.0000000000000000e+00  1.2204506539073988e-01 6.0216542406906226e-01 0.0000000000000000e+00  1.2185423576963690e-01 6.0604890720232529e-01 0.0000000000000000e+00  1.2202115081920548e-01 6.1016293064901728e-01 0.0000000000000000e+00  1.2182801520411114e-01 6.1401593224179241e-01 0.0000000000000000e+00  1.2200050853932982e-01 6.1812008907886395e-01 0.0000000000000000e+00  1.2180325302875335e-01 6.2196310451678827e-01 0.0000000000000000e+00  1.2198022128304258e-01 6.2606297090919316e-01 0.0000000000000000e+00  1.2178143030936008e-01 6.2987741213084858e-01 0.0000000000000000e+00  1.2196322153019376e-01 6.3396525405426007e-01 0.0000000000000000e+00  1.2176261162789104e-01 6.3775851637137115e-01 0.0000000000000000e+00  1.2194774709094620e-01 6.4184278301428321e-01 0.0000000000000000e+00  1.2174612869052123e-01 6.4561258193835658e-01 0.0000000000000000e+00  1.2193473952775258e-01 6.4968718583386542e-01 0.0000000000000000e+00  1.2173028176674210e-01 6.5345498800645085e-01 0.0000000000000000e+00  1.2192170180663529e-01 6.5752095277852374e-01 0.0000000000000000e+00  1.2171697506938715e-01 6.6126872779889345e-01 0.0000000000000000e+00  1.2191437221513125e-01 6.6529273897649333e-01 0.0000000000000000e+00  1.2170608711542252e-01 6.6905501202865059e-01 0.0000000000000000e+00  1.2190378634074946e-01 6.7308311290944600e-01 0.0000000000000000e+00  1.2169286451173406e-01 6.7685650650876661e-01 0.0000000000000000e+00  1.2189856615549485e-01 6.8081481066899197e-01 0.0000000000000000e+00  1.2168696270876971e-01 6.8458667424474917e-01 0.0000000000000000e+00  1.2189256821400049e-01 6.8854315784756936e-01 0.0000000000000000e+00  1.2167545476501584e-01 6.9236154366560188e-01 0.0000000000000000e+00  1.2188759159423135e-01 6.9625208828846485e-01 0.0000000000000000e+00  1.2167098098818747e-01 7.0006770318697908e-01 0.0000000000000000e+00  1.2188443806115898e-01 7.0393464347454593e-01 0.0000000000000000e+00  1.2166284913588048e-01 7.0780109463360585e-01 0.0000000000000000e+00  1.2188265347017777e-01 7.1159509142361688e-01 0.0000000000000000e+00  1.2165906548212976e-01 7.1548976594945402e-01 0.0000000000000000e+00  1.2187872499049697e-01 7.1926531094523904e-01 0.0000000000000000e+00  1.2165224329616420e-01 7.2319974500243200e-01 0.0000000000000000e+00  1.2188257267804672e-01 7.2685674210919704e-01 0.0000000000000000e+00  1.2165086135255763e-01 7.3085458035778106e-01 0.0000000000000000e+00  1.2187662108638951e-01 7.3452786304357409e-01 0.0000000000000000e+00  1.2164318341005861e-01 7.3855877121777280e-01 0.0000000000000000e+00  1.2188607642534866e-01 7.4205348404596283e-01 0.0000000000000000e+00  1.2164368789507123e-01 7.4618137933706086e-01 0.0000000000000000e+00  1.2187926762315132e-01 7.4971946710812909e-01 0.0000000000000000e+00  1.2163635566283337e-01 7.5386426123787009e-01 0.0000000000000000e+00  1.2189181044142988e-01 7.5720840032380410e-01 0.0000000000000000e+00  1.2163265968858843e-01 7.6150199861971546e-01 0.0000000000000000e+00  1.2188762129405019e-01 7.6484746541752413e-01 0.0000000000000000e+00  1.2163155158419016e-01 7.6910002795910759e-01 0.0000000000000000e+00  1.2189986627444617e-01 7.7234378243542112e-01 0.0000000000000000e+00  1.2161797519180935e-01 7.7678804708565785e-01 0.0000000000000000e+00  1.2190722716532480e-01 7.7989534781588599e-01 0.0000000000000000e+00  1.2162322885099749e-01 7.8427724789943820e-01 0.0000000000000000e+00  1.2190856958207108e-01 7.8752198217492464e-01 0.0000000000000000e+00  1.2160198673932364e-01 7.9196321911710588e-01 0.0000000000000000e+00  1.2193744695545854e-01 7.9493559745426801e-01 0.0000000000000000e+00  1.2159612794548962e-01 7.9945495054273852e-01 0.0000000000000000e+00  1.2192796905002187e-01 8.0274573452481957e-01 0.0000000000000000e+00  1.2158831004858278e-01 8.0688679558546184e-01 0.0000000000000000e+00  1.2196898782730466e-01 8.1017947027452375e-01 0.0000000000000000e+00  1.2154861658156314e-01 8.1449948214705337e-01 0.0000000000000000e+00  1.2198680900513974e-01 8.1793030248867626e-01 0.0000000000000000e+00  1.2155048820227911e-01 8.2159677114154994e-01 0.0000000000000000e+00  1.2200226885420154e-01 8.2585365679620304e-01 0.0000000000000000e+00  1.2150767445980404e-01 8.2890512414016759e-01 0.0000000000000000e+00  1.2207287902110144e-01 8.3348672883677200e-01 0.0000000000000000e+00  1.2144554002492630e-01 8.3613721607463332e-01 0.0000000000000000e+00  1.2210828401122012e-01 8.4170658904048401e-01 0.0000000000000000e+00  1.2143512943358370e-01 8.4258159311898007e-01 0.0000000000000000e+00  1.2214852127103734e-01 8.5023476527133679e-01 0.0000000000000000e+00  1.2133409928906504e-01 8.4942809606750291e-01 0.0000000000000000e+00  1.2229719861932876e-01 8.5823542031294753e-01 0.0000000000000000e+00  1.2120252634549723e-01 8.5603615413221534e-01 0.0000000000000000e+00  1.2238352249739222e-01 8.6734689036376944e-01 0.0000000000000000e+00  1.2114152569679268e-01 8.6138442354923073e-01 0.0000000000000000e+00  1.2248332002228261e-01 8.7700539513852049e-01 0.0000000000000000e+00  1.2096480343730588e-01 8.6702552089598828e-01 0.0000000000000000e+00  1.2274238397312086e-01 8.8602178386227493e-01 0.0000000000000000e+00  1.2066479035502763e-01 8.7290687440043857e-01 0.0000000000000000e+00  1.2303102169355426e-01 8.9567073367901184e-01 0.0000000000000000e+00  1.2043426644052131e-01 8.7718493461306979e-01 0.0000000000000000e+00  1.2321342401273883e-01 9.0726600072556285e-01 0.0000000000000000e+00  1.2024004083456676e-01 8.8006921646295910e-01 0.0000000000000000e+00  1.2350750155454263e-01 9.1892182796047805e-01 0.0000000000000000e+00  1.1979575121790073e-01 8.8408446890051406e-01 0.0000000000000000e+00  1.2409125654135970e-01 9.2906039839675958e-01 0.0000000000000000e+00  1.1914140828618550e-01 8.8887396503297633e-01 0.0000000000000000e+00  1.2473896485845334e-01 9.3965223669347564e-01 0.0000000000000000e+00  1.1856904226510273e-01 8.9188493756239184e-01 0.0000000000000000e+00  1.2520549681184906e-01 9.5276429273258467e-01 0.0000000000000000e+00  1.1821425493817023e-01 8.9206152603822586e-01 0.0000000000000000e+00  1.2548016237960893e-01 9.6827731059807709e-01 0.0000000000000000e+00  1.1796504464415032e-01 8.9067825096120301e-01 0.0000000000000000e+00  1.2575805360027961e-01 9.8413780888619917e-01 0.0000000000000000e+00  1.1760533690324526e-01 8.9005219902119581e-01 0.0000000000000000e+00  1.2620530545724112e-01 9.9845663258399964e-01 0.0000000000000000e+00  1.1707306929955262e-01 8.9120608154711245e-01 0.0000000000000000e+00  1.2679053896941855e-01 1.0110270046599370e+00 0.0000000000000000e+00  1.1645946477627810e-01 8.9385396083460478e-01 0.0000000000000000e+00  1.2740552432380570e-01 1.0222776103545512e+00 0.0000000000000000e+00  1.1586446228036032e-01 8.9767503146181593e-01 0.0000000000000000e+00  1.2795823538760678e-01 1.0324812951878757e+00 0.0000000000000000e+00  1.1537341904766756e-01 9.0247713346401093e-01 0.0000000000000000e+00  1.2836915074549815e-01 1.0418337829187243e+00 0.0000000000000000e+00  1.1504957136026969e-01 9.0820842821422443e-01 0.0000000000000000e+00  1.2859652510586450e-01 1.0502800813403825e+00 0.0000000000000000e+00  1.1491062434596699e-01 9.1511009831771561e-01 0.0000000000000000e+00  1.2863933470587469e-01 1.0575378454483417e+00 0.0000000000000000e+00  1.1495104105464785e-01 9.2345960123923165e-01 0.0000000000000000e+00  1.2850357439585786e-01 1.0634383260070646e+00 0.0000000000000000e+00  1.1516800281656035e-01 9.3329485417465941e-01 0.0000000000000000e+00  1.2819213592477188e-01 1.0680439000792805e+00 0.0000000000000000e+00  1.1555450979582962e-01 9.4445906271352587e-01 0.0000000000000000e+00  1.2771967715195956e-01 1.0715236021586276e+00 0.0000000000000000e+00  1.1608631006867715e-01 9.5672869085733647e-01 0.0000000000000000e+00  1.2711909698022555e-01 1.0740789535627193e+00 0.0000000000000000e+00  1.1672391876681634e-01 9.6983243501286065e-01 0.0000000000000000e+00  1.2643473740919367e-01 1.0759631527735520e+00 0.0000000000000000e+00  1.1741994956619123e-01 9.8344656815083031e-01 0.0000000000000000e+00  1.2571814980620163e-01 1.0774564197031113e+00 0.0000000000000000e+00  1.1812757783763639e-01 9.9719715353307192e-01 0.0000000000000000e+00  1.2500654157283722e-01 1.0789818561585145e+00 0.0000000000000000e+00  1.1886911050628406e-01 1.0101262307995045e+00 0.0000000000000000e+00  1.2422310636352184e-01 1.0819157287356294e+00 0.0000000000000000e+00  1.1983918280651167e-01 1.0198417662299508e+00 0.0000000000000000e+00  1.2315120044545283e-01 1.0887505775978976e+00 0.0000000000000000e+00  1.2113180027565916e-01 1.0250400621467457e+00 0.0000000000000000e+00  1.2185373833451563e-01 1.0992974220179046e+00 0.0000000000000000e+00  1.2211817523725860e-01 1.0311246742197073e+00 0.0000000000000000e+00  1.2113273195238057e-01 1.1065263952600295e+00 0.0000000000000000e+00  1.2211010557753500e-01 1.0442498179592166e+00 0.0000000000000000e+00  1.2136161896746157e-01 1.1070289315703077e+00 0.0000000000000000e+00  1.2179253957167460e-01 1.0584421821396603e+00 0.0000000000000000e+00  1.2157983816047337e-01 1.1092180873059843e+00 0.0000000000000000e+00  1.2170474030050163e-01 1.0691549725426268e+00 0.0000000000000000e+00  1.2175399095232704e-01 1.1130605605213708e+00 0.0000000000000000e+00  1.2125019661251817e-01 1.0820998912334134e+00 0.0000000000000000e+00  1.2243727837260014e-01 1.1132040936680367e+00 0.0000000000000000e+00  1.2029447240055029e-01 1.0988581317241666e+00 0.0000000000000000e+00  1.2373868917753438e-01 1.1083202128767082e+00 0.0000000000000000e+00  1.1860519598610456e-01 1.1218738556802739e+00 0.0000000000000000e+00  1.2614298523002823e-01 1.0938226959295754e+00 0.0000000000000000e+00  1.1605788072240829e-01 1.1525905023076120e+00 0.0000000000000000e+00  1.2952800889247856e-01 1.0706963469917772e+00 0.0000000000000000e+00  1.1323916430593785e-01 1.1859494951996692e+00 0.0000000000000000e+00  1.3291804580652536e-01 1.0475628317718977e+00 0.0000000000000000e+00  1.1103774479523630e-01 1.2139600810070192e+00 0.0000000000000000e+00  1.3391295435237568e-01 1.0455359372059643e+00 0.0000000000000000e+00  1.1187874272166458e-01 1.2143519043709061e+00 0.0000000000000000e+00  1.2826500931775134e-01 1.1022996778796832e+00 0.0000000000000000e+00  1.1962758348359445e-01 1.1522201446431812e+00 0.0000000000000000e+00  1.1871804077123950e-01 1.1944152009785420e+00 0.0000000000000000e+00  1.2847512112567061e-01 1.0811508962426788e+00 0.0000000000000000e+00  1.140579