<?xml version="1.0"?>
<VTKFile type="UnstructuredGrid"  version="0.1"  >
<UnstructuredGrid>
<Piece  NumberOfPoints="401" NumberOfCells="400">
<Points>
<DataArray  type="Float64"  NumberOfComponents="3"  format="ascii">-5 0 0  -4.975 0 0  -4.95 0 0  -4.925 0 0  -4.9 0 0  -4.875 0 0  -4.85 0 0  -4.825 0 0  -4.8 0 0  -4.775 0 0  -4.75 0 0  -4.725 0 0  -4.7 0 0  -4.675 0 0  -4.65 0 0  -4.625 0 0  -4.6 0 0  -4.575 0 0  -4.55 0 0  -4.525 0 0  -4.5 0 0  -4.475 0 0  -4.45 0 0  -4.425 0 0  -4.4 0 0  -4.375 0 0  -4.35 0 0  -4.325 0 0  -4.3 0 0  -4.275 0 0  -4.25 0 0  -4.225 0 0  -4.2 0 0  -4.175 0 0  -4.15 0 0  -4.125 0 0  -4.1 0 0  -4.075 0 0  -4.05 0 0  -4.025 0 0  -4 0 0  -3.975 0 0  -3.95 0 0  -3.925 0 0  -3.9 0 0  -3.875 0 0  -3.85 0 0  -3.825 0 0  -3.8 0 0  -3.775 0 0  -3.75 0 0  -3.725 0 0  -3.7 0 0  -3.675 0 0  -3.65 0 0  -3.625 0 0  -3.6 0 0  -3.575 0 0  -3.55 0 0  -3.525 0 0  -3.5 0 0  -3.475 0 0  -3.45 0 0  -3.425 0 0  -3.4 0 0  -3.375 0 0  -3.35 0 0  -3.325 0 0  -3.3 0 0  -3.275 0 0  -3.25 0 0  -3.225 0 0  -3.2 0 0  -3.175 0 0  -3.15 0 0  -3.125 0 0  -3.1 0 0  -3.075 0 0  -3.05 0 0  -3.025 0 0  -3 0 0  -2.975 0 0  -2.95 0 0  -2.925 0 0  -2.9 0 0  -2.875 0 0  -2.85 0 0  -2.825 0 0  -2.8 0 0  -2.775 0 0  -2.75 0 0  -2.725 0 0  -2.7 0 0  -2.675 0 0  -2.65 0 0  -2.625 0 0  -2.6 0 0  -2.575 0 0  -2.55 0 0  -2.525 0 0  -2.5 0 0  -2.475 0 0  -2.45 0 0  -2.425 0 0  -2.4 0 0  -2.375 0 0  -2.35 0 0  -2.325 0 0  -2.3 0 0  -2.275 0 0  -2.25 0 0  -2.225 0 0  -2.2 0 0  -2.175 0 0  -2.15 0 0  -2.125 0 0  -2.1 0 0  -2.075 0 0  -2.05 0 0  -2.025 0 0  -2 0 0  -1.975 0 0  -1.95 0 0  -1.925 0 0  -1.9 0 0  -1.875 0 0  -1.85 0 0  -1.825 0 0  -1.8 0 0  -1.775 0 0  -1.75 0 0  -1.725 0 0  -1.7 0 0  -1.675 0 0  -1.65 0 0  -1.625 0 0  -1.6 0 0  -1.575 0 0  -1.55 0 0  -1.525 0 0  -1.5 0 0  -1.475 0 0  -1.45 0 0  -1.425 0 0  -1.4 0 0  -1.375 0 0  -1.35 0 0  -1.325 0 0  -1.3 0 0  -1.275 0 0  -1.25 0 0  -1.225 0 0  -1.2 0 0  -1.175 0 0  -1.15 0 0  -1.125 0 0  -1.1 0 0  -1.075 0 0  -1.05 0 0  -1.025 0 0  -1 0 0  -0.9749999999999996 0 0  -0.9500000000000002 0 0  -0.9249999999999998 0 0  -0.9000000000000004 0 0  -0.875 0 0  -0.8499999999999996 0 0  -0.8250000000000002 0 0  -0.7999999999999998 0 0  -0.7750000000000004 0 0  -0.75 0 0  -0.7249999999999996 0 0  -0.7000000000000002 0 0  -0.6749999999999998 0 0  -0.6500000000000004 0 0  -0.625 0 0  -0.5999999999999996 0 0  -0.5750000000000002 0 0  -0.5499999999999998 0 0  -0.5250000000000004 0 0  -0.5 0 0  -0.4749999999999996 0 0  -0.4500000000000002 0 0  -0.4249999999999998 0 0  -0.4000000000000004 0 0  -0.375 0 0  -0.3499999999999996 0 0  -0.3250000000000002 0 0  -0.2999999999999998 0 0  -0.2750000000000004 0 0  -0.25 0 0  -0.2249999999999996 0 0  -0.2000000000000002 0 0  -0.1749999999999998 0 0  -0.1500000000000004 0 0  -0.125 0 0  -0.09999999999999964 0 0  -0.07500000000000018 0 0  -0.04999999999999982 0 0  -0.02500000000000036 0 0  0 0 0  0.02500000000000036 0 0  0.04999999999999982 0 0  0.07500000000000018 0 0  0.09999999999999964 0 0  0.125 0 0  0.1500000000000004 0 0  0.1749999999999998 0 0  0.2000000000000002 0 0  0.2249999999999996 0 0  0.25 0 0  0.2750000000000004 0 0  0.2999999999999998 0 0  0.3250000000000002 0 0  0.3499999999999996 0 0  0.375 0 0  0.4000000000000004 0 0  0.4249999999999998 0 0  0.4500000000000002 0 0  0.4749999999999996 0 0  0.5 0 0  0.5250000000000004 0 0  0.5499999999999998 0 0  0.5750000000000002 0 0  0.5999999999999996 0 0  0.625 0 0  0.6500000000000004 0 0  0.6749999999999998 0 0  0.7000000000000002 0 0  0.7249999999999996 0 0  0.75 0 0  0.7750000000000004 0 0  0.7999999999999998 0 0  0.8250000000000002 0 0  0.8499999999999996 0 0  0.875 0 0  0.9000000000000004 0 0  0.9249999999999998 0 0  0.9500000000000002 0 0  0.9749999999999996 0 0  1 0 0  1.025 0 0  1.05 0 0  1.075 0 0  1.1 0 0  1.125 0 0  1.15 0 0  1.175 0 0  1.2 0 0  1.225 0 0  1.25 0 0  1.275 0 0  1.3 0 0  1.325 0 0  1.35 0 0  1.375 0 0  1.4 0 0  1.425 0 0  1.45 0 0  1.475 0 0  1.5 0 0  1.525 0 0  1.55 0 0  1.575 0 0  1.6 0 0  1.625 0 0  1.65 0 0  1.675 0 0  1.7 0 0  1.725 0 0  1.75 0 0  1.775 0 0  1.8 0 0  1.825 0 0  1.85 0 0  1.875 0 0  1.9 0 0  1.925 0 0  1.95 0 0  1.975 0 0  2 0 0  2.025 0 0  2.05 0 0  2.075 0 0  2.1 0 0  2.125 0 0  2.15 0 0  2.175 0 0  2.2 0 0  2.225 0 0  2.25 0 0  2.275 0 0  2.3 0 0  2.325 0 0  2.35 0 0  2.375 0 0  2.4 0 0  2.425 0 0  2.45 0 0  2.475 0 0  2.5 0 0  2.525 0 0  2.55 0 0  2.575 0 0  2.6 0 0  2.625 0 0  2.65 0 0  2.675 0 0  2.7 0 0  2.725 0 0  2.75 0 0  2.775 0 0  2.8 0 0  2.825 0 0  2.85 0 0  2.875 0 0  2.9 0 0  2.925 0 0  2.95 0 0  2.975 0 0  3 0 0  3.025 0 0  3.050000000000001 0 0  3.074999999999999 0 0  3.1 0 0  3.125 0 0  3.15 0 0  3.175000000000001 0 0  3.199999999999999 0 0  3.225 0 0  3.25 0 0  3.275 0 0  3.300000000000001 0 0  3.324999999999999 0 0  3.35 0 0  3.375 0 0  3.4 0 0  3.425000000000001 0 0  3.449999999999999 0 0  3.475 0 0  3.5 0 0  3.525 0 0  3.550000000000001 0 0  3.574999999999999 0 0  3.6 0 0  3.625 0 0  3.65 0 0  3.675000000000001 0 0  3.699999999999999 0 0  3.725 0 0  3.75 0 0  3.775 0 0  3.800000000000001 0 0  3.824999999999999 0 0  3.85 0 0  3.875 0 0  3.9 0 0  3.925000000000001 0 0  3.949999999999999 0 0  3.975 0 0  4 0 0  4.025 0 0  4.050000000000001 0 0  4.074999999999999 0 0  4.1 0 0  4.125 0 0  4.15 0 0  4.175000000000001 0 0  4.199999999999999 0 0  4.225 0 0  4.25 0 0  4.275 0 0  4.300000000000001 0 0  4.324999999999999 0 0  4.35 0 0  4.375 0 0  4.4 0 0  4.425000000000001 0 0  4.449999999999999 0 0  4.475 0 0  4.5 0 0  4.525 0 0  4.550000000000001 0 0  4.574999999999999 0 0  4.6 0 0  4.625 0 0  4.65 0 0  4.675000000000001 0 0  4.699999999999999 0 0  4.725 0 0  4.75 0 0  4.775 0 0  4.800000000000001 0 0  4.824999999999999 0 0  4.85 0 0  4.875 0 0  4.9 0 0  4.925000000000001 0 0  4.949999999999999 0 0  4.975 0 0  5 0 0  </DataArray>
</Points>
<Cells>
<DataArray  type="UInt32"  Name="connectivity"  format="ascii">0 1  1 2  2 3  3 4  4 5  5 6  6 7  7 8  8 9  9 10  10 11  11 12  12 13  13 14  14 15  15 16  16 17  17 18  18 19  19 20  20 21  21 22  22 23  23 24  24 25  25 26  26 27  27 28  28 29  29 30  30 31  31 32  32 33  33 34  34 35  35 36  36 37  37 38  38 39  39 40  40 41  41 42  42 43  43 44  44 45  45 46  46 47  47 48  48 49  49 50  50 51  51 52  52 53  53 54  54 55  55 56  56 57  57 58  58 59  59 60  60 61  61 62  62 63  63 64  64 65  65 66  66 67  67 68  68 69  69 70  70 71  71 72  72 73  73 74  74 75  75 76  76 77  77 78  78 79  79 80  80 81  81 82  82 83  83 84  84 85  85 86  86 87  87 88  88 89  89 90  90 91  91 92  92 93  93 94  94 95  95 96  96 97  97 98  98 99  99 100  100 101  101 102  102 103  103 104  104 105  105 106  106 107  107 108  108 109  109 110  110 111  111 112  112 113  113 114  114 115  115 116  116 117  117 118  118 119  119 120  120 121  121 122  122 123  123 124  124 125  125 126  126 127  127 128  128 129  129 130  130 131  131 132  132 133  133 134  134 135  135 136  136 137  137 138  138 139  139 140  140 141  141 142  142 143  143 144  144 145  145 146  146 147  147 148  148 149  149 150  150 151  151 152  152 153  153 154  154 155  155 156  156 157  157 158  158 159  159 160  160 161  161 162  162 163  163 164  164 165  165 166  166 167  167 168  168 169  169 170  170 171  171 172  172 173  173 174  174 175  175 176  176 177  177 178  178 179  179 180  180 181  181 182  182 183  183 184  184 185  185 186  186 187  187 188  188 189  189 190  190 191  191 192  192 193  193 194  194 195  195 196  196 197  197 198  198 199  199 200  200 201  201 202  202 203  203 204  204 205  205 206  206 207  207 208  208 209  209 210  210 211  211 212  212 213  213 214  214 215  215 216  216 217  217 218  218 219  219 220  220 221  221 222  222 223  223 224  224 225  225 226  226 227  227 228  228 229  229 230  230 231  231 232  232 233  233 234  234 235  235 236  236 237  237 238  238 239  239 240  240 241  241 242  242 243  243 244  244 245  245 246  246 247  247 248  248 249  249 250  250 251  251 252  252 253  253 254  254 255  255 256  256 257  257 258  258 259  259 260  260 261  261 262  262 263  263 264  264 265  265 266  266 267  267 268  268 269  269 270  270 271  271 272  272 273  273 274  274 275  275 276  276 277  277 278  278 279  279 280  280 281  281 282  282 283  283 284  284 285  285 286  286 287  287 288  288 289  289 290  290 291  291 292  292 293  293 294  294 295  295 296  296 297  297 298  298 299  299 300  300 301  301 302  302 303  303 304  304 305  305 306  306 307  307 308  308 309  309 310  310 311  311 312  312 313  313 314  314 315  315 316  316 317  317 318  318 319  319 320  320 321  321 322  322 323  323 324  324 325  325 326  326 327  327 328  328 329  329 330  330 331  331 332  332 333  333 334  334 335  335 336  336 337  337 338  338 339  339 340  340 341  341 342  342 343  343 344  344 345  345 346  346 347  347 348  348 349  349 350  350 351  351 352  352 353  353 354  354 355  355 356  356 357  357 358  358 359  359 360  360 361  361 362  362 363  363 364  364 365  365 366  366 367  367 368  368 369  369 370  370 371  371 372  372 373  373 374  374 375  375 376  376 377  377 378  378 379  379 380  380 381  381 382  382 383  383 384  384 385  385 386  386 387  387 388  388 389  389 390  390 391  391 392  392 393  393 394  394 395  395 396  396 397  397 398  398 399  399 400  </DataArray>
<DataArray  type="UInt32"  Name="offsets"  format="ascii">2 4 6 8 10 12 14 16 18 20 22 24 26 28 30 32 34 36 38 40 42 44 46 48 50 52 54 56 58 60 62 64 66 68 70 72 74 76 78 80 82 84 86 88 90 92 94 96 98 100 102 104 106 108 110 112 114 116 118 120 122 124 126 128 130 132 134 136 138 140 142 144 146 148 150 152 154 156 158 160 162 164 166 168 170 172 174 176 178 180 182 184 186 188 190 192 194 196 198 200 202 204 206 208 210 212 214 216 218 220 222 224 226 228 230 232 234 236 238 240 242 244 246 248 250 252 254 256 258 260 262 264 266 268 270 272 274 276 278 280 282 284 286 288 290 292 294 296 298 300 302 304 306 308 310 312 314 316 318 320 322 324 326 328 330 332 334 336 338 340 342 344 346 348 350 352 354 356 358 360 362 364 366 368 370 372 374 376 378 380 382 384 386 388 390 392 394 396 398 400 402 404 406 408 410 412 414 416 418 420 422 424 426 428 430 432 434 436 438 440 442 444 446 448 450 452 454 456 458 460 462 464 466 468 470 472 474 476 478 480 482 484 486 488 490 492 494 496 498 500 502 504 506 508 510 512 514 516 518 520 522 524 526 528 530 532 534 536 538 540 542 544 546 548 550 552 554 556 558 560 562 564 566 568 570 572 574 576 578 580 582 584 586 588 590 592 594 596 598 600 602 604 606 608 610 612 614 616 618 620 622 624 626 628 630 632 634 636 638 640 642 644 646 648 650 652 654 656 658 660 662 664 666 668 670 672 674 676 678 680 682 684 686 688 690 692 694 696 698 700 702 704 706 708 710 712 714 716 718 720 722 724 726 728 730 732 734 736 738 740 742 744 746 748 750 752 754 756 758 760 762 764 766 768 770 772 774 776 778 780 782 784 786 788 790 792 794 796 798 800 </DataArray>
<DataArray  type="UInt8"  Name="types"  format="ascii">3 3 3 3 3 3 3 3 3 3 3 3 3 3 3 3 3 3 3 3 3 3 3 3 3 3 3 3 3 3 3 3 3 3 3 3 3 3 3 3 3 3 3 3 3 3 3 3 3 3 3 3 3 3 3 3 3 3 3 3 3 3 3 3 3 3 3 3 3 3 3 3 3 3 3 3 3 3 3 3 3 3 3 3 3 3 3 3 3 3 3 3 3 3 3 3 3 3 3 3 3 3 3 3 3 3 3 3 3 3 3 3 3 3 3 3 3 3 3 3 3 3 3 3 3 3 3 3 3 3 3 3 3 3 3 3 3 3 3 3 3 3 3 3 3 3 3 3 3 3 3 3 3 3 3 3 3 3 3 3 3 3 3 3 3 3 3 3 3 3 3 3 3 3 3 3 3 3 3 3 3 3 3 3 3 3 3 3 3 3 3 3 3 3 3 3 3 3 3 3 3 3 3 3 3 3 3 3 3 3 3 3 3 3 3 3 3 3 3 3 3 3 3 3 3 3 3 3 3 3 3 3 3 3 3 3 3 3 3 3 3 3 3 3 3 3 3 3 3 3 3 3 3 3 3 3 3 3 3 3 3 3 3 3 3 3 3 3 3 3 3 3 3 3 3 3 3 3 3 3 3 3 3 3 3 3 3 3 3 3 3 3 3 3 3 3 3 3 3 3 3 3 3 3 3 3 3 3 3 3 3 3 3 3 3 3 3 3 3 3 3 3 3 3 3 3 3 3 3 3 3 3 3 3 3 3 3 3 3 3 3 3 3 3 3 3 3 3 3 3 3 3 3 3 3 3 3 3 3 3 3 3 3 3 3 3 3 3 3 3 3 3 3 3 3 3 3 3 3 3 3 3 3 3 3 3 3 3 3 3 3 3 3 3 3 3 3 3 3 3 </DataArray>
</Cells>
<PointData  Vectors="(h, u)"> 
<DataArray  type="Float64"  Name="(h, u)"  NumberOfComponents="3" format="ascii">3.5000000000000031e-02 0.0000000000000000e+00 0.0000000000000000e+00  3.4999999999999878e-02 -8.0419533608605023e-16 0.0000000000000000e+00  3.5000000000000336e-02 5.8290240980919563e-15 0.0000000000000000e+00  3.4999999999998893e-02 -1.8827757795090565e-14 0.0000000000000000e+00  3.5000000000004181e-02 6.9161557231169512e-14 0.0000000000000000e+00  3.4999999999985161e-02 -2.4951171123080171e-13 0.0000000000000000e+00  3.5000000000052399e-02 8.7580353980170113e-13 0.0000000000000000e+00  3.4999999999818239e-02 -3.0385154963073338e-12 0.0000000000000000e+00  3.5000000000622769e-02 1.0384810792015040e-11 0.0000000000000000e+00  3.4999999997891530e-02 -3.5052426274895029e-11 0.0000000000000000e+00  3.5000000007064186e-02 1.1690766944824372e-10 0.0000000000000000e+00  3.4999999976557096e-02 -3.8541414821679474e-10 0.0000000000000000e+00  3.5000000077120015e-02 1.2558417095635690e-09 0.0000000000000000e+00  3.4999999748322790e-02 -4.0426051123799027e-09 0.0000000000000000e+00  3.5000000815372349e-02 1.2843970324518046e-08 0.0000000000000000e+00  3.4999997375567006e-02 -4.0214558316519210e-08 0.0000000000000000e+00  3.5000008399424382e-02 1.2379417974191186e-07 0.0000000000000000e+00  3.4999973245058505e-02 -3.7337009221668064e-07 0.0000000000000000e+00  3.5000084903627389e-02 1.0975713584865293e-06 0.0000000000000000e+00  3.4999731337346997e-02 -3.1195078841515801e-06 0.0000000000000000e+00  3.5000848158937517e-02 8.4607888011765190e-06 0.0000000000000000e+00  3.4997329616281367e-02 -2.1399952653007688e-05 0.0000000000000000e+00  3.5008366517302596e-02 4.8136186685316079e-05 0.0000000000000000e+00  3.4974061216511802e-02 -8.4900898342059328e-05 0.0000000000000000e+00  3.5078641333686177e-02 5.2564053596468985e-05 0.0000000000000000e+00  3.4772803578184866e-02 4.2428011855192915e-04 0.0000000000000000e+00  3.5592671306807468e-02 -2.6034453204210671e-03 0.0000000000000000e+00  3.3903575847325368e-02 5.4573978162690672e-03 0.0000000000000000e+00  3.5148659067216446e-02 -1.5333696165986789e-02 0.0000000000000000e+00  1.6718061334781098e-01 -2.4180030555607099e+00 0.0000000000000000e+00  2.7610528107775628e-01 -3.0557058696241244e+00 0.0000000000000000e+00  2.6616533640146822e-01 -3.0271467142286510e+00 0.0000000000000000e+00  2.8088420848732115e-01 -3.1175335797135020e+00 0.0000000000000000e+00  2.7516727248928718e-01 -3.0897552070684062e+00 0.0000000000000000e+00  2.7109485318433901e-01 -3.0717895798135935e+00 0.0000000000000000e+00  2.7089266234573117e-01 -3.0768024522074509e+00 0.0000000000000000e+00  2.6556055119947491e-01 -3.0510836253607199e+00 0.0000000000000000e+00  2.6370292312056604e-01 -3.0462406690145887e+00 0.0000000000000000e+00  2.6037021266630039e-01 -3.0325105447100378e+00 0.0000000000000000e+00  2.5717087324631616e-01 -3.0194845611413101e+00 0.0000000000000000e+00  2.5443056555402538e-01 -3.0093112791834229e+00 0.0000000000000000e+00  2.5121943293230231e-01 -2.9961847416175118e+00 0.0000000000000000e+00  2.4832149533961573e-01 -2.9849852909058168e+00 0.0000000000000000e+00  2.4532647994189641e-01 -2.9731668747162452e+00 0.0000000000000000e+00  2.4233767258091976e-01 -2.9613614671065731e+00 0.0000000000000000e+00  2.3940805291578640e-01 -2.9499171870089875e+00 0.0000000000000000e+00  2.3644911086660531e-01 -2.9382696869782143e+00 0.0000000000000000e+00  2.3352561225751201e-01 -2.9268332714892211e+00 0.0000000000000000e+00  2.3060847342128291e-01 -2.9154254057140943e+00 0.0000000000000000e+00  2.2770171302945863e-01 -2.9040727362768735e+00 0.0000000000000000e+00  2.2481203177544365e-01 -2.8928203139835196e+00 0.0000000000000000e+00  2.2193169585913777e-01 -2.8816210585534616e+00 0.0000000000000000e+00  2.1906554831552813e-01 -2.8705079813479699e+00 0.0000000000000000e+00  2.1621178792933532e-01 -2.8594712703930028e+00 0.0000000000000000e+00  2.1337035238960403e-01 -2.8485141251748320e+00 0.0000000000000000e+00  2.1054189232321444e-01 -2.8376417291805129e+00 0.0000000000000000e+00  2.0772578593847188e-01 -2.8268535141154487e+00 0.0000000000000000e+00  2.0492231110877887e-01 -2.8161540801826868e+00 0.0000000000000000e+00  2.0213137073756912e-01 -2.8055443630847567e+00 0.0000000000000000e+00  1.9935288800342438e-01 -2.7950284082672208e+00 0.0000000000000000e+00  1.9658685070912688e-01 -2.7846077161259153e+00 0.0000000000000000e+00  1.9383325753804737e-01 -2.7742858608126024e+00 0.0000000000000000e+00  1.9109194181502329e-01 -2.7640656283304743e+00 0.0000000000000000e+00  1.8836300250942350e-01 -2.7539495040664801e+00 0.0000000000000000e+00  1.8564625315425076e-01 -2.7439414938881610e+00 0.0000000000000000e+00  1.8294168509697628e-01 -2.7340439006225576e+00 0.0000000000000000e+00  1.8024928463877810e-01 -2.7242606494119608e+00 0.0000000000000000e+00  1.7756883083741803e-01 -2.7145950604364435e+00 0.0000000000000000e+00  1.7490046422721703e-01 -2.7050503934471548e+00 0.0000000000000000e+00  1.7224389131795459e-01 -2.6956308415774317e+00 0.0000000000000000e+00  1.6959919301250900e-01 -2.6863397870823458e+00 0.0000000000000000e+00  1.6696623125124938e-01 -2.6771812597441569e+00 0.0000000000000000e+00  1.6434485997233586e-01 -2.6681596579821933e+00 0.0000000000000000e+00  1.6173516500011717e-01 -2.6592784417998518e+00 0.0000000000000000e+00  1.5913683407218146e-01 -2.6505427823443881e+00 0.0000000000000000e+00  1.5655002206121710e-01 -2.6419563416074308e+00 0.0000000000000000e+00  1.5397447809744721e-01 -2.6335239203543463e+00 0.0000000000000000e+00  1.5141021356223172e-01 -2.6252503965921967e+00 0.0000000000000000e+00  1.4885721997201826e-01 -2.6171394135537334e+00 0.0000000000000000e+00  1.4631530524978684e-01 -2.6091970580405079e+00 0.0000000000000000e+00  1.4378469160146806e-01 -2.6014262063317006e+00 0.0000000000000000e+00  1.4126513997004653e-01 -2.5938328235125900e+00 0.0000000000000000e+00  1.3875694129748278e-01 -2.5864201441453134e+00 0.0000000000000000e+00  1.3626007229407641e-01 -2.5791921885664837e+00 0.0000000000000000e+00  1.3377475593721588e-01 -2.5721531070400281e+00 0.0000000000000000e+00  1.3130139079662717e-01 -2.5653037274768540e+00 0.0000000000000000e+00  1.2884018576763670e-01 -2.5586479700695275e+00 0.0000000000000000e+00  1.2639203816672598e-01 -2.5521830561265317e+00 0.0000000000000000e+00  1.2395744378082292e-01 -2.5459095173424093e+00 0.0000000000000000e+00  1.2153782523253670e-01 -2.5398204154888195e+00 0.0000000000000000e+00  1.1913447145283529e-01 -2.5339080277377581e+00 0.0000000000000000e+00  1.1674950579806030e-01 -2.5281586229509605e+00 0.0000000000000000e+00  1.1438568228478858e-01 -2.5225496253786126e+00 0.0000000000000000e+00  1.1204641062473607e-01 -2.5170532621751582e+00 0.0000000000000000e+00  1.0973683424941301e-01 -2.5116222582641941e+00 0.0000000000000000e+00  1.0746290847341897e-01 -2.5062001055124865e+00 0.0000000000000000e+00  1.0523350256907681e-01 -2.5006992111245823e+00 0.0000000000000000e+00  1.0305895468441394e-01 -2.4950124061455252e+00 0.0000000000000000e+00  1.0095308816848750e-01 -2.4889945925188890e+00 0.0000000000000000e+00  9.8931478892502048e-02 -2.4824739759442358e+00 0.0000000000000000e+00  9.7011654590979657e-02 -2.4752540581281304e+00 0.0000000000000000e+00  9.5211167604476468e-02 -2.4671271580433056e+00 0.0000000000000000e+00  9.3545239939442790e-02 -2.4579040538785470e+00 0.0000000000000000e+00  9.2025915982038881e-02 -2.4474209061378400e+00 0.0000000000000000e+00  9.0658795212823037e-02 -2.4355780820134787e+00 0.0000000000000000e+00  8.9445069879022371e-02 -2.4223222936498421e+00 0.0000000000000000e+00  8.8379110857927975e-02 -2.4076725672560237e+00 0.0000000000000000e+00  8.7452800783519691e-02 -2.3916810287173593e+00 0.0000000000000000e+00  8.6653877867845355e-02 -2.3744455019201527e+00 0.0000000000000000e+00  8.5970097523773714e-02 -2.3560726856042105e+00 0.0000000000000000e+00  8.5388080358279675e-02 -2.3366826461138483e+00 0.0000000000000000e+00  8.4895488428941776e-02 -2.3163919475589720e+00 0.0000000000000000e+00  8.4481008046694617e-02 -2.2953073554551202e+00 0.0000000000000000e+00  8.4133898719182920e-02 -2.2735337953447479e+00 0.0000000000000000e+00  8.3845852775090879e-02 -2.2511523398071862e+00 0.0000000000000000e+00  8.3607992228211386e-02 -2.2282507470594322e+00 0.0000000000000000e+00  8.3414755534919005e-02 -2.2048850569373055e+00 0.0000000000000000e+00  8.3258929884099511e-02 -2.1811266305118990e+00 0.0000000000000000e+00  8.3136986504671287e-02 -2.1570122627464694e+00 0.0000000000000000e+00  8.3043185168136219e-02 -2.1325987146262686e+00 0.0000000000000000e+00  8.2975230733944763e-02 -2.1079105062126930e+00 0.0000000000000000e+00  8.2928782371526288e-02 -2.0829908375043713e+00 0.0000000000000000e+00  8.2902061155380541e-02 -2.0578584657660111e+00 0.0000000000000000e+00  8.2892127160241413e-02 -2.0325432310464020e+00 0.0000000000000000e+00  8.2897162304344615e-02 -2.0070635348268904e+00 0.0000000000000000e+00  8.2915626821903635e-02 -1.9814356590867890e+00 0.0000000000000000e+00  8.2945302719362651e-02 -1.9556816902066616e+00 0.0000000000000000e+00  8.2985990071280699e-02 -1.9298042766823169e+00 0.0000000000000000e+00  8.3034893381269376e-02 -1.9038318261674341e+00 0.0000000000000000e+00  8.3093025002566989e-02 -1.8777537101181241e+00 0.0000000000000000e+00  8.3156979667830103e-02 -1.8516058835102953e+00 0.0000000000000000e+00  8.3228802658403586e-02 -1.8253655200161090e+00 0.0000000000000000e+00  8.3304526034657433e-02 -1.7990761146745549e+00 0.0000000000000000e+00  8.3387047809562367e-02 -1.7727043917774157e+00 0.0000000000000000e+00  8.3471921543044530e-02 -1.7463001537683849e+00 0.0000000000000000e+00  8.3562733198046565e-02 -1.7198222254249724e+00 0.0000000000000000e+00  8.3654602642669745e-02 -1.6933249321103228e+00 0.0000000000000000e+00  8.3751733843051748e-02 -1.6667616443425164e+00 0.0000000000000000e+00  8.3848828138644221e-02 -1.6401890116554196e+00 0.0000000000000000e+00  8.3950657504304346e-02 -1.6135576536526410e+00 0.0000000000000000e+00  8.4051405588305483e-02 -1.5869254562582609e+00 0.0000000000000000e+00  8.4156600581714147e-02 -1.5602401795145169e+00 0.0000000000000000e+00  8.4259733306794385e-02 -1.5335613039088867e+00 0.0000000000000000e+00  8.4367049108017136e-02 -1.5068350895490932e+00 0.0000000000000000e+00  8.4471369942422839e-02 -1.4801221278637524e+00 0.0000000000000000e+00  8.4579943054490694e-02 -1.4533635586025269e+00 0.0000000000000000e+00  8.4684407901218062e-02 -1.4266279198539173e+00 0.0000000000000000e+00  8.4792882312909726e-02 -1.3998506516677309e+00 0.0000000000000000e+00  8.4897481550612400e-02 -1.3730930193576329e+00 0.0000000000000000e+00  8.5004041765227786e-02 -1.3463155071533781e+00 0.0000000000000000e+00  8.5108466207159367e-02 -1.3195399880165390e+00 0.0000000000000000e+00  8.5212517593859755e-02 -1.2927677788639396e+00 0.0000000000000000e+00  8.5315277323281244e-02 -1.2659908721003754e+00 0.0000000000000000e+00  8.5416958011134692e-02 -1.2392222903837298e+00 0.0000000000000000e+00  8.5516678714833996e-02 -1.2124586096317354e+00 0.0000000000000000e+00  8.5615614442989790e-02 -1.1856982374690719e+00 0.0000000000000000e+00  8.5711601852334479e-02 -1.1589544385648718e+00 0.0000000000000000e+00  8.5807007132171223e-02 -1.1322118983903067e+00 0.0000000000000000e+00  8.5898788335733681e-02 -1.1054917822607875e+00 0.0000000000000000e+00  8.5989933064156920e-02 -1.0787765093913415e+00 0.0000000000000000e+00  8.6076964167886058e-02 -1.0520844906585076e+00 0.0000000000000000e+00  8.6163287847740300e-02 -1.0254042012216738e+00 0.0000000000000000e+00  8.6244987079998656e-02 -9.9874540733210448e-01 0.0000000000000000e+00  8.6326030532237794e-02 -9.7210645479202262e-01 0.0000000000000000e+00  8.6401879882155100e-02 -9.4548607776416171e-01 0.0000000000000000e+00  8.6477232847334884e-02 -9.1889363962557491e-01 0.0000000000000000e+00  8.6546837186937106e-02 -8.9231656785343860e-01 0.0000000000000000e+00  8.6616135272622838e-02 -8.6577439785442123e-01 0.0000000000000000e+00  8.6679245381226094e-02 -8.3924497285185895e-01 0.0000000000000000e+00  8.6742197819127967e-02 -8.1275502246355891e-01 0.0000000000000000e+00  8.6798716352618516e-02 -7.8627675173549449e-01 0.0000000000000000e+00  8.6855137458426393e-02 -7.5983903579408441e-01 0.0000000000000000e+00  8.6905167915907702e-02 -7.3341373760483197e-01 0.0000000000000000e+00  8.6954939598658687e-02 -7.0702720792167673e-01 0.0000000000000000e+00  8.6998846837086335e-02 -6.8065402240476569e-01 0.0000000000000000e+00  8.7042044750578973e-02 -6.5431581528210614e-01 0.0000000000000000e+00  8.7080185324432111e-02 -6.2799370636829743e-01 0.0000000000000000e+00  8.7117273580901378e-02 -6.0169753086985434e-01 0.0000000000000000e+00  8.7150184694261806e-02 -5.7542285017752437e-01 0.0000000000000000e+00  8.7181526145559310e-02 -5.4916428784872573e-01 0.0000000000000000e+00  8.7209909460864585e-02 -5.2293056625798506e-01 0.0000000000000000e+00  8.7236238629038593e-02 -4.9670186268752453e-01 0.0000000000000000e+00  8.7260647828118140e-02 -4.7050297422133230e-01 0.0000000000000000e+00  8.7282515734328353e-02 -4.4429875462027157e-01 0.0000000000000000e+00  8.7303561815687811e-02 -4.1812712333950036e-01 0.0000000000000000e+00  8.7321730617370322e-02 -3.9194020487395875e-01 0.0000000000000000e+00  8.7339889745097418e-02 -3.6578959012096307e-01 0.0000000000000000e+00  8.7354845909382237e-02 -3.3961611270043207e-01 0.0000000000000000e+00  8.7370400066968612e-02 -3.1348286140308707e-01 0.0000000000000000e+00  8.7382639582859328e-02 -2.8731887049494864e-01 0.0000000000000000e+00  8.7395925627746424e-02 -2.6119925553717688e-01 0.0000000000000000e+00  8.7405678154584693e-02 -2.3504263444917906e-01 0.0000000000000000e+00  8.7416944161727572e-02 -2.0893411480719093e-01 0.0000000000000000e+00  8.7423935100870126e-02 -1.8278650979429983e-01 0.0000000000000000e+00  8.7433633289180579e-02 -1.5668418314960370e-01 0.0000000000000000e+00  8.7437334850684945e-02 -1.3054883555080329e-01 0.0000000000000000e+00  8.7446090785765554e-02 -1.0444597991960212e-01 0.0000000000000000e+00  8.7446006936750961e-02 -7.8324547448785156e-02 0.0000000000000000e+00  8.7454021921778730e-02 -5.2218702955136073e-02 0.0000000000000000e+00  8.7450208569588628e-02 -2.6107478366304809e-02 0.0000000000000000e+00  8.7456782136863656e-02 3.6821995668726933e-15 0.0000000000000000e+00  8.7450208569588281e-02 2.6107478366295886e-02 0.0000000000000000e+00  8.7454021921779410e-02 5.2218702955145163e-02 0.0000000000000000e+00  8.7446006936749907e-02 7.8324547448775594e-02 0.0000000000000000e+00  8.7446090785765707e-02 1.0444597991961396e-01 0.0000000000000000e+00  8.7437334850684889e-02 1.3054883555078770e-01 0.0000000000000000e+00  8.7433633289180065e-02 1.5668418314961241e-01 0.0000000000000000e+00  8.7423935100870778e-02 1.8278650979429337e-01 0.0000000000000000e+00  8.7416944161726642e-02 2.0893411480719079e-01 0.0000000000000000e+00  8.7405678154585761e-02 2.3504263444918591e-01 0.0000000000000000e+00  8.7395925627745077e-02 2.6119925553716827e-01 0.0000000000000000e+00  8.7382639582860827e-02 2.8731887049496235e-01 0.0000000000000000e+00  8.7370400066967321e-02 3.1348286140306891e-01 0.0000000000000000e+00  8.7354845909383708e-02 3.3961611270045222e-01 0.0000000000000000e+00  8.7339889745095878e-02 3.6578959012094525e-01 0.0000000000000000e+00  8.7321730617371793e-02 3.9194020487397829e-01 0.0000000000000000e+00  8.7303561815686770e-02 4.1812712333948215e-01 0.0000000000000000e+00  8.7282515734329547e-02 4.4429875462028623e-01 0.0000000000000000e+00  8.7260647828117266e-02 4.7050297422132259e-01 0.0000000000000000e+00  8.7236238629038981e-02 4.9670186268753519e-01 0.0000000000000000e+00  8.7209909460864821e-02 5.2293056625797740e-01 0.0000000000000000e+00  8.7181526145558741e-02 5.4916428784873295e-01 0.0000000000000000e+00  8.7150184694262250e-02 5.7542285017752604e-01 0.0000000000000000e+00  8.7117273580900698e-02 6.0169753086985167e-01 0.0000000000000000e+00  8.7080185324433235e-02 6.2799370636830043e-01 0.0000000000000000e+00  8.7042044750577516e-02 6.5431581528210392e-01 0.0000000000000000e+00  8.6998846837087709e-02 6.8065402240476769e-01 0.0000000000000000e+00  8.6954939598657618e-02 7.0702720792167084e-01 0.0000000000000000e+00  8.6905167915908133e-02 7.3341373760483897e-01 0.0000000000000000e+00  8.6855137458426199e-02 7.5983903579407597e-01 0.0000000000000000e+00  8.6798716352618863e-02 7.8627675173549316e-01 0.0000000000000000e+00  8.6742197819127898e-02 8.1275502246356235e-01 0.0000000000000000e+00  8.6679245381225373e-02 8.3924497285185695e-01 0.0000000000000000e+00  8.6616135272623435e-02 8.6577439785442778e-01 0.0000000000000000e+00  8.6546837186936287e-02 8.9231656785343050e-01 0.0000000000000000e+00  8.6477232847335314e-02 9.1889363962558790e-01 0.0000000000000000e+00  8.6401879882154448e-02 9.4548607776415039e-01 0.0000000000000000e+00  8.6326030532238973e-02 9.7210645479202551e-01 0.0000000000000000e+00  8.6244987079998156e-02 9.9874540733209616e-01 0.0000000000000000e+00  8.6163287847740549e-02 1.0254042012216804e+00 0.0000000000000000e+00  8.6076964167885739e-02 1.0520844906585038e+00 0.0000000000000000e+00  8.5989933064156851e-02 1.0787765093913426e+00 0.0000000000000000e+00  8.5898788335733917e-02 1.1054917822607881e+00 0.0000000000000000e+00  8.5807007132170349e-02 1.1322118983903060e+00 0.0000000000000000e+00  8.5711601852335562e-02 1.1589544385648727e+00 0.0000000000000000e+00  8.5615614442988514e-02 1.1856982374690668e+00 0.0000000000000000e+00  8.5516678714835051e-02 1.2124586096317433e+00 0.0000000000000000e+00  8.5416958011133678e-02 1.2392222903837196e+00 0.0000000000000000e+00  8.5315277323282090e-02 1.2659908721003874e+00 0.0000000000000000e+00  8.5212517593858852e-02 1.2927677788639289e+00 0.0000000000000000e+00  8.5108466207159783e-02 1.3195399880165515e+00 0.0000000000000000e+00  8.5004041765227037e-02 1.3463155071533712e+00 0.0000000000000000e+00  8.4897481550612539e-02 1.3730930193576396e+00 0.0000000000000000e+00  8.4792882312909726e-02 1.3998506516677256e+00 0.0000000000000000e+00  8.4684407901217715e-02 1.4266279198539200e+00 0.0000000000000000e+00  8.4579943054491569e-02 1.4533635586025218e+00 0.0000000000000000e+00