<?xml version="1.0"?>
<VTKFile type="UnstructuredGrid"  version="0.1"  >
<UnstructuredGrid>
<Piece  NumberOfPoints="801" NumberOfCells="800">
<Points>
<DataArray  type="Float64"  NumberOfComponents="3"  format="ascii">-5 0 0  -4.9875 0 0  -4.975 0 0  -4.9625 0 0  -4.95 0 0  -4.9375 0 0  -4.925 0 0  -4.9125 0 0  -4.9 0 0  -4.8875 0 0  -4.875 0 0  -4.8625 0 0  -4.85 0 0  -4.8375 0 0  -4.825 0 0  -4.8125 0 0  -4.8 0 0  -4.7875 0 0  -4.775 0 0  -4.7625 0 0  -4.75 0 0  -4.7375 0 0  -4.725 0 0  -4.7125 0 0  -4.7 0 0  -4.6875 0 0  -4.675 0 0  -4.6625 0 0  -4.65 0 0  -4.6375 0 0  -4.625 0 0  -4.6125 0 0  -4.6 0 0  -4.5875 0 0  -4.575 0 0  -4.5625 0 0  -4.55 0 0  -4.5375 0 0  -4.525 0 0  -4.5125 0 0  -4.5 0 0  -4.4875 0 0  -4.475 0 0  -4.4625 0 0  -4.45 0 0  -4.4375 0 0  -4.425 0 0  -4.4125 0 0  -4.4 0 0  -4.3875 0 0  -4.375 0 0  -4.3625 0 0  -4.35 0 0  -4.3375 0 0  -4.325 0 0  -4.3125 0 0  -4.3 0 0  -4.2875 0 0  -4.275 0 0  -4.2625 0 0  -4.25 0 0  -4.2375 0 0  -4.225 0 0  -4.2125 0 0  -4.2 0 0  -4.1875 0 0  -4.175 0 0  -4.1625 0 0  -4.15 0 0  -4.1375 0 0  -4.125 0 0  -4.1125 0 0  -4.1 0 0  -4.0875 0 0  -4.075 0 0  -4.0625 0 0  -4.05 0 0  -4.0375 0 0  -4.025 0 0  -4.0125 0 0  -4 0 0  -3.9875 0 0  -3.975 0 0  -3.9625 0 0  -3.95 0 0  -3.9375 0 0  -3.925 0 0  -3.9125 0 0  -3.9 0 0  -3.8875 0 0  -3.875 0 0  -3.8625 0 0  -3.85 0 0  -3.8375 0 0  -3.825 0 0  -3.8125 0 0  -3.8 0 0  -3.7875 0 0  -3.775 0 0  -3.7625 0 0  -3.75 0 0  -3.7375 0 0  -3.725 0 0  -3.7125 0 0  -3.7 0 0  -3.6875 0 0  -3.675 0 0  -3.6625 0 0  -3.65 0 0  -3.6375 0 0  -3.625 0 0  -3.6125 0 0  -3.6 0 0  -3.5875 0 0  -3.575 0 0  -3.5625 0 0  -3.55 0 0  -3.5375 0 0  -3.525 0 0  -3.5125 0 0  -3.5 0 0  -3.4875 0 0  -3.475 0 0  -3.4625 0 0  -3.45 0 0  -3.4375 0 0  -3.425 0 0  -3.4125 0 0  -3.4 0 0  -3.3875 0 0  -3.375 0 0  -3.3625 0 0  -3.35 0 0  -3.3375 0 0  -3.325 0 0  -3.3125 0 0  -3.3 0 0  -3.2875 0 0  -3.275 0 0  -3.2625 0 0  -3.25 0 0  -3.2375 0 0  -3.225 0 0  -3.2125 0 0  -3.2 0 0  -3.1875 0 0  -3.175 0 0  -3.1625 0 0  -3.15 0 0  -3.1375 0 0  -3.125 0 0  -3.1125 0 0  -3.1 0 0  -3.0875 0 0  -3.075 0 0  -3.0625 0 0  -3.05 0 0  -3.0375 0 0  -3.025 0 0  -3.0125 0 0  -3 0 0  -2.9875 0 0  -2.975 0 0  -2.9625 0 0  -2.95 0 0  -2.9375 0 0  -2.925 0 0  -2.9125 0 0  -2.9 0 0  -2.8875 0 0  -2.875 0 0  -2.8625 0 0  -2.85 0 0  -2.8375 0 0  -2.825 0 0  -2.8125 0 0  -2.8 0 0  -2.7875 0 0  -2.775 0 0  -2.7625 0 0  -2.75 0 0  -2.7375 0 0  -2.725 0 0  -2.7125 0 0  -2.7 0 0  -2.6875 0 0  -2.675 0 0  -2.6625 0 0  -2.65 0 0  -2.6375 0 0  -2.625 0 0  -2.6125 0 0  -2.6 0 0  -2.5875 0 0  -2.575 0 0  -2.5625 0 0  -2.55 0 0  -2.5375 0 0  -2.525 0 0  -2.5125 0 0  -2.5 0 0  -2.4875 0 0  -2.475 0 0  -2.4625 0 0  -2.45 0 0  -2.4375 0 0  -2.425 0 0  -2.4125 0 0  -2.4 0 0  -2.3875 0 0  -2.375 0 0  -2.3625 0 0  -2.35 0 0  -2.3375 0 0  -2.325 0 0  -2.3125 0 0  -2.3 0 0  -2.2875 0 0  -2.275 0 0  -2.2625 0 0  -2.25 0 0  -2.2375 0 0  -2.225 0 0  -2.2125 0 0  -2.2 0 0  -2.1875 0 0  -2.175 0 0  -2.1625 0 0  -2.15 0 0  -2.1375 0 0  -2.125 0 0  -2.1125 0 0  -2.1 0 0  -2.0875 0 0  -2.075 0 0  -2.0625 0 0  -2.05 0 0  -2.0375 0 0  -2.025 0 0  -2.0125 0 0  -2 0 0  -1.9875 0 0  -1.975 0 0  -1.9625 0 0  -1.95 0 0  -1.9375 0 0  -1.925 0 0  -1.9125 0 0  -1.9 0 0  -1.8875 0 0  -1.875 0 0  -1.8625 0 0  -1.85 0 0  -1.8375 0 0  -1.825 0 0  -1.8125 0 0  -1.8 0 0  -1.7875 0 0  -1.775 0 0  -1.7625 0 0  -1.75 0 0  -1.7375 0 0  -1.725 0 0  -1.7125 0 0  -1.7 0 0  -1.6875 0 0  -1.675 0 0  -1.6625 0 0  -1.65 0 0  -1.6375 0 0  -1.625 0 0  -1.6125 0 0  -1.6 0 0  -1.5875 0 0  -1.575 0 0  -1.5625 0 0  -1.55 0 0  -1.5375 0 0  -1.525 0 0  -1.5125 0 0  -1.5 0 0  -1.4875 0 0  -1.475 0 0  -1.4625 0 0  -1.45 0 0  -1.4375 0 0  -1.425 0 0  -1.4125 0 0  -1.4 0 0  -1.3875 0 0  -1.375 0 0  -1.3625 0 0  -1.35 0 0  -1.3375 0 0  -1.325 0 0  -1.3125 0 0  -1.3 0 0  -1.2875 0 0  -1.275 0 0  -1.2625 0 0  -1.25 0 0  -1.2375 0 0  -1.225 0 0  -1.2125 0 0  -1.2 0 0  -1.1875 0 0  -1.175 0 0  -1.1625 0 0  -1.15 0 0  -1.1375 0 0  -1.125 0 0  -1.1125 0 0  -1.1 0 0  -1.0875 0 0  -1.075 0 0  -1.0625 0 0  -1.05 0 0  -1.0375 0 0  -1.025 0 0  -1.0125 0 0  -1 0 0  -0.9874999999999998 0 0  -0.9749999999999996 0 0  -0.9625000000000004 0 0  -0.9500000000000002 0 0  -0.9375 0 0  -0.9249999999999998 0 0  -0.9124999999999996 0 0  -0.9000000000000004 0 0  -0.8875000000000002 0 0  -0.875 0 0  -0.8624999999999998 0 0  -0.8499999999999996 0 0  -0.8375000000000004 0 0  -0.8250000000000002 0 0  -0.8125 0 0  -0.7999999999999998 0 0  -0.7874999999999996 0 0  -0.7750000000000004 0 0  -0.7625000000000002 0 0  -0.75 0 0  -0.7374999999999998 0 0  -0.7249999999999996 0 0  -0.7125000000000004 0 0  -0.7000000000000002 0 0  -0.6875 0 0  -0.6749999999999998 0 0  -0.6624999999999996 0 0  -0.6500000000000004 0 0  -0.6375000000000002 0 0  -0.625 0 0  -0.6124999999999998 0 0  -0.5999999999999996 0 0  -0.5875000000000004 0 0  -0.5750000000000002 0 0  -0.5625 0 0  -0.5499999999999998 0 0  -0.5374999999999996 0 0  -0.5250000000000004 0 0  -0.5125000000000002 0 0  -0.5 0 0  -0.4874999999999998 0 0  -0.4749999999999996 0 0  -0.4625000000000004 0 0  -0.4500000000000002 0 0  -0.4375 0 0  -0.4249999999999998 0 0  -0.4124999999999996 0 0  -0.4000000000000004 0 0  -0.3875000000000002 0 0  -0.375 0 0  -0.3624999999999998 0 0  -0.3499999999999996 0 0  -0.3375000000000004 0 0  -0.3250000000000002 0 0  -0.3125 0 0  -0.2999999999999998 0 0  -0.2874999999999996 0 0  -0.2750000000000004 0 0  -0.2625000000000002 0 0  -0.25 0 0  -0.2374999999999998 0 0  -0.2249999999999996 0 0  -0.2125000000000004 0 0  -0.2000000000000002 0 0  -0.1875 0 0  -0.1749999999999998 0 0  -0.1624999999999996 0 0  -0.1500000000000004 0 0  -0.1375000000000002 0 0  -0.125 0 0  -0.1124999999999998 0 0  -0.09999999999999964 0 0  -0.08750000000000036 0 0  -0.07500000000000018 0 0  -0.0625 0 0  -0.04999999999999982 0 0  -0.03749999999999964 0 0  -0.02500000000000036 0 0  -0.01250000000000018 0 0  0 0 0  0.01250000000000018 0 0  0.02500000000000036 0 0  0.03749999999999964 0 0  0.04999999999999982 0 0  0.0625 0 0  0.07500000000000018 0 0  0.08750000000000036 0 0  0.09999999999999964 0 0  0.1124999999999998 0 0  0.125 0 0  0.1375000000000002 0 0  0.1500000000000004 0 0  0.1624999999999996 0 0  0.1749999999999998 0 0  0.1875 0 0  0.2000000000000002 0 0  0.2125000000000004 0 0  0.2249999999999996 0 0  0.2374999999999998 0 0  0.25 0 0  0.2625000000000002 0 0  0.2750000000000004 0 0  0.2874999999999996 0 0  0.2999999999999998 0 0  0.3125 0 0  0.3250000000000002 0 0  0.3375000000000004 0 0  0.3499999999999996 0 0  0.3624999999999998 0 0  0.375 0 0  0.3875000000000002 0 0  0.4000000000000004 0 0  0.4124999999999996 0 0  0.4249999999999998 0 0  0.4375 0 0  0.4500000000000002 0 0  0.4625000000000004 0 0  0.4749999999999996 0 0  0.4874999999999998 0 0  0.5 0 0  0.5125000000000002 0 0  0.5250000000000004 0 0  0.5374999999999996 0 0  0.5499999999999998 0 0  0.5625 0 0  0.5750000000000002 0 0  0.5875000000000004 0 0  0.5999999999999996 0 0  0.6124999999999998 0 0  0.625 0 0  0.6375000000000002 0 0  0.6500000000000004 0 0  0.6624999999999996 0 0  0.6749999999999998 0 0  0.6875 0 0  0.7000000000000002 0 0  0.7125000000000004 0 0  0.7249999999999996 0 0  0.7374999999999998 0 0  0.75 0 0  0.7625000000000002 0 0  0.7750000000000004 0 0  0.7874999999999996 0 0  0.7999999999999998 0 0  0.8125 0 0  0.8250000000000002 0 0  0.8375000000000004 0 0  0.8499999999999996 0 0  0.8624999999999998 0 0  0.875 0 0  0.8875000000000002 0 0  0.9000000000000004 0 0  0.9124999999999996 0 0  0.9249999999999998 0 0  0.9375 0 0  0.9500000000000002 0 0  0.9625000000000004 0 0  0.9749999999999996 0 0  0.9874999999999998 0 0  1 0 0  1.0125 0 0  1.025 0 0  1.0375 0 0  1.05 0 0  1.0625 0 0  1.075 0 0  1.0875 0 0  1.1 0 0  1.1125 0 0  1.125 0 0  1.1375 0 0  1.15 0 0  1.1625 0 0  1.175 0 0  1.1875 0 0  1.2 0 0  1.2125 0 0  1.225 0 0  1.2375 0 0  1.25 0 0  1.2625 0 0  1.275 0 0  1.2875 0 0  1.3 0 0  1.3125 0 0  1.325 0 0  1.3375 0 0  1.35 0 0  1.3625 0 0  1.375 0 0  1.3875 0 0  1.4 0 0  1.4125 0 0  1.425 0 0  1.4375 0 0  1.45 0 0  1.4625 0 0  1.475 0 0  1.4875 0 0  1.5 0 0  1.5125 0 0  1.525 0 0  1.5375 0 0  1.55 0 0  1.5625 0 0  1.575 0 0  1.5875 0 0  1.6 0 0  1.6125 0 0  1.625 0 0  1.6375 0 0  1.65 0 0  1.6625 0 0  1.675 0 0  1.6875 0 0  1.7 0 0  1.7125 0 0  1.725 0 0  1.7375 0 0  1.75 0 0  1.7625 0 0  1.775 0 0  1.7875 0 0  1.8 0 0  1.8125 0 0  1.825 0 0  1.8375 0 0  1.85 0 0  1.8625 0 0  1.875 0 0  1.8875 0 0  1.9 0 0  1.9125 0 0  1.925 0 0  1.9375 0 0  1.95 0 0  1.9625 0 0  1.975 0 0  1.9875 0 0  2 0 0  2.0125 0 0  2.025 0 0  2.0375 0 0  2.05 0 0  2.0625 0 0  2.075 0 0  2.0875 0 0  2.1 0 0  2.1125 0 0  2.125 0 0  2.1375 0 0  2.15 0 0  2.1625 0 0  2.175 0 0  2.1875 0 0  2.2 0 0  2.2125 0 0  2.225 0 0  2.2375 0 0  2.25 0 0  2.2625 0 0  2.275 0 0  2.2875 0 0  2.3 0 0  2.3125 0 0  2.325 0 0  2.3375 0 0  2.35 0 0  2.3625 0 0  2.375 0 0  2.3875 0 0  2.4 0 0  2.4125 0 0  2.425 0 0  2.4375 0 0  2.45 0 0  2.4625 0 0  2.475 0 0  2.4875 0 0  2.5 0 0  2.5125 0 0  2.525 0 0  2.5375 0 0  2.55 0 0  2.5625 0 0  2.575 0 0  2.5875 0 0  2.6 0 0  2.6125 0 0  2.625 0 0  2.6375 0 0  2.65 0 0  2.6625 0 0  2.675 0 0  2.6875 0 0  2.7 0 0  2.7125 0 0  2.725 0 0  2.7375 0 0  2.75 0 0  2.7625 0 0  2.775 0 0  2.7875 0 0  2.8 0 0  2.8125 0 0  2.825 0 0  2.8375 0 0  2.85 0 0  2.8625 0 0  2.875 0 0  2.8875 0 0  2.9 0 0  2.9125 0 0  2.925 0 0  2.9375 0 0  2.95 0 0  2.9625 0 0  2.975 0 0  2.9875 0 0  3 0 0  3.012499999999999 0 0  3.025 0 0  3.0375 0 0  3.050000000000001 0 0  3.0625 0 0  3.074999999999999 0 0  3.0875 0 0  3.1 0 0  3.112500000000001 0 0  3.125 0 0  3.137499999999999 0 0  3.15 0 0  3.1625 0 0  3.175000000000001 0 0  3.1875 0 0  3.199999999999999 0 0  3.2125 0 0  3.225 0 0  3.237500000000001 0 0  3.25 0 0  3.262499999999999 0 0  3.275 0 0  3.2875 0 0  3.300000000000001 0 0  3.3125 0 0  3.324999999999999 0 0  3.3375 0 0  3.35 0 0  3.362500000000001 0 0  3.375 0 0  3.387499999999999 0 0  3.4 0 0  3.4125 0 0  3.425000000000001 0 0  3.4375 0 0  3.449999999999999 0 0  3.4625 0 0  3.475 0 0  3.4875
[...]
<PointData  Vectors="(h, u)"> 
<DataArray  type="Float64"  Name="(h, u)"  NumberOfComponents="3" format="ascii">2.3024804111698377e-01 0.0000000000000000e+00 0.0000000000000000e+00  2.3004985782495421e-01 6.6772892211514490e-03 0.0000000000000000e+00  2.3024544785434836e-01 1.3363404213774216e-02 0.0000000000000000e+00  2.3004490012592121e-01 2.0032043950349705e-02 0.0000000000000000e+00  2.3023766961776052e-01 2.6727377568949159e-02 0.0000000000000000e+00  2.3003497842397239e-01 3.3387341401424207e-02 0.0000000000000000e+00  2.3022470961957919e-01 4.0092471787083472e-02 0.0000000000000000e+00  2.3002008225800288e-01 4.6743586819842003e-02 0.0000000000000000e+00  2.3020656904632678e-01 5.3459208194803223e-02 0.0000000000000000e+00  2.3000020030025253e-01 6.0101241213983143e-02 0.0000000000000000e+00  2.3018324277734958e-01 6.6828072761461604e-02 0.0000000000000000e+00  2.2997532323358819e-01 7.3460826141087412e-02 0.0000000000000000e+00  2.3015471649372427e-01 8.0199521017594214e-02 0.0000000000000000e+00  2.2994544479742060e-01 8.6822914118358019e-02 0.0000000000000000e+00  2.3012096667922571e-01 9.3573992390014238e-02 0.0000000000000000e+00  2.2991056034893684e-01 1.0018810537390928e-01 0.0000000000000000e+00  2.3008196390339225e-01 1.0695193095393520e-01 0.0000000000000000e+00  2.2987066333367653e-01 1.1355699523303189e-01 0.0000000000000000e+00  2.3003767846501583e-01 1.2033380752672806e-01 0.0000000000000000e+00  2.2982574093415353e-01 1.2693013988448223e-01 0.0000000000000000e+00  2.2998808645599553e-01 1.3372013715497588e-01 0.0000000000000000e+00  2.2977577050392950e-01 1.4030803043477097e-01 0.0000000000000000e+00  2.2993317395282298e-01 1.4711148689558637e-01 0.0000000000000000e+00  2.2972071808454192e-01 1.5369108485117022e-01 0.0000000000000000e+00  2.2987293749290136e-01 1.6050847129818616e-01 0.0000000000000000e+00  2.2966053951945450e-01 1.6707966389736181e-01 0.0000000000000000e+00  2.2980738011795107e-01 1.7391173640140672e-01 0.0000000000000000e+00  2.2959518378354687e-01 1.8047411074907208e-01 0.0000000000000000e+00  2.2973650373037358e-01 1.8732193613266110e-01 0.0000000000000000e+00  2.2952459751451690e-01 1.9387480607552346e-01 0.0000000000000000e+00  2.2966029987279787e-01 2.0073970655586856e-01 0.0000000000000000e+00  2.2944872957364223e-01 2.0728222343379701e-01 0.0000000000000000e+00  2.2957874185295096e-01 2.1416564308364758e-01 0.0000000000000000e+00  2.2936753470827131e-01 2.2069696680055648e-01 0.0000000000000000e+00  2.2949178103779716e-01 2.2760028434527826e-01 0.0000000000000000e+00  2.2928097576482920e-01 2.3411977518216759e-01 0.0000000000000000e+00  2.2939934901412143e-01 2.4104410527360537e-01 0.0000000000000000e+00  2.2918902409961056e-01 2.4755148887267969e-01 0.0000000000000000e+00  2.2930136534937542e-01 2.5449752237688866e-01 0.0000000000000000e+00  2.2909165771260109e-01 2.6099298586741426e-01 0.0000000000000000e+00  2.2919774848303795e-01 2.6796091571184416e-01 0.0000000000000000e+00  2.2898885643805397e-01 2.7444510992637794e-01 0.0000000000000000e+00  2.2908842577574862e-01 2.8143467209360307e-01 0.0000000000000000e+00  2.2888059379489364e-01 2.8790861728792672e-01 0.0000000000000000e+00  2.2897333882811213e-01 2.9491924924054291e-01 0.0000000000000000e+00  2.2876682630158088e-01 3.0138416226108272e-01 0.0000000000000000e+00  2.2885244224610987e-01 3.0841524917630087e-01 0.0000000000000000e+00  2.2864748311733188e-01 3.1487232334403031e-01 0.0000000000000000e+00  2.2872569734937531e-01 3.2192347525172110e-01 0.0000000000000000e+00  2.2852246065296100e-01 3.2837365004211089e-01 0.0000000000000000e+00  2.2859306507889926e-01 3.3544494034373373e-01 0.0000000000000000e+00  2.2839162670741536e-01 3.4188869915269315e-01 0.0000000000000000e+00  2.2845450263041978e-01 3.4898080397765396e-01 0.0000000000000000e+00  2.2825483543415231e-01 3.5541803928967375e-01 0.0000000000000000e+00  2.2830996493507263e-01 3.6253224832421599e-01 0.0000000000000000e+00  2.2811194837043372e-01 3.6896223405477580e-01 0.0000000000000000e+00  2.2815940672428794e-01 3.7610034411928323e-01 0.0000000000000000e+00  2.2796285149072071e-01 3.8252184540511580e-01 0.0000000000000000e+00  2.2800277788311646e-01 3.8968597821649159e-01 0.0000000000000000e+00  2.2780745819705470e-01 3.9609750083492307e-01 0.0000000000000000e+00  2.2784000794754264e-01 4.0328988978382252e-01 0.0000000000000000e+00  2.2764569599587930e-01 4.0969002279270955e-01 0.0000000000000000e+00  2.2767098545293846e-01 4.1691278984443603e-01 0.0000000000000000e+00  2.2747748677560509e-01 4.2330054798900885e-01 0.0000000000000000e+00  2.2749554693923374e-01 4.3055546954813956e-01 0.0000000000000000e+00  2.2730273723880692e-01 4.3693053050803943e-01 0.0000000000000000e+00  2.2731348998630121e-01 4.4421879578789147e-01 0.0000000000000000e+00  2.2712134997326783e-01 4.5058157115656872e-01 0.0000000000000000e+00  2.2712460931778244e-01 4.5790358565447986e-01 0.0000000000000000e+00  2.2693324463366099e-01 4.6425515954681729e-01 0.0000000000000000e+00  2.2692873162511870e-01 4.7161050016987999e-01 0.0000000000000000e+00  2.2673836187509699e-01 4.7795252874660338e-01 0.0000000000000000e+00  2.2672571948371933e-01 4.8534013163556750e-01 0.0000000000000000e+00  2.2653663101573041e-01 4.9167476692017648e-01 0.0000000000000000e+00  2.2651543667449714e-01 4.9909331753831870e-01 0.0000000000000000e+00  2.2632791660111609e-01 5.0542310180698924e-01 0.0000000000000000e+00  2.2629771017776948e-01 5.1287143691561743e-01 0.0000000000000000e+00  2.2611199521901076e-01 5.1919902971352327e-01 0.0000000000000000e+00  2.2607233709642549e-01 5.2667636617715108e-01 0.0000000000000000e+00  2.2588859354926069e-01 5.3300408704914903e-01 0.0000000000000000e+00  2.2583914185896845e-01 5.4051006033296456e-01 0.0000000000000000e+00  2.2565746370267606e-01 5.4683941675911651e-01 0.0000000000000000e+00  2.2559802782020782e-01 5.5437413496062149e-01 0.0000000000000000e+00  2.2541840921097289e-01 5.6070568958503553e-01 0.0000000000000000e+00  2.2534893630649463e-01 5.6827003421432210e-01 0.0000000000000000e+00  2.2517121505949553e-01 5.7460367368401521e-01 0.0000000000000000e+00  2.2509173734331486e-01 5.8219964091498666e-01 0.0000000000000000e+00  2.2491555935891933e-01 5.8853492660860030e-01 0.0000000000000000e+00  2.2482616094569458e-01 5.9616562652431448e-01 0.0000000000000000e+00  2.2465103138879283e-01 6.0250177251474535e-01 0.0000000000000000e+00  2.2455189179381688e-01 6.1017074318908870e-01 0.0000000000000000e+00  2.2437729703797235e-01 6.1650628102852711e-01 0.0000000000000000e+00  2.2426871054877848e-01 6.2421683660298199e-01 0.0000000000000000e+00  2.2409416854601000e-01 6.3054984440498685e-01 0.0000000000000000e+00  2.2397646358165998e-01 6.3830502600453687e-01 0.0000000000000000e+00  2.2380148331769653e-01 6.4463398069581113e-01 0.0000000000000000e+00  2.2367485445233215e-01 6.5243709839966013e-01 0.0000000000000000e+00  2.2349886050733886e-01 6.5876191309516496e-01 0.0000000000000000e+00  2.2336332010141538e-01 6.6661637576246635e-01 0.0000000000000000e+00  2.2318580209731442e-01 6.7293784306558180e-01 0.0000000000000000e+00  2.2304131663618815e-01 6.8084589605479851e-01 0.0000000000000000e+00  2.2286196410560255e-01 6.8716507595369625e-01 0.0000000000000000e+00  2.2270851206837319e-01 6.9512722218991030e-01 0.0000000000000000e+00  2.2252724708420865e-01 7.0144533117200514e-01 0.0000000000000000e+00  2.2236468767382112e-01 7.0946118545261272e-01 0.0000000000000000e+00  2.2218132948497268e-01 7.1578174903121117e-01 0.0000000000000000e+00  2.2200914322880347e-01 7.2385191751258360e-01 0.0000000000000000e+00  2.2182346117308144e-01 7.3018018582644439e-01 0.0000000000000000e+00  2.2164107160738880e-01 7.3830443895056852e-01 0.0000000000000000e+00  2.2145295169383167e-01 7.4464591365886834e-01 0.0000000000000000e+00  2.2125989755491465e-01 7.5282246033680100e-01 0.0000000000000000e+00  2.2106959561090939e-01 7.5918075171476940e-01 0.0000000000000000e+00  2.2086562891548875e-01 7.6740607047397846e-01 0.0000000000000000e+00  2.2067304391522777e-01 7.7378723403158078e-01 0.0000000000000000e+00  2.2045731723721534e-01 7.8206198532771687e-01 0.0000000000000000e+00  2.2026207574701429e-01 7.8847347438937976e-01 0.0000000000000000e+00  2.2003396942042386e-01 7.9679746380132166e-01 0.0000000000000000e+00  2.1983559591122026e-01 8.0324656059820454e-01 0.0000000000000000e+00  2.1959470327892353e-01 8.1161923239822964e-01 0.0000000000000000e+00  2.1939346728848391e-01 8.1810704144430269e-01 0.0000000000000000e+00  2.1914007251396242e-01 8.2652457940220980e-01 0.0000000000000000e+00  2.1893501298826409e-01 8.3305899102577774e-01 0.0000000000000000e+00  2.1866806249825821e-01 8.4152804565766137e-01 0.0000000000000000e+00  2.1845841936141711e-01 8.4811407330556821e-01 0.0000000000000000e+00  2.1817787156059290e-01 8.5663609567966226e-01 0.0000000000000000e+00  2.1796222211719685e-01 8.6328168593918342e-01 0.0000000000000000e+00  2.1766840196256970e-01 8.7185714615975896e-01 0.0000000000000000e+00  2.1744765653801068e-01 8.7855323824074461e-01 0.0000000000000000e+00  2.1714084670301731e-01 8.8718417011912498e-01 0.0000000000000000e+00  2.1691142896894711e-01 8.9395070395519527e-01 0.0000000000000000e+00  2.1659092884663059e-01 9.0264673544091012e-01 0.0000000000000000e+00  2.1635357862645624e-01 9.0947387973850213e-01 0.0000000000000000e+00  2.1601919220888541e-01 9.1824190576802722e-01 0.0000000000000000e+00  2.1577150342181123e-01 9.2514057327374188e-01 0.0000000000000000e+00  2.1542688838805960e-01 9.3396177844884642e-01 0.0000000000000000e+00  2.1517020055212674e-01 9.4091761672969698e-01 0.0000000000000000e+00  2.1480947947400156e-01 9.4983735971955763e-01 0.0000000000000000e+00  2.1453989927398781e-01 9.5687167029686204e-01 0.0000000000000000e+00  2.1417069923641191e-01 9.6584367480800826e-01 0.0000000000000000e+00  2.1388938377682506e-01 9.7294433489781773e-01 0.0000000000000000e+00  2.1350587922091599e-01 9.8201244881457928e-01 0.0000000000000000e+00  2.1321893704573441e-01 9.8913469344331162e-01 0.0000000000000000e+00  2.1282753234307261e-01 9.9825895518887209e-01 0.0000000000000000e+00  2.1252082579227632e-01 1.0054964015440904e+00 0.0000000000000000e+00  2.1211994765066916e-01 1.0146896942870007e+00 0.0000000000000000e+00  2.1181924568970895e-01 1.0218662792619151e+00 0.0000000000000000e+00  2.1140655500058236e-01 1.0311454648788270e+00 0.0000000000000000e+00  2.1109500608526033e-01 1.0383759283495066e+00 0.0000000000000000e+00  2.1069174757173262e-01 1.0475959374997263e+00 0.0000000000000000e+00  2.1037872314579234e-01 1.0548177926490829e+00 0.0000000000000000e+00  2.0995399853241567e-01 1.0641877739456180e+00 0.0000000000000000e+00  2.0967620628873096e-01 1.0711525959823276e+00 0.0000000000000000e+00  2.0926580688000265e-01 1.0804254048878048e+00 0.0000000000000000e+00  2.0896891495465525e-01 1.0875077487380409e+00 0.0000000000000000e+00  2.0857717289695035e-01 1.0966499384278248e+00 0.0000000000000000e+00  2.0833418978139451e-01 1.1033535044084424e+00 0.0000000000000000e+00  2.0790263735823708e-01 1.1127617896944306e+00 0.0000000000000000e+00  2.0772799774154607e-01 1.1189910517602450e+00 0.0000000000000000e+00  2.0732846229111115e-01 1.1281679966065497e+00 0.0000000000000000e+00  2.0711667595774891e-01 1.1346519725574133e+00 0.0000000000000000e+00  2.0676997486623372e-01 1.1434492842639081e+00 0.0000000000000000e+00  2.0665860177092787e-01 1.1492458674491339e+00 0.0000000000000000e+00  2.0619378054411999e-01 1.1588364368366479e+00 0.0000000000000000e+00  2.0623765333679611e-01 1.1635706156102184e+00 0.0000000000000000e+00  2.0573090437131025e-01 1.1734265035263998e+00 0.0000000000000000e+00  2.0576927717066440e-01 1.1782097218615564e+00 0.0000000000000000e+00  2.0541062837850002e-01 1.1870158818888579e+00 0.0000000000000000e+00  2.0532535823888096e-01 1.1926676990552325e+00 0.0000000000000000e+00  2.0502185409083354e-01 1.2010623610256270e+00 0.0000000000000000e+00  2.0509154660782958e-01 1.2056599748174965e+00 0.0000000000000000e+00  2.0453438101345872e-01 1.2157773066920252e+00 0.0000000000000000e+00  2.0496945471050193e-01 1.2178644593806371e+00 0.0000000000000000e+00  2.0402258039563334e-01 1.2306480179901906e+00 0.0000000000000000e+00  2.0489695136521757e-01 1.2297101130482624e+00 0.0000000000000000e+00  2.0359202765440132e-01 1.2449442826458446e+00 0.0000000000000000e+00  2.0473514750325680e-01 1.2421591485424472e+00 0.0000000000000000e+00  2.0328606125526594e-01 1.2583650975995362e+00 0.0000000000000000e+00  2.0454929370420530e-01 1.2547602976482439e+00 0.0000000000000000e+00  2.0302397343795675e-01 1.2714698424793534e+00 0.0000000000000000e+00  2.0433039979931622e-01 1.2675759294523334e+00 0.0000000000000000e+00  2.0285043793521043e-01 1.2839484153224932e+00 0.0000000000000000e+00  2.0408642461938098e-01 1.2805513135467654e+00 0.0000000000000000e+00  2.0268008319816727e-01 1.2963934032898379e+00 0.0000000000000000e+00  2.0388475589368418e-01 1.2932186137137027e+00 0.0000000000000000e+00  2.0252332272802862e-01 1.3087330559200925e+00 0.0000000000000000e+00  2.0365752918282060e-01 1.3060490573307217e+00 0.0000000000000000e+00  2.0241522877097007e-01 1.3207234876881302e+00 0.0000000000000000e+00  2.0343899699299836e-01 1.3188052421471490e+00 0.0000000000000000e+00  2.0228248832867232e-01 1.3328744746491406e+00 0.0000000000000000e+00  2.0326270515251985e-01 1.3312537514254557e+00 0.0000000000000000e+00  2.0215333215295711e-01 1.3449905802379798e+00 0.0000000000000000e+00  2.0306777591531039e-01 1.3438170987203275e+00 0.0000000000000000e+00  2.0206291501875209e-01 1.3568280687960197e+00 0.0000000000000000e+00  2.0287037059506755e-01 1.3563827632656751e+00 0.0000000000000000e+00  2.0195831120335322e-01 1.3687544380984555e+00 0.0000000000000000e+00  2.0271286966374563e-01 1.3686595218472206e+00 0.0000000000000000e+00  2.0183182599077884e-01 1.3808163167853826e+00 0.0000000000000000e+00  2.0256435138116285e-01 1.3808728275058173e+00 0.0000000000000000e+00  2.0172525973901059e-01 1.3927133067177131e+00 0.0000000000000000e+00  2.0239763625365914e-01 1.3932122147283152e+00 0.0000000000000000e+00  2.0163767586714970e-01 1.4044733564368888e+00 0.0000000000000000e+00  2.0223374349197631e-01 1.4054768445760657e+00 0.0000000000000000e+00  2.0154307747119748e-01 1.4163671333563392e+00 0.0000000000000000e+00  2.0208573758037016e-01 1.4174744077599233e+00 0.0000000000000000e+00  2.0144219715763745e-01 1.4284420755593668e+00 0.0000000000000000e+00  2.0194589150739939e-01 1.4293576025123285e+00 0.0000000000000000e+00  2.0133010786011954e-01 1.4403620919572564e+00 0.0000000000000000e+00  2.0184535747840521e-01 1.4416248417871464e+00 0.0000000000000000e+00  2.0114742956298262e-01 1.4515663195031561e+00 0.0000000000000000e+00  2.0184515461519009e-01 1.4547029008000181e+00 0.0000000000000000e+00  2.0088769340505350e-01 1.4621363083036776e+00 0.0000000000000000e+00  2.0181326753285275e-01 1.4674958445970934e+00 0.0000000000000000e+00  2.0089720221843443e-01 1.4746692349398516e+00 0.0000000000000000e+00  2.0117082941596784e-01 1.4758497600717193e+00 0.0000000000000000e+00  2.0185005534051212e-01 1.4939175477688917e+00 0.0000000000000000e+00  1.9949898981776770e-01 1.4768193411846779e+00 0.0000000000000000e+00  2.0327211199569489e-01 1.5165073373422069e+00 0.0000000000000000e+00  1.9886066435917421e-01 1.4849863365283067e+00 0.0000000000000000e+00  2.0079298251891786e-01 1.5123856073780846e+00 0.0000000000000000e+00  2.0502522016019045e-01 1.5399440565426481e+00 0.0000000000000000e+00  1.8580563509693010e-01 1.4232613323813843e+00 0.0000000000000000e+00  2.0955910496509836e-01 1.5630844827860135e+00 0.0000000000000000e+00  9.0963975071809866e-02 7.0332468609290244e-01 0.0000000000000000e+00  2.2405118242724481e-02 -1.2334817143745682e+00 0.0000000000000000e+00  3.1766307908950575e-02 -6.1789004107215162e-01 0.0000000000000000e+00  3.0671418680198487e-02 -8.2294064727899807e-01 0.0000000000000000e+00  3.0087779215990026e-02 -7.4518924371252659e-01 0.0000000000000000e+00  3.0738266547876970e-02 -7.6766464451426408e-01 0.0000000000000000e+00  3.0187436399797318e-02 -7.5319676407880642e-01 0.0000000000000000e+00  3.0658255681549750e-02 -7.5361307910081543e-01 0.0000000000000000e+00  3.0202244170868617e-02 -7.4629253008937013e-01 0.0000000000000000e+00  3.0648027774141412e-02 -7.4466669489654025e-01 0.0000000000000000e+00  3.0185890210006429e-02 -7.3765347979289164e-01 0.0000000000000000e+00  3.0649569343974718e-02 -7.3623191562895030e-01 0.0000000000000000e+00  3.0167869101963295e-02 -7.2886931322437454e-01 0.0000000000000000e+00  3.0651561802130276e-02 -7.2779953760194671e-01 0.0000000000000000e+00  3.0151195548199495e-02 -7.2008674630742309e-01 0.0000000000000000e+00  3.0653877807997089e-02 -7.1934134133109340e-01 0.0000000000000000e+00  3.0135100277335413e-02 -7.1130252749903022e-01 0.0000000000000000e+00  3.0657284142974896e-02 -7.1086811274877748e-01 0.0000000000000000e+00  3.0118885208576043e-02 -7.0250778743167475e-01 0.0000000000000000e+00  3.0662214009577672e-02 -7.0238773127263188e-01 0.0000000000000000e+00  3.0102218378034114e-02 -6.9369785782834870e-01 0.0000000000000000e+00  3.0668814546870968e-02 -6.9390368344007047e-01 0.0000000000000000e+00  3.0084971950805197e-02 -6.8487206369041342e-01 0.0000000000000000e+00  3.0677043153624673e-02 -6.8541721202015904e-01 0.0000000000000000e+00  3.0067253524947827e-02 -6.7602935494916516e-01 0.0000000000000000e+00  3.0686680239648784e-02 -6.7693041694895550e-01 0.0000000000000000e+00  3.0049141005847591e-02 -6.6717040702812480e-01 0.0000000000000000e+00  3.0697693043756729e-02 -6.6844161686939785e-01 0.0000000000000000e+00  3.0030701568274372e-02 -6.5829613359719619e-01 0.0000000000000000e+00  3.0709703326959818e-02 -6.5995539689246341e-01 0.0000000000000000e+00  3.0012329019055980e-02 -6.4940158256258385e-01 0.0000000000000000e+00  3.0722669330567495e-02 -6.5147013951889321e-01 0.0000000000000000e+00  2.9993487403443413e-02 -6.4049888199461669e-01 0.0000000000000000e+00  3.0736942445375694e-02 -6.4297671915712762e-01 0.0000000000000000e+00  2.9974786641138798e-02 -6.3158010899761630e-01 0.0000000000000000e+00  3.0751057871786534e-02 -6.3449791890366369e-01 0.0000000000000000e+00  2.9956790729305981e-02 -6.2263889103244918e-01 0.0000000000000000e+00  3.0766755734209852e-02 -6.2599840065286383e-01 0.0000000000000000e+00  2.9936409301545688e-02 -6.1373519545006494e-01 0.0000000000000000e+00  3.0784641344595697e-02 -6.1746280836575496e-01 0.0000000000000000e+00  2.9918172009405528e-02 -6.0479212730664289e-01 0.0000000000000000e+00  3.0797525873289176e-02 -6.0901502326037038e-01 0.0000000000000000e+00  2.9904228861964775e-02 -5.9577622064981084e-01 0.0000000000000000e+00  3.0814032692133585e-02 -6.0049511095444685e-01 0.0000000000000000e+00  2.9878861615535005e-02 -5.8697579056940186e-01 0.0000000000000000e+00  3.0842151235404697e-02 -5.9175511411652559e-01 0.0000000000000000e+00  2.9856722067867315e-02 -5.7813151368686899e-01 0.0000000000000000e+00  3.0842126099269951e-02 -5.8350271687120092e-01 0.0000000000000000e+00  2.9883514266697886e-02 -5.6842555471528944e-01 0.0000000000000000e+00  3.0795251278443302e-02 -5.7606726063072045e-01 0.0000000000000000e+00  2.9924316532729558e-02 -5.5849353819941805e-01 0.0000000000000000e+00  3.0793477920912318e-02 -5.6779551860972022e-01 0.0000000000000000e+00  2.9859417912459125e-02 -5.5049517203202780e-01 0.0000000000000000e+00  3.0932159919366622e-02 -5.5697849549730261e-01 0.0000000000000000e+00  2.9655462583256534e-02 -5.4503362174397796e-01 0.0000000000000000e+00  3.1165400297187392e-02 -5.4444381112605644e-01 0.0000000000000000e+00  2.9423313109433757e-02 -5.4011269065575274e-01 0.0000000000000000e+00  3.1368127104570938e-02 -5.3243022315224375e-01 0.0000000000000000e+00  2.9275091335761391e-02 -5.3370799965524651e-01 0.0000000000000000e+00  3.1473403752823981e-02 -5.2212889456094680e-01 0.0000000000000000e+00  2.9226483727471966e-02 -5.2553556635577992e-01 0.0000000000000000e+00  3.1496919506624255