<?xml version="1.0"?>
<VTKFile type="UnstructuredGrid"  version="0.1"  >
<UnstructuredGrid>
<Piece  NumberOfPoints="801" NumberOfCells="800">
<Points>
<DataArray  type="Float64"  NumberOfComponents="3"  format="ascii">-5 0 0  -4.9875 0 0  -4.975 0 0  -4.9625 0 0  -4.95 0 0  -4.9375 0 0  -4.925 0 0  -4.9125 0 0  -4.9 0 0  -4.8875 0 0  -4.875 0 0  -4.8625 0 0  -4.85 0 0  -4.8375 0 0  -4.825 0 0  -4.8125 0 0  -4.8 0 0  -4.7875 0 0  -4.775 0 0  -4.7625 0 0  -4.75 0 0  -4.7375 0 0  -4.725 0 0  -4.7125 0 0  -4.7 0 0  -4.6875 0 0  -4.675 0 0  -4.6625 0 0  -4.65 0 0  -4.6375 0 0  -4.625 0 0  -4.6125 0 0  -4.6 0 0  -4.5875 0 0  -4.575 0 0  -4.5625 0 0  -4.55 0 0  -4.5375 0 0  -4.525 0 0  -4.5125 0 0  -4.5 0 0  -4.4875 0 0  -4.475 0 0  -4.4625 0 0  -4.45 0 0  -4.4375 0 0  -4.425 0 0  -4.4125 0 0  -4.4 0 0  -4.3875 0 0  -4.375 0 0  -4.3625 0 0  -4.35 0 0  -4.3375 0 0  -4.325 0 0  -4.3125 0 0  -4.3 0 0  -4.2875 0 0  -4.275 0 0  -4.2625 0 0  -4.25 0 0  -4.2375 0 0  -4.225 0 0  -4.2125 0 0  -4.2 0 0  -4.1875 0 0  -4.175 0 0  -4.1625 0 0  -4.15 0 0  -4.1375 0 0  -4.125 0 0  -4.1125 0 0  -4.1 0 0  -4.0875 0 0  -4.075 0 0  -4.0625 0 0  -4.05 0 0  -4.0375 0 0  -4.025 0 0  -4.0125 0 0  -4 0 0  -3.9875 0 0  -3.975 0 0  -3.9625 0 0  -3.95 0 0  -3.9375 0 0  -3.925 0 0  -3.9125 0 0  -3.9 0 0  -3.8875 0 0  -3.875 0 0  -3.8625 0 0  -3.85 0 0  -3.8375 0 0  -3.825 0 0  -3.8125 0 0  -3.8 0 0  -3.7875 0 0  -3.775 0 0  -3.7625 0 0  -3.75 0 0  -3.7375 0 0  -3.725 0 0  -3.7125 0 0  -3.7 0 0  -3.6875 0 0  -3.675 0 0  -3.6625 0 0  -3.65 0 0  -3.6375 0 0  -3.625 0 0  -3.6125 0 0  -3.6 0 0  -3.5875 0 0  -3.575 0 0  -3.5625 0 0  -3.55 0 0  -3.5375 0 0  -3.525 0 0  -3.5125 0 0  -3.5 0 0  -3.4875 0 0  -3.475 0 0  -3.4625 0 0  -3.45 0 0  -3.4375 0 0  -3.425 0 0  -3.4125 0 0  -3.4 0 0  -3.3875 0 0  -3.375 0 0  -3.3625 0 0  -3.35 0 0  -3.3375 0 0  -3.325 0 0  -3.3125 0 0  -3.3 0 0  -3.2875 0 0  -3.275 0 0  -3.2625 0 0  -3.25 0 0  -3.2375 0 0  -3.225 0 0  -3.2125 0 0  -3.2 0 0  -3.1875 0 0  -3.175 0 0  -3.1625 0 0  -3.15 0 0  -3.1375 0 0  -3.125 0 0  -3.1125 0 0  -3.1 0 0  -3.0875 0 0  -3.075 0 0  -3.0625 0 0  -3.05 0 0  -3.0375 0 0  -3.025 0 0  -3.0125 0 0  -3 0 0  -2.9875 0 0  -2.975 0 0  -2.9625 0 0  -2.95 0 0  -2.9375 0 0  -2.925 0 0  -2.9125 0 0  -2.9 0 0  -2.8875 0 0  -2.875 0 0  -2.8625 0 0  -2.85 0 0  -2.8375 0 0  -2.825 0 0  -2.8125 0 0  -2.8 0 0  -2.7875 0 0  -2.775 0 0  -2.7625 0 0  -2.75 0 0  -2.7375 0 0  -2.725 0 0  -2.7125 0 0  -2.7 0 0  -2.6875 0 0  -2.675 0 0  -2.6625 0 0  -2.65 0 0  -2.6375 0 0  -2.625 0 0  -2.6125 0 0  -2.6 0 0  -2.5875 0 0  -2.575 0 0  -2.5625 0 0  -2.55 0 0  -2.5375 0 0  -2.525 0 0  -2.5125 0 0  -2.5 0 0  -2.4875 0 0  -2.475 0 0  -2.4625 0 0  -2.45 0 0  -2.4375 0 0  -2.425 0 0  -2.4125 0 0  -2.4 0 0  -2.3875 0 0  -2.375 0 0  -2.3625 0 0  -2.35 0 0  -2.3375 0 0  -2.325 0 0  -2.3125 0 0  -2.3 0 0  -2.2875 0 0  -2.275 0 0  -2.2625 0 0  -2.25 0 0  -2.2375 0 0  -2.225 0 0  -2.2125 0 0  -2.2 0 0  -2.1875 0 0  -2.175 0 0  -2.1625 0 0  -2.15 0 0  -2.1375 0 0  -2.125 0 0  -2.1125 0 0  -2.1 0 0  -2.0875 0 0  -2.075 0 0  -2.0625 0 0  -2.05 0 0  -2.0375 0 0  -2.025 0 0  -2.0125 0 0  -2 0 0  -1.9875 0 0  -1.975 0 0  -1.9625 0 0  -1.95 0 0  -1.9375 0 0  -1.925 0 0  -1.9125 0 0  -1.9 0 0  -1.8875 0 0  -1.875 0 0  -1.8625 0 0  -1.85 0 0  -1.8375 0 0  -1.825 0 0  -1.8125 0 0  -1.8 0 0  -1.7875 0 0  -1.775 0 0  -1.7625 0 0  -1.75 0 0  -1.7375 0 0  -1.725 0 0  -1.7125 0 0  -1.7 0 0  -1.6875 0 0  -1.675 0 0  -1.6625 0 0  -1.65 0 0  -1.6375 0 0  -1.625 0 0  -1.6125 0 0  -1.6 0 0  -1.5875 0 0  -1.575 0 0  -1.5625 0 0  -1.55 0 0  -1.5375 0 0  -1.525 0 0  -1.5125 0 0  -1.5 0 0  -1.4875 0 0  -1.475 0 0  -1.4625 0 0  -1.45 0 0  -1.4375 0 0  -1.425 0 0  -1.4125 0 0  -1.4 0 0  -1.3875 0 0  -1.375 0 0  -1.3625 0 0  -1.35 0 0  -1.3375 0 0  -1.325 0 0  -1.3125 0 0  -1.3 0 0  -1.2875 0 0  -1.275 0 0  -1.2625 0 0  -1.25 0 0  -1.2375 0 0  -1.225 0 0  -1.2125 0 0  -1.2 0 0  -1.1875 0 0  -1.175 0 0  -1.1625 0 0  -1.15 0 0  -1.1375 0 0  -1.125 0 0  -1.1125 0 0  -1.1 0 0  -1.0875 0 0  -1.075 0 0  -1.0625 0 0  -1.05 0 0  -1.0375 0 0  -1.025 0 0  -1.0125 0 0  -1 0 0  -0.9874999999999998 0 0  -0.9749999999999996 0 0  -0.9625000000000004 0 0  -0.9500000000000002 0 0  -0.9375 0 0  -0.9249999999999998 0 0  -0.9124999999999996 0 0  -0.9000000000000004 0 0  -0.8875000000000002 0 0  -0.875 0 0  -0.8624999999999998 0 0  -0.8499999999999996 0 0  -0.8375000000000004 0 0  -0.8250000000000002 0 0  -0.8125 0 0  -0.7999999999999998 0 0  -0.7874999999999996 0 0  -0.7750000000000004 0 0  -0.7625000000000002 0 0  -0.75 0 0  -0.7374999999999998 0 0  -0.7249999999999996 0 0  -0.7125000000000004 0 0  -0.7000000000000002 0 0  -0.6875 0 0  -0.6749999999999998 0 0  -0.6624999999999996 0 0  -0.6500000000000004 0 0  -0.6375000000000002 0 0  -0.625 0 0  -0.6124999999999998 0 0  -0.5999999999999996 0 0  -0.5875000000000004 0 0  -0.5750000000000002 0 0  -0.5625 0 0  -0.5499999999999998 0 0  -0.5374999999999996 0 0  -0.5250000000000004 0 0  -0.5125000000000002 0 0  -0.5 0 0  -0.4874999999999998 0 0  -0.4749999999999996 0 0  -0.4625000000000004 0 0  -0.4500000000000002 0 0  -0.4375 0 0  -0.4249999999999998 0 0  -0.4124999999999996 0 0  -0.4000000000000004 0 0  -0.3875000000000002 0 0  -0.375 0 0  -0.3624999999999998 0 0  -0.3499999999999996 0 0  -0.3375000000000004 0 0  -0.3250000000000002 0 0  -0.3125 0 0  -0.2999999999999998 0 0  -0.2874999999999996 0 0  -0.2750000000000004 0 0  -0.2625000000000002 0 0  -0.25 0 0  -0.2374999999999998 0 0  -0.2249999999999996 0 0  -0.2125000000000004 0 0  -0.2000000000000002 0 0  -0.1875 0 0  -0.1749999999999998 0 0  -0.1624999999999996 0 0  -0.1500000000000004 0 0  -0.1375000000000002 0 0  -0.125 0 0  -0.1124999999999998 0 0  -0.09999999999999964 0 0  -0.08750000000000036 0 0  -0.07500000000000018 0 0  -0.0625 0 0  -0.04999999999999982 0 0  -0.03749999999999964 0 0  -0.02500000000000036 0 0  -0.01250000000000018 0 0  0 0 0  0.01250000000000018 0 0  0.02500000000000036 0 0  0.03749999999999964 0 0  0.04999999999999982 0 0  0.0625 0 0  0.07500000000000018 0 0  0.08750000000000036 0 0  0.09999999999999964 0 0  0.1124999999999998 0 0  0.125 0 0  0.1375000000000002 0 0  0.1500000000000004 0 0  0.1624999999999996 0 0  0.1749999999999998 0 0  0.1875 0 0  0.2000000000000002 0 0  0.2125000000000004 0 0  0.2249999999999996 0 0  0.2374999999999998 0 0  0.25 0 0  0.2625000000000002 0 0  0.2750000000000004 0 0  0.2874999999999996 0 0  0.2999999999999998 0 0  0.3125 0 0  0.3250000000000002 0 0  0.3375000000000004 0 0  0.3499999999999996 0 0  0.3624999999999998 0 0  0.375 0 0  0.3875000000000002 0 0  0.4000000000000004 0 0  0.4124999999999996 0 0  0.4249999999999998 0 0  0.4375 0 0  0.4500000000000002 0 0  0.4625000000000004 0 0  0.4749999999999996 0 0  0.4874999999999998 0 0  0.5 0 0  0.5125000000000002 0 0  0.5250000000000004 0 0  0.5374999999999996 0 0  0.5499999999999998 0 0  0.5625 0 0  0.5750000000000002 0 0  0.5875000000000004 0 0  0.5999999999999996 0 0  0.6124999999999998 0 0  0.625 0 0  0.6375000000000002 0 0  0.6500000000000004 0 0  0.6624999999999996 0 0  0.6749999999999998 0 0  0.6875 0 0  0.7000000000000002 0 0  0.7125000000000004 0 0  0.7249999999999996 0 0  0.7374999999999998 0 0  0.75 0 0  0.7625000000000002 0 0  0.7750000000000004 0 0  0.7874999999999996 0 0  0.7999999999999998 0 0  0.8125 0 0  0.8250000000000002 0 0  0.8375000000000004 0 0  0.8499999999999996 0 0  0.8624999999999998 0 0  0.875 0 0  0.8875000000000002 0 0  0.9000000000000004 0 0  0.9124999999999996 0 0  0.9249999999999998 0 0  0.9375 0 0  0.9500000000000002 0 0  0.9625000000000004 0 0  0.9749999999999996 0 0  0.9874999999999998 0 0  1 0 0  1.0125 0 0  1.025 0 0  1.0375 0 0  1.05 0 0  1.0625 0 0  1.075 0 0  1.0875 0 0  1.1 0 0  1.1125 0 0  1.125 0 0  1.1375 0 0  1.15 0 0  1.1625 0 0  1.175 0 0  1.1875 0 0  1.2 0 0  1.2125 0 0  1.225 0 0  1.2375 0 0  1.25 0 0  1.2625 0 0  1.275 0 0  1.2875 0 0  1.3 0 0  1.3125 0 0  1.325 0 0  1.3375 0 0  1.35 0 0  1.3625 0 0  1.375 0 0  1.3875 0 0  1.4 0 0  1.4125 0 0  1.425 0 0  1.4375 0 0  1.45 0 0  1.4625 0 0  1.475 0 0  1.4875 0 0  1.5 0 0  1.5125 0 0  1.525 0 0  1.5375 0 0  1.55 0 0  1.5625 0 0  1.575 0 0  1.5875 0 0  1.6 0 0  1.6125 0 0  1.625 0 0  1.6375 0 0  1.65 0 0  1.6625 0 0  1.675 0 0  1.6875 0 0  1.7 0 0  1.7125 0 0  1.725 0 0  1.7375 0 0  1.75 0 0  1.7625 0 0  1.775 0 0  1.7875 0 0  1.8 0 0  1.8125 0 0  1.825 0 0  1.8375 0 0  1.85 0 0  1.8625 0 0  1.875 0 0  1.8875 0 0  1.9 0 0  1.9125 0 0  1.925 0 0  1.9375 0 0  1.95 0 0  1.9625 0 0  1.975 0 0  1.9875 0 0  2 0 0  2.0125 0 0  2.025 0 0  2.0375 0 0  2.05 0 0  2.0625 0 0  2.075 0 0  2.0875 0 0  2.1 0 0  2.1125 0 0  2.125 0 0  2.1375 0 0  2.15 0 0  2.1625 0 0  2.175 0 0  2.1875 0 0  2.2 0 0  2.2125 0 0  2.225 0 0  2.2375 0 0  2.25 0 0  2.2625 0 0  2.275 0 0  2.2875 0 0  2.3 0 0  2.3125 0 0  2.325 0 0  2.3375 0 0  2.35 0 0  2.3625 0 0  2.375 0 0  2.3875 0 0  2.4 0 0  2.4125 0 0  2.425 0 0  2.4375 0 0  2.45 0 0  2.4625 0 0  2.475 0 0  2.4875 0 0  2.5 0 0  2.5125 0 0  2.525 0 0  2.5375 0 0  2.55 0 0  2.5625 0 0  2.575 0 0  2.5875 0 0  2.6 0 0  2.6125 0 0  2.625 0 0  2.6375 0 0  2.65 0 0  2.6625 0 0  2.675 0 0  2.6875 0 0  2.7 0 0  2.7125 0 0  2.725 0 0  2.7375 0 0  2.75 0 0  2.7625 0 0  2.775 0 0  2.7875 0 0  2.8 0 0  2.8125 0 0  2.825 0 0  2.8375 0 0  2.85 0 0  2.8625 0 0  2.875 0 0  2.8875 0 0  2.9 0 0  2.9125 0 0  2.925 0 0  2.9375 0 0  2.95 0 0  2.9625 0 0  2.975 0 0  2.9875 0 0  3 0 0  3.012499999999999 0 0  3.025 0 0  3.0375 0 0  3.050000000000001 0 0  3.0625 0 0  3.074999999999999 0 0  3.0875 0 0  3.1 0 0  3.112500000000001 0 0  3.125 0 0  3.137499999999999 0 0  3.15 0 0  3.1625 0 0  3.175000000000001 0 0  3.1875 0 0  3.199999999999999 0 0  3.2125 0 0  3.225 0 0  3.237500000000001 0 0  3.25 0 0  3.262499999999999 0 0  3.275 0 0  3.2875 0 0  3.300000000000001 0 0  3.3125 0 0  3.324999999999999 0 0  3.3375 0 0  3.35 0 0  3.362500000000001 0 0  3.375 0 0  3.387499999999999 0 0  3.4 0 0  3.4125 0 0  3.425000000000001 0 0  3.4375 0 0  3.449999999999999 0 0  3.4625 0 0  3.475 0 0  3.4875
[...]
<PointData  Vectors="(h, u)"> 
<DataArray  type="Float64"  Name="(h, u)"  NumberOfComponents="3" format="ascii">3.6690661281972464e-01 0.0000000000000000e+00 0.0000000000000000e+00  3.6702425647010384e-01 9.3376323197855160e-03 0.0000000000000000e+00  3.6690145833278026e-01 1.8690038298437184e-02 0.0000000000000000e+00  3.6701412499677150e-01 2.8013257047513871e-02 0.0000000000000000e+00  3.6688599322084153e-01 3.7380828952128339e-02 0.0000000000000000e+00  3.6699385859161981e-01 4.6689962541757987e-02 0.0000000000000000e+00  3.6686021246130579e-01 5.6073125043662964e-02 0.0000000000000000e+00  3.6696345022224497e-01 6.5368470695286562e-02 0.0000000000000000e+00  3.6682410750982242e-01 7.4767680744276324e-02 0.0000000000000000e+00  3.6692288908469739e-01 8.4049505157020810e-02 0.0000000000000000e+00  3.6677766602997880e-01 9.3465251777008929e-02 0.0000000000000000e+00  3.6687216028023906e-01 1.0273379198330400e-01 0.0000000000000000e+00  3.6672087157167182e-01 1.1216659562475623e-01 0.0000000000000000e+00  3.6681124454363595e-01 1.2142205964897394e-01 0.0000000000000000e+00  3.6665370331814323e-01 1.3087247128388804e-01 0.0000000000000000e+00  3.6674011793826239e-01 1.4011503941289513e-01 0.0000000000000000e+00  3.6657613572416869e-01 1.4958364003652042e-01 0.0000000000000000e+00  3.6665875155781796e-01 1.5881346631524015e-01 0.0000000000000000e+00  3.6648813842504413e-01 1.6830086573482897e-01 0.0000000000000000e+00  3.6656711159878191e-01 1.7751807937831737e-01 0.0000000000000000e+00  3.6638967626527041e-01 1.8702491582222044e-01 0.0000000000000000e+00  3.6646515920043266e-01 1.9622962447531356e-01 0.0000000000000000e+00  3.6628070918462685e-01 2.0575656462665246e-01 0.0000000000000000e+00  3.6635285072204904e-01 2.1494885637679501e-01 0.0000000000000000e+00  3.6616119290645355e-01 2.2449659381353995e-01 0.0000000000000000e+00  3.6623013824335415e-01 2.3367654066385993e-01 0.0000000000000000e+00  3.6603107882492275e-01 2.4324579768597579e-01 0.0000000000000000e+00  3.6609696921266310e-01 2.5241346029240408e-01 0.0000000000000000e+00  3.6589031443311998e-01 2.6200498547239948e-01 0.0000000000000000e+00  3.6595328768712199e-01 2.7116041314594674e-01 0.0000000000000000e+00  3.6573884405486062e-01 2.8077498079750862e-01 0.0000000000000000e+00  3.6579903329472319e-01 2.8991821960667846e-01 0.0000000000000000e+00  3.6557660723288471e-01 2.9955663115037312e-01 0.0000000000000000e+00  3.6563414145473372e-01 3.0868772117922055e-01 0.0000000000000000e+00  3.6540354093237926e-01 3.1835079508225478e-01 0.0000000000000000e+00  3.6545854389518662e-01 3.2746977511034486e-01 0.0000000000000000e+00  3.6521957602489874e-01 3.3715835670423938e-01 0.0000000000000000e+00  3.6527216468928159e-01 3.4626527035389532e-01 0.0000000000000000e+00  3.6502463879659841e-01 3.5598021277576303e-01 0.0000000000000000e+00  3.6507492544068104e-01 3.6507509553625922e-01 0.0000000000000000e+00  3.6481865044478418e-01 3.7481727033223294e-01 0.0000000000000000e+00  3.6486673620072807e-01 3.8390018164034390e-01 0.0000000000000000e+00  3.6460152166636894e-01 3.9367047137325106e-01 0.0000000000000000e+00  3.6464750427654535e-01 4.0274145402996381e-01 0.0000000000000000e+00  3.6437316381470886e-01 4.1254073465976798e-01 0.0000000000000000e+00  3.6441712619185801e-01 4.2159987474546490e-01 0.0000000000000000e+00  3.6413346894583221e-01 4.3142906175055429e-01 0.0000000000000000e+00  3.6417548977257108e-01 4.4047643528851943e-01 0.0000000000000000e+00  3.6388233893956717e-01 4.5033639078675852e-01 0.0000000000000000e+00  3.6392248319035075e-01 4.5937211595305277e-01 0.0000000000000000e+00  3.6361964821043768e-01 4.6926379517677119e-01 0.0000000000000000e+00  3.6365796908900294e-01 4.7828802696951184e-01 0.0000000000000000e+00  3.6334528747732842e-01 4.8821226088784520e-01 0.0000000000000000e+00  3.6338183597778556e-01 4.9722514720380995e-01 0.0000000000000000e+00  3.6305911840709937e-01 5.0718292515353802e-01 0.0000000000000000e+00  3.6309391340908259e-01 5.1618476609470398e-01 0.0000000000000000e+00  3.6276101466233945e-01 5.2617686459015955e-01 0.0000000000000000e+00  3.6279410023045172e-01 5.3516781475686148e-01 0.0000000000000000e+00  3.6245083350702006e-01 5.4519524340657732e-01 0.0000000000000000e+00  3.6248217870110039e-01 5.5417582484379757e-01 0.0000000000000000e+00  3.6212842166587866e-01 5.6423928362711073e-01 0.0000000000000000e+00  3.6215807136090084e-01 5.7320958199504379e-01 0.0000000000000000e+00  3.6179364239280393e-01 5.8331012690866513e-01 0.0000000000000000e+00  3.6182148554686555e-01 5.9227097153723629e-01 0.0000000000000000e+00  3.6144630245213633e-01 6.0240919515774871e-01 0.0000000000000000e+00  3.6147239993397190e-01 6.1136048229345663e-01 0.0000000000000000e+00  3.6108626314386877e-01 6.2153755132065891e-01 0.0000000000000000e+00  3.6111040575197356e-01 6.3048070922206834e-01 0.0000000000000000e+00  3.6071327230121397e-01 6.4069673163878982e-01 0.0000000000000000e+00  3.6073561154301215e-01 6.4963158876223015e-01 0.0000000000000000e+00  3.6032715565681384e-01 6.5988797029403901e-01 0.0000000000000000e+00  3.6034734503664534e-01 6.6881677173507947e-01 0.0000000000000000e+00  3.5992775325576587e-01 6.7911301456820827e-01 0.0000000000000000e+00  3.5994584141984176e-01 6.8803450676226718e-01 0.0000000000000000e+00  3.5951477505660268e-01 6.9837462198741618e-01 0.0000000000000000e+00  3.5953006681301902e-01 7.0729027462037464e-01 0.0000000000000000e+00  3.5908820815223769e-01 7.1767198236666929e-01 0.0000000000000000e+00  3.5910096200216451e-01 7.2658295215515756e-01 0.0000000000000000e+00  3.5864648653642878e-01 7.3700808314143762e-01 0.0000000000000000e+00  3.5865787067063415e-01 7.4592223755438258e-01 0.0000000000000000e+00  3.5819048475414111e-01 7.5637624344677667e-01 0.0000000000000000e+00  3.5820058942733912e-01 7.6530304456977050e-01 0.0000000000000000e+00  3.5771975596004313e-01 7.7579967623659751e-01 0.0000000000000000e+00  3.5772549934695574e-01 7.8470930768949931e-01 0.0000000000000000e+00  3.5724082633001636e-01 7.9528623008145993e-01 0.0000000000000000e+00  3.5722822309200725e-01 8.0413780699823767e-01 0.0000000000000000e+00  3.5674833110788634e-01 8.1484214762788054e-01 0.0000000000000000e+00  3.5672230076117228e-01 8.2362441629363337e-01 0.0000000000000000e+00  3.5622360883748505e-01 8.3435776076454138e-01 0.0000000000000000e+00  3.5622779517121939e-01 8.4334248675363876e-01 0.0000000000000000e+00  3.5564521035854135e-01 8.5370356246168810e-01 0.0000000000000000e+00  3.5575225887415002e-01 8.6327024487493953e-01 0.0000000000000000e+00  3.5504710742945111e-01 8.7314276636208177e-01 0.0000000000000000e+00  3.5518986443596190e-01 8.8288364995703450e-01 0.0000000000000000e+00  3.5460117071601677e-01 8.9345659268184097e-01 0.0000000000000000e+00  3.5435666790846804e-01 9.0129318468863129e-01 0.0000000000000000e+00  3.5439971286955024e-01 9.1524033648958714e-01 0.0000000000000000e+00  3.5337342295516444e-01 9.1893433245334977e-01 0.0000000000000000e+00  3.5399440251065573e-01 9.3620049464302280e-01 0.0000000000000000e+00  3.5306429561342650e-01 9.4037139213039089e-01 0.0000000000000000e+00  3.5227087430334963e-01 9.5016909025812546e-01 0.0000000000000000e+00  3.5448176318023839e-01 9.7120967013401283e-01 0.0000000000000000e+00  3.4888204698847641e-01 9.5557750410093589e-01 0.0000000000000000e+00  3.5635250226899740e-01 1.0042800313248001e+00 0.0000000000000000e+00  3.4746670682333025e-01 9.7192410499756232e-01 0.0000000000000000e+00  3.5241264276823231e-01 1.0073623030237155e+00 0.0000000000000000e+00  3.5559706276996383e-01 1.0386557989401521e+00 0.0000000000000000e+00  3.3632423213165841e-01 9.4577147010658302e-01 0.0000000000000000e+00  3.7322597810418606e-01 1.1529889503623989e+00 0.0000000000000000e+00  3.1790898981965648e-01 8.7399916485502782e-01 0.0000000000000000e+00  3.7062298272377858e-01 1.1464633447084391e+00 0.0000000000000000e+00  2.8700148773160733e-01 8.3998193648620345e-01 0.0000000000000000e+00  6.2681298519174311e-02 -1.5594588978938970e+00 0.0000000000000000e+00  8.4624597688905956e-02 -1.0755299540811902e+00 0.0000000000000000e+00  8.0656703784352676e-02 -1.3133787505567642e+00 0.0000000000000000e+00  7.8472866058412111e-02 -1.1929498220693646e+00 0.0000000000000000e+00  7.9775847938110309e-02 -1.2523487164007863e+00 0.0000000000000000e+00  7.8346149329921830e-02 -1.2216202661142972e+00 0.0000000000000000e+00  7.7994456380445137e-02 -1.2342754823251330e+00 0.0000000000000000e+00  7.7836268182332261e-02 -1.2268157614556627e+00 0.0000000000000000e+00  7.6742082696319158e-02 -1.2285695220924409e+00 0.0000000000000000e+00  7.6947794847655404e-02 -1.2257519999826145e+00 0.0000000000000000e+00  7.5700740552489126e-02 -1.2260470122504434e+00 0.0000000000000000e+00  7.5955733430575975e-02 -1.2234889502742581e+00 0.0000000000000000e+00  7.4697525525822192e-02 -1.2241356111493229e+00 0.0000000000000000e+00  7.4949955799525736e-02 -1.2212563877552947e+00 0.0000000000000000e+00  7.3692236168657485e-02 -1.2223257864131793e+00 0.0000000000000000e+00  7.3944140953893969e-02 -1.2192353873273487e+00 0.0000000000000000e+00  7.2681957153910473e-02 -1.2205939041524030e+00 0.0000000000000000e+00  7.2936656653632928e-02 -1.2174126962218523e+00 0.0000000000000000e+00  7.1668343011768859e-02 -1.2189766518420531e+00 0.0000000000000000e+00  7.1925641974651650e-02 -1.2157703662506136e+00 0.0000000000000000e+00  7.0651924766543278e-02 -1.2174993842222190e+00 0.0000000000000000e+00  7.0910380607567311e-02 -1.2143042868071772e+00 0.0000000000000000e+00  6.9632368652145199e-02 -1.2161777234444131e+00 0.0000000000000000e+00  6.9890642341111406e-02 -1.2130174412470225e+00 0.0000000000000000e+00  6.8609068954768815e-02 -1.2150239058266135e+00 0.0000000000000000e+00  6.8866274278096981e-02 -1.2119155204566339e+00 0.0000000000000000e+00  6.7581394761301677e-02 -1.2140493969466013e+00 0.0000000000000000e+00  6.7837072904880585e-02 -1.2110055611836272e+00 0.0000000000000000e+00  6.6548754946997343e-02 -1.2132654969636107e+00 0.0000000000000000e+00  6.6802764169662063e-02 -1.2102956792098132e+00 0.0000000000000000e+00  6.5510609891614030e-02 -1.2126833705555276e+00 0.0000000000000000e+00  6.5763013472915341e-02 -1.2097949832300223e+00 0.0000000000000000e+00  6.4466474276869010e-02 -1.2123139825291001e+00 0.0000000000000000e+00  6.4717445718765684e-02 -1.2095134108112822e+00 0.0000000000000000e+00  6.3415921933079544e-02 -1.2121680137049515e+00 0.0000000000000000e+00  6.3665673651975174e-02 -1.2094614323962134e+00 0.0000000000000000e+00  6.2358596624501349e-02 -1.2122557171977428e+00 0.0000000000000000e+00  6.2607336403450245e-02 -1.2096496003293047e+00 0.0000000000000000e+00  6.1294233107158994e-02 -1.2125866434151416e+00 0.0000000000000000e+00  6.1542151234628209e-02 -1.2100879042426604e+00 0.0000000000000000e+00  6.0222694531586018e-02 -1.2131691407680500e+00 0.0000000000000000e+00  6.0469983044438277e-02 -1.2107848639704653e+00 0.0000000000000000e+00  5.9144034164482398e-02 -1.2140095116471661e+00 0.0000000000000000e+00  5.9390938678830885e-02 -1.2117462501804412e+00 0.0000000000000000e+00  5.8058591514276926e-02 -1.2151106669917047e+00 0.0000000000000000e+00  5.8305496181668193e-02 -1.2129732720246873e+00 0.0000000000000000e+00  5.6967135182982555e-02 -1.2164700797837005e+00 0.0000000000000000e+00  5.7214682125887824e-02 -1.2144600172195774e+00 0.0000000000000000e+00  5.5871066329978188e-02 -1.2180767989189361e+00 0.0000000000000000e+00  5.6120311458498398e-02 -1.2161898936398794e+00 0.0000000000000000e+00  5.4772695357632642e-02 -1.2199072801883530e+00 0.0000000000000000e+00  5.5025300638746305e-02 -1.2181308485759090e+00 0.0000000000000000e+00  5.3675596037853171e-02 -1.2219198833334144e+00 0.0000000000000000e+00  5.3934050773492011e-02 -1.2202293148945886e+00 0.0000000000000000e+00  5.2585019410540536e-02 -1.2240481739716953e+00 0.0000000000000000e+00  5.2852866324018581e-02 -1.2224032627654404e+00 0.0000000000000000e+00  5.1508308333547956e-02 -1.2261937672460552e+00 0.0000000000000000e+00  5.1790321944928275e-02 -1.2245355216664044e+00 0.0000000000000000e+00  5.0455188381646580e-02 -1.2282204543712709e+00 0.0000000000000000e+00  5.0757410996721125e-02 -1.2264697801643227e+00 0.0000000000000000e+00  4.9437719879719150e-02 -1.2299528361055518e+00 0.0000000000000000e+00  4.9767214741809056e-02 -1.2280132623880398e+00 0.0000000000000000e+00  4.8469621390144310e-02 -1.2311840761128219e+00 0.0000000000000000e+00  4.8833814688241182e-02 -1.2289506822908827e+00 0.0000000000000000e+00  4.7564762317225805e-02 -1.2316965111396820e+00 0.0000000000000000e+00  4.7970396669062401e-02 -1.2290711284199198e+00 0.0000000000000000e+00  4.6734993104386370e-02 -1.2312936105531589e+00 0.0000000000000000e+00  4.7186976772931544e-02 -1.2282024183575138e+00 0.0000000000000000e+00  4.5987997459606821e-02 -1.2298337529251342e+00 0.0000000000000000e+00  4.6488619950325501e-02 -1.2262402317503298e+00 0.0000000000000000e+00  4.5326090384992059e-02 -1.2272517048766214e+00 0.0000000000000000e+00  4.5874953397246190e-02 -1.2231592420336566e+00 0.0000000000000000e+00  4.4746470588666612e-02 -1.2235588776128259e+00 0.0000000000000000e+00  4.5341078735668963e-02 -1.2190032046559309e+00 0.0000000000000000e+00  4.4242618971430968e-02 -1.2188255217751953e+00 0.0000000000000000e+00  4.4879255061696509e-02 -1.2138622342063254e+00 0.0000000000000000e+00  4.3806056580601119e-02 -1.2131559657412545e+00 0.0000000000000000e+00  4.4480572612891067e-02 -1.2078486975965148e+00 0.0000000000000000e+00  4.3427816510793117e-02 -1.2066667716326149e+00 0.0000000000000000e+00  4.4136169851485683e-02 -1.2010788374747328e+00 0.0000000000000000e+00  4.3099387722352417e-02 -1.1994720160811909e+00 0.0000000000000000e+00  4.3837923996919784e-02 -1.1936617389416175e+00 0.0000000000000000e+00  4.2813182593504182e-02 -1.1916754310147508e+00 0.0000000000000000e+00  4.3578738759403789e-02 -1.1856941951431237e+00 0.0000000000000000e+00  4.2562682753098012e-02 -1.1833673851708031e+00 0.0000000000000000e+00  4.3352586769894091e-02 -1.1772593207328206e+00 0.0000000000000000e+00  4.2342406602412869e-02 -1.1746246769307189e+00 0.0000000000000000e+00  4.3154428417156790e-02 -1.1684271607219141e+00 0.0000000000000000e+00  4.2147796367064602e-02 -1.1655116932038447e+00 0.0000000000000000e+00  4.2980082583139984e-02 -1.1592561657234464e+00 0.0000000000000000e+00  4.1975080813337423e-02 -1.1560820730244963e+00 0.0000000000000000e+00  4.2826089608978823e-02 -1.1497949057021677e+00 0.0000000000000000e+00  4.1821141608515786e-02 -1.1463804258398231e+00 0.0000000000000000e+00  4.2689585063578062e-02 -1.1400837157442094e+00 0.0000000000000000e+00  4.1683395015705893e-02 -1.1364439006360549e+00 0.0000000000000000e+00  4.2568191003448289e-02 -1.1301561488538441e+00 0.0000000000000000e+00  4.1559692167984989e-02 -1.1263035344352545e+00 0.0000000000000000e+00  4.2459925571866716e-02 -1.1200402037333028e+00 0.0000000000000000e+00  4.1448237245601843e-02 -1.1159853733616687e+00 0.0000000000000000e+00  4.2363129269146156e-02 -1.1097593382723210e+00 0.0000000000000000e+00  4.1347521345695075e-02 -1.1055113872980571e+00 0.0000000000000000e+00  4.2276405392620314e-02 -1.0993332959900162e+00 0.0000000000000000e+00  4.1256269466783346e-02 -1.0949002082627641e+00 0.0000000000000000e+00  4.2198572094144786e-02 -1.0887787764217070e+00 0.0000000000000000e+00  4.1173398172397353e-02 -1.0841677230889633e+00 0.0000000000000000e+00  4.2128623778396490e-02 -1.0781099784523882e+00 0.0000000000000000e+00  4.1097981830082383e-02 -1.0733275478181163e+00 0.0000000000000000e+00  4.2065699915513448e-02 -1.0673390418586715e+00 0.0000000000000000e+00  4.1029225717550938e-02 -1.0623914065299351e+00 0.0000000000000000e+00  4.2009059686662714e-02 -1.0564764082057354e+00 0.0000000000000000e+00  4.0966444594558345e-02 -1.0513694336082551e+00 0.0000000000000000e+00  4.1958061267291680e-02 -1.0455311171710657e+00 0.0000000000000000e+00  4.0909045605185143e-02 -1.0402704150579407e+00 0.0000000000000000e+00  4.1912144670300633e-02 -1.0345110531664388e+00 0.0000000000000000e+00  4.0856514911304771e-02 -1.0291019767395670e+00 0.0000000000000000e+00  4.1870817084943279e-02 -1.0234231573484465e+00 0.0000000000000000e+00  4.0808407339737431e-02 -1.0178707295858360e+00 0.0000000000000000e+00  4.1833640688497417e-02 -1.0122736044635898e+00 0.0000000000000000e+00  4.0764337737946056e-02 -1.0065823911869995e+00 0.0000000000000000e+00  4.1800222340434248e-02 -1.0010679529184898e+00 0.0000000000000000e+00  4.0723975614343981e-02 -9.9524185884431215e-01 0.0000000000000000e+00  4.1770201360901413e-02 -9.8981132580982600e-01 0.0000000000000000e+00  4.0687044756699306e-02 -9.8385320759664130e-01 0.0000000000000000e+00  4.1743238251738320e-02 -9.7850857854976669e-01 0.0000000000000000e+00  4.0653318201279508e-02 -9.7241976171094835e-01 0.0000000000000000e+00  4.1719014092899333e-02 -9.6716430348066906e-01 0.0000000000000000e+00  4.0622609497202693e-02 -9.6094422449409767e-01 0.0000000000000000e+00  4.1697218059636894e-02 -9.5578301796135323e-01 0.0000000000000000e+00  4.0594799746332774e-02 -9.4942825593793112e-01 0.0000000000000000e+00  4.1677491301663462e-02 -9.4437002281635252e-01 0.0000000000000000e+00  4.0569884937550323e-02 -9.3787173907726873e-01 0.0000000000000000e+00  4.1659414742307041e-02 -9.3293158412085642e-01 0.0000000000000000e+00  4.0547905465817928e-02 -9.2627387117544524e-01 0.0000000000000000e+00  4.1642645270203907e-02 -9.2147283534402968e-01 0.0000000000000000e+00  4.0528806365212576e-02 -9.1463532291058858e-01 0.0000000000000000e+00  4.1626915956401861e-02 -9.0999777710575724e-01 0.0000000000000000e+00  4.0512707173035803e-02 -9.0295405394541839e-01 0.0000000000000000e+00  4.1611434198961510e-02 -8.9851853347983957e-01 0.0000000000000000e+00  4.0500701521874016e-02 -8.9121294886989544e-01 0.0000000000000000e+00  4.1594212719813985e-02 -8.8706561422902619e-01 0.0000000000000000e+00  4.0494902276035735e-02 -8.7937917345770922e-01 0.0000000000000000e+00  4.1573105623083494e-02 -8.7567192671105587e-01 0.0000000000000000e+00  4.0496101836619107e-02 -8.6744043813487670e-01 0.0000000000000000e+00  4.1549243807021193e-02 -8.6431991691174170e-01 0.0000000000000000e+00  4.0499939480681903e-02 -8.5546421394172678e-01 0.0000000000000000e+00  4.1530217751923358e-02 -8.5289270951849006e-01 0.0000000000000000e+00  4.0495492107575755e-02 -8.4361921634272041e-01 0.0000000000000000e+00  4.1528871866336595e-02 -8.4119293959935670e-01 0.0000000000000000e+00  4.0469331005685949e-02 -8.3211235045438037e-01 0.0000000000000000e+00  4.1556891035439705e-02 -8.2904186101762034e-01 0.0000000000000000e+00  4.0413133871051631e-02 -8.2107104755883953e-01 0.0000000000000000e+00  4.1617549166594804e-02 -8.1639110956647520e-01 0.0000000000000000e+00  4.0329129286449571e-02 -8.1045936476417713e-01 0.0000000000000000e+00  4.1703095294365340e-02 -8.0336235230772424e-01 0.0000000000000000e+00  4.0229557400359814e-02 -8.0008644648585203e-01 0.0000000000000000e+00  4.1798075359829573e-02 -7.9019507751957097e-01 0.0000000000000000e+00  4.0131188150841962e-02 -7.8969131652331204e-01 0.0000000000000000e+00  4.1885998199591781e-02 -7.7714333690075432e-01 0.0000000000000000e+00  4.0048275569420894e-02 -7.7905214778646892e-01 0.0000000000000000e+00  4.1955755485085414e-02 -7.6437724139590235e-01 0.0000000000000000e+00  3.9987716364016372e-02 -7.6806162203871942e-01 0.0000000000000000e+00  4.2004217488175996e-02 -7.5194386100845456e-01 0.0000000000000000e+00  3.9949082483190186e-02 -7.5672650970182964e-01 0.0000000000000000e+00  4.2034059950862589e-02 -7.3980128330418571e-01 0.0000000000000000e+00  3.9928142697795571e-02 -7.4511278379628876e-01 0.0000000000000000e+00  4.2049983887081289e-02 -7.2787691517231035e-01 0.0000000000000000e+00  3.9920073518321247e-02 -7.3329550746182581e-01 0.0000000000000000e+00  4.2056433022671175e-02 -7.1610249652378843e-01 0.0000000000000000e+00  3.9920796972610972e-02 -7.2133793982110495e-01 0.0000000000000000e+00  4.2056918254001055e-02 -7.0442436941928788e-01 0.