<?xml version="1.0"?>
<VTKFile type="UnstructuredGrid"  version="0.1"  >
<UnstructuredGrid>
<Piece  NumberOfPoints="801" NumberOfCells="800">
<Points>
<DataArray  type="Float64"  NumberOfComponents="3"  format="ascii">-5 0 0  -4.9875 0 0  -4.975 0 0  -4.9625 0 0  -4.95 0 0  -4.9375 0 0  -4.925 0 0  -4.9125 0 0  -4.9 0 0  -4.8875 0 0  -4.875 0 0  -4.8625 0 0  -4.85 0 0  -4.8375 0 0  -4.825 0 0  -4.8125 0 0  -4.8 0 0  -4.7875 0 0  -4.775 0 0  -4.7625 0 0  -4.75 0 0  -4.7375 0 0  -4.725 0 0  -4.7125 0 0  -4.7 0 0  -4.6875 0 0  -4.675 0 0  -4.6625 0 0  -4.65 0 0  -4.6375 0 0  -4.625 0 0  -4.6125 0 0  -4.6 0 0  -4.5875 0 0  -4.575 0 0  -4.5625 0 0  -4.55 0 0  -4.5375 0 0  -4.525 0 0  -4.5125 0 0  -4.5 0 0  -4.4875 0 0  -4.475 0 0  -4.4625 0 0  -4.45 0 0  -4.4375 0 0  -4.425 0 0  -4.4125 0 0  -4.4 0 0  -4.3875 0 0  -4.375 0 0  -4.3625 0 0  -4.35 0 0  -4.3375 0 0  -4.325 0 0  -4.3125 0 0  -4.3 0 0  -4.2875 0 0  -4.275 0 0  -4.2625 0 0  -4.25 0 0  -4.2375 0 0  -4.225 0 0  -4.2125 0 0  -4.2 0 0  -4.1875 0 0  -4.175 0 0  -4.1625 0 0  -4.15 0 0  -4.1375 0 0  -4.125 0 0  -4.1125 0 0  -4.1 0 0  -4.0875 0 0  -4.075 0 0  -4.0625 0 0  -4.05 0 0  -4.0375 0 0  -4.025 0 0  -4.0125 0 0  -4 0 0  -3.9875 0 0  -3.975 0 0  -3.9625 0 0  -3.95 0 0  -3.9375 0 0  -3.925 0 0  -3.9125 0 0  -3.9 0 0  -3.8875 0 0  -3.875 0 0  -3.8625 0 0  -3.85 0 0  -3.8375 0 0  -3.825 0 0  -3.8125 0 0  -3.8 0 0  -3.7875 0 0  -3.775 0 0  -3.7625 0 0  -3.75 0 0  -3.7375 0 0  -3.725 0 0  -3.7125 0 0  -3.7 0 0  -3.6875 0 0  -3.675 0 0  -3.6625 0 0  -3.65 0 0  -3.6375 0 0  -3.625 0 0  -3.6125 0 0  -3.6 0 0  -3.5875 0 0  -3.575 0 0  -3.5625 0 0  -3.55 0 0  -3.5375 0 0  -3.525 0 0  -3.5125 0 0  -3.5 0 0  -3.4875 0 0  -3.475 0 0  -3.4625 0 0  -3.45 0 0  -3.4375 0 0  -3.425 0 0  -3.4125 0 0  -3.4 0 0  -3.3875 0 0  -3.375 0 0  -3.3625 0 0  -3.35 0 0  -3.3375 0 0  -3.325 0 0  -3.3125 0 0  -3.3 0 0  -3.2875 0 0  -3.275 0 0  -3.2625 0 0  -3.25 0 0  -3.2375 0 0  -3.225 0 0  -3.2125 0 0  -3.2 0 0  -3.1875 0 0  -3.175 0 0  -3.1625 0 0  -3.15 0 0  -3.1375 0 0  -3.125 0 0  -3.1125 0 0  -3.1 0 0  -3.0875 0 0  -3.075 0 0  -3.0625 0 0  -3.05 0 0  -3.0375 0 0  -3.025 0 0  -3.0125 0 0  -3 0 0  -2.9875 0 0  -2.975 0 0  -2.9625 0 0  -2.95 0 0  -2.9375 0 0  -2.925 0 0  -2.9125 0 0  -2.9 0 0  -2.8875 0 0  -2.875 0 0  -2.8625 0 0  -2.85 0 0  -2.8375 0 0  -2.825 0 0  -2.8125 0 0  -2.8 0 0  -2.7875 0 0  -2.775 0 0  -2.7625 0 0  -2.75 0 0  -2.7375 0 0  -2.725 0 0  -2.7125 0 0  -2.7 0 0  -2.6875 0 0  -2.675 0 0  -2.6625 0 0  -2.65 0 0  -2.6375 0 0  -2.625 0 0  -2.6125 0 0  -2.6 0 0  -2.5875 0 0  -2.575 0 0  -2.5625 0 0  -2.55 0 0  -2.5375 0 0  -2.525 0 0  -2.5125 0 0  -2.5 0 0  -2.4875 0 0  -2.475 0 0  -2.4625 0 0  -2.45 0 0  -2.4375 0 0  -2.425 0 0  -2.4125 0 0  -2.4 0 0  -2.3875 0 0  -2.375 0 0  -2.3625 0 0  -2.35 0 0  -2.3375 0 0  -2.325 0 0  -2.3125 0 0  -2.3 0 0  -2.2875 0 0  -2.275 0 0  -2.2625 0 0  -2.25 0 0  -2.2375 0 0  -2.225 0 0  -2.2125 0 0  -2.2 0 0  -2.1875 0 0  -2.175 0 0  -2.1625 0 0  -2.15 0 0  -2.1375 0 0  -2.125 0 0  -2.1125 0 0  -2.1 0 0  -2.0875 0 0  -2.075 0 0  -2.0625 0 0  -2.05 0 0  -2.0375 0 0  -2.025 0 0  -2.0125 0 0  -2 0 0  -1.9875 0 0  -1.975 0 0  -1.9625 0 0  -1.95 0 0  -1.9375 0 0  -1.925 0 0  -1.9125 0 0  -1.9 0 0  -1.8875 0 0  -1.875 0 0  -1.8625 0 0  -1.85 0 0  -1.8375 0 0  -1.825 0 0  -1.8125 0 0  -1.8 0 0  -1.7875 0 0  -1.775 0 0  -1.7625 0 0  -1.75 0 0  -1.7375 0 0  -1.725 0 0  -1.7125 0 0  -1.7 0 0  -1.6875 0 0  -1.675 0 0  -1.6625 0 0  -1.65 0 0  -1.6375 0 0  -1.625 0 0  -1.6125 0 0  -1.6 0 0  -1.5875 0 0  -1.575 0 0  -1.5625 0 0  -1.55 0 0  -1.5375 0 0  -1.525 0 0  -1.5125 0 0  -1.5 0 0  -1.4875 0 0  -1.475 0 0  -1.4625 0 0  -1.45 0 0  -1.4375 0 0  -1.425 0 0  -1.4125 0 0  -1.4 0 0  -1.3875 0 0  -1.375 0 0  -1.3625 0 0  -1.35 0 0  -1.3375 0 0  -1.325 0 0  -1.3125 0 0  -1.3 0 0  -1.2875 0 0  -1.275 0 0  -1.2625 0 0  -1.25 0 0  -1.2375 0 0  -1.225 0 0  -1.2125 0 0  -1.2 0 0  -1.1875 0 0  -1.175 0 0  -1.1625 0 0  -1.15 0 0  -1.1375 0 0  -1.125 0 0  -1.1125 0 0  -1.1 0 0  -1.0875 0 0  -1.075 0 0  -1.0625 0 0  -1.05 0 0  -1.0375 0 0  -1.025 0 0  -1.0125 0 0  -1 0 0  -0.9874999999999998 0 0  -0.9749999999999996 0 0  -0.9625000000000004 0 0  -0.9500000000000002 0 0  -0.9375 0 0  -0.9249999999999998 0 0  -0.9124999999999996 0 0  -0.9000000000000004 0 0  -0.8875000000000002 0 0  -0.875 0 0  -0.8624999999999998 0 0  -0.8499999999999996 0 0  -0.8375000000000004 0 0  -0.8250000000000002 0 0  -0.8125 0 0  -0.7999999999999998 0 0  -0.7874999999999996 0 0  -0.7750000000000004 0 0  -0.7625000000000002 0 0  -0.75 0 0  -0.7374999999999998 0 0  -0.7249999999999996 0 0  -0.7125000000000004 0 0  -0.7000000000000002 0 0  -0.6875 0 0  -0.6749999999999998 0 0  -0.6624999999999996 0 0  -0.6500000000000004 0 0  -0.6375000000000002 0 0  -0.625 0 0  -0.6124999999999998 0 0  -0.5999999999999996 0 0  -0.5875000000000004 0 0  -0.5750000000000002 0 0  -0.5625 0 0  -0.5499999999999998 0 0  -0.5374999999999996 0 0  -0.5250000000000004 0 0  -0.5125000000000002 0 0  -0.5 0 0  -0.4874999999999998 0 0  -0.4749999999999996 0 0  -0.4625000000000004 0 0  -0.4500000000000002 0 0  -0.4375 0 0  -0.4249999999999998 0 0  -0.4124999999999996 0 0  -0.4000000000000004 0 0  -0.3875000000000002 0 0  -0.375 0 0  -0.3624999999999998 0 0  -0.3499999999999996 0 0  -0.3375000000000004 0 0  -0.3250000000000002 0 0  -0.3125 0 0  -0.2999999999999998 0 0  -0.2874999999999996 0 0  -0.2750000000000004 0 0  -0.2625000000000002 0 0  -0.25 0 0  -0.2374999999999998 0 0  -0.2249999999999996 0 0  -0.2125000000000004 0 0  -0.2000000000000002 0 0  -0.1875 0 0  -0.1749999999999998 0 0  -0.1624999999999996 0 0  -0.1500000000000004 0 0  -0.1375000000000002 0 0  -0.125 0 0  -0.1124999999999998 0 0  -0.09999999999999964 0 0  -0.08750000000000036 0 0  -0.07500000000000018 0 0  -0.0625 0 0  -0.04999999999999982 0 0  -0.03749999999999964 0 0  -0.02500000000000036 0 0  -0.01250000000000018 0 0  0 0 0  0.01250000000000018 0 0  0.02500000000000036 0 0  0.03749999999999964 0 0  0.04999999999999982 0 0  0.0625 0 0  0.07500000000000018 0 0  0.08750000000000036 0 0  0.09999999999999964 0 0  0.1124999999999998 0 0  0.125 0 0  0.1375000000000002 0 0  0.1500000000000004 0 0  0.1624999999999996 0 0  0.1749999999999998 0 0  0.1875 0 0  0.2000000000000002 0 0  0.2125000000000004 0 0  0.2249999999999996 0 0  0.2374999999999998 0 0  0.25 0 0  0.2625000000000002 0 0  0.2750000000000004 0 0  0.2874999999999996 0 0  0.2999999999999998 0 0  0.3125 0 0  0.3250000000000002 0 0  0.3375000000000004 0 0  0.3499999999999996 0 0  0.3624999999999998 0 0  0.375 0 0  0.3875000000000002 0 0  0.4000000000000004 0 0  0.4124999999999996 0 0  0.4249999999999998 0 0  0.4375 0 0  0.4500000000000002 0 0  0.4625000000000004 0 0  0.4749999999999996 0 0  0.4874999999999998 0 0  0.5 0 0  0.5125000000000002 0 0  0.5250000000000004 0 0  0.5374999999999996 0 0  0.5499999999999998 0 0  0.5625 0 0  0.5750000000000002 0 0  0.5875000000000004 0 0  0.5999999999999996 0 0  0.6124999999999998 0 0  0.625 0 0  0.6375000000000002 0 0  0.6500000000000004 0 0  0.6624999999999996 0 0  0.6749999999999998 0 0  0.6875 0 0  0.7000000000000002 0 0  0.7125000000000004 0 0  0.7249999999999996 0 0  0.7374999999999998 0 0  0.75 0 0  0.7625000000000002 0 0  0.7750000000000004 0 0  0.7874999999999996 0 0  0.7999999999999998 0 0  0.8125 0 0  0.8250000000000002 0 0  0.8375000000000004 0 0  0.8499999999999996 0 0  0.8624999999999998 0 0  0.875 0 0  0.8875000000000002 0 0  0.9000000000000004 0 0  0.9124999999999996 0 0  0.9249999999999998 0 0  0.9375 0 0  0.9500000000000002 0 0  0.9625000000000004 0 0  0.9749999999999996 0 0  0.9874999999999998 0 0  1 0 0  1.0125 0 0  1.025 0 0  1.0375 0 0  1.05 0 0  1.0625 0 0  1.075 0 0  1.0875 0 0  1.1 0 0  1.1125 0 0  1.125 0 0  1.1375 0 0  1.15 0 0  1.1625 0 0  1.175 0 0  1.1875 0 0  1.2 0 0  1.2125 0 0  1.225 0 0  1.2375 0 0  1.25 0 0  1.2625 0 0  1.275 0 0  1.2875 0 0  1.3 0 0  1.3125 0 0  1.325 0 0  1.3375 0 0  1.35 0 0  1.3625 0 0  1.375 0 0  1.3875 0 0  1.4 0 0  1.4125 0 0  1.425 0 0  1.4375 0 0  1.45 0 0  1.4625 0 0  1.475 0 0  1.4875 0 0  1.5 0 0  1.5125 0 0  1.525 0 0  1.5375 0 0  1.55 0 0  1.5625 0 0  1.575 0 0  1.5875 0 0  1.6 0 0  1.6125 0 0  1.625 0 0  1.6375 0 0  1.65 0 0  1.6625 0 0  1.675 0 0  1.6875 0 0  1.7 0 0  1.7125 0 0  1.725 0 0  1.7375 0 0  1.75 0 0  1.7625 0 0  1.775 0 0  1.7875 0 0  1.8 0 0  1.8125 0 0  1.825 0 0  1.8375 0 0  1.85 0 0  1.8625 0 0  1.875 0 0  1.8875 0 0  1.9 0 0  1.9125 0 0  1.925 0 0  1.9375 0 0  1.95 0 0  1.9625 0 0  1.975 0 0  1.9875 0 0  2 0 0  2.0125 0 0  2.025 0 0  2.0375 0 0  2.05 0 0  2.0625 0 0  2.075 0 0  2.0875 0 0  2.1 0 0  2.1125 0 0  2.125 0 0  2.1375 0 0  2.15 0 0  2.1625 0 0  2.175 0 0  2.1875 0 0  2.2 0 0  2.2125 0 0  2.225 0 0  2.2375 0 0  2.25 0 0  2.2625 0 0  2.275 0 0  2.2875 0 0  2.3 0 0  2.3125 0 0  2.325 0 0  2.3375 0 0  2.35 0 0  2.3625 0 0  2.375 0 0  2.3875 0 0  2.4 0 0  2.4125 0 0  2.425 0 0  2.4375 0 0  2.45 0 0  2.4625 0 0  2.475 0 0  2.4875 0 0  2.5 0 0  2.5125 0 0  2.525 0 0  2.5375 0 0  2.55 0 0  2.5625 0 0  2.575 0 0  2.5875 0 0  2.6 0 0  2.6125 0 0  2.625 0 0  2.6375 0 0  2.65 0 0  2.6625 0 0  2.675 0 0  2.6875 0 0  2.7 0 0  2.7125 0 0  2.725 0 0  2.7375 0 0  2.75 0 0  2.7625 0 0  2.775 0 0  2.7875 0 0  2.8 0 0  2.8125 0 0  2.825 0 0  2.8375 0 0  2.85 0 0  2.8625 0 0  2.875 0 0  2.8875 0 0  2.9 0 0  2.9125 0 0  2.925 0 0  2.9375 0 0  2.95 0 0  2.9625 0 0  2.975 0 0  2.9875 0 0  3 0 0  3.012499999999999 0 0  3.025 0 0  3.0375 0 0  3.050000000000001 0 0  3.0625 0 0  3.074999999999999 0 0  3.0875 0 0  3.1 0 0  3.112500000000001 0 0  3.125 0 0  3.137499999999999 0 0  3.15 0 0  3.1625 0 0  3.175000000000001 0 0  3.1875 0 0  3.199999999999999 0 0  3.2125 0 0  3.225 0 0  3.237500000000001 0 0  3.25 0 0  3.262499999999999 0 0  3.275 0 0  3.2875 0 0  3.300000000000001 0 0  3.3125 0 0  3.324999999999999 0 0  3.3375 0 0  3.35 0 0  3.362500000000001 0 0  3.375 0 0  3.387499999999999 0 0  3.4 0 0  3.4125 0 0  3.425000000000001 0 0  3.4375 0 0  3.449999999999999 0 0  3.4625 0 0  3.475 0 0  3.4875
[...]
<PointData  Vectors="(h, u)"> 
<DataArray  type="Float64"  Name="(h, u)"  NumberOfComponents="3" format="ascii">4.5573825088824366e-01 0.0000000000000000e+00 0.0000000000000000e+00  4.5211238335567788e-01 1.0820135499417176e-02 0.0000000000000000e+00  4.5573112065724936e-01 2.1795392818129436e-02 0.0000000000000000e+00  4.5209845758716866e-01 3.2459779892265901e-02 0.0000000000000000e+00  4.5570720793660463e-01 4.3591589834935537e-02 0.0000000000000000e+00  4.5206978974601814e-01 5.4104577443172569e-02 0.0000000000000000e+00  4.5566652175477290e-01 6.5388311625901988e-02 0.0000000000000000e+00  4.5202825389600604e-01 7.5749879127976316e-02 0.0000000000000000e+00  4.5561199457748430e-01 8.7186928417955070e-02 0.0000000000000000e+00  4.5197119937350005e-01 9.7393314873270312e-02 0.0000000000000000e+00  4.5554103559390863e-01 1.0899947264507212e-01 0.0000000000000000e+00  4.5189915970556083e-01 1.1904685790767838e-01 0.0000000000000000e+00  4.5545317240524341e-01 1.3080307442471484e-01 0.0000000000000000e+00  4.5181837277229192e-01 1.4071033071278427e-01 0.0000000000000000e+00  4.5534867765991616e-01 1.5260208160305516e-01 0.0000000000000000e+00  4.5171966666328484e-01 1.6238309845508545e-01 0.0000000000000000e+00  4.5523111795398685e-01 1.7444373961305876e-01 0.0000000000000000e+00  4.5160141032046530e-01 1.8402940814711047e-01 0.0000000000000000e+00  4.5510480081540799e-01 1.9628764508190238e-01 0.0000000000000000e+00  4.5147602922625851e-01 2.0569826874253275e-01 0.0000000000000000e+00  4.5494698264313660e-01 2.1810077142049153e-01 0.0000000000000000e+00  4.5134541382774829e-01 2.2746594640494305e-01 0.0000000000000000e+00  4.5476912284965565e-01 2.3989208564348116e-01 0.0000000000000000e+00  4.5119752008790942e-01 2.4915932859791901e-01 0.0000000000000000e+00  4.5460633405962814e-01 2.6180228457943311e-01 0.0000000000000000e+00  4.5099781087264817e-01 2.7075588594346428e-01 0.0000000000000000e+00  4.5443273576897408e-01 2.8383347414571530e-01 0.0000000000000000e+00  4.5080783061318735e-01 2.9244390258040082e-01 0.0000000000000000e+00  4.5420223200505466e-01 3.0555215244928480e-01 0.0000000000000000e+00  4.5067623009197105e-01 3.1444674479053014e-01 0.0000000000000000e+00  4.5390016247178744e-01 3.2717512900065104e-01 0.0000000000000000e+00  4.5048801807567151e-01 3.3640236195100670e-01 0.0000000000000000e+00  4.5370270062360535e-01 3.4924860592784979e-01 0.0000000000000000e+00  4.5016210600000151e-01 3.5755787573856840e-01 0.0000000000000000e+00  4.5359861380460270e-01 3.7188333427171250e-01 0.0000000000000000e+00  4.4979771752471287e-01 3.7894897099885211e-01 0.0000000000000000e+00  4.5328641431438926e-01 3.9374785590422900e-01 0.0000000000000000e+00  4.4976830638197224e-01 4.0160972225099179e-01 0.0000000000000000e+00  4.5269292130269473e-01 4.1409236307523789e-01 0.0000000000000000e+00  4.4978531463790788e-01 4.2495287524746594e-01 0.0000000000000000e+00  4.5226309275967613e-01 4.3583038864404111e-01 0.0000000000000000e+00  4.4924594594987122e-01 4.4550346804937668e-01 0.0000000000000000e+00  4.5260800673002727e-01 4.6046752798931706e-01 0.0000000000000000e+00  4.4820139712313894e-01 4.6388449527698089e-01 0.0000000000000000e+00  4.5270780606317884e-01 4.8514362351670726e-01 0.0000000000000000e+00  4.4799805633764633e-01 4.8646464846917703e-01 0.0000000000000000e+00  4.5149286336186911e-01 5.0244222227561730e-01 0.0000000000000000e+00  4.4926588930437811e-01 5.1548528622176404e-01 0.0000000000000000e+00  4.4946344268239918e-01 5.1767436890844343e-01 0.0000000000000000e+00  4.4956579349992115e-01 5.4112307941026461e-01 0.0000000000000000e+00  4.5003567104175612e-01 5.4317714254716387e-01 0.0000000000000000e+00  4.4673520263191319e-01 5.5059497185584194e-01 0.0000000000000000e+00  4.5309434107736402e-01 5.8274008434939428e-01 0.0000000000000000e+00  4.4304611782984848e-01 5.5836561911573779e-01 0.0000000000000000e+00  4.5374187781799485e-01 6.0828055155077776e-01 0.0000000000000000e+00  4.4550134816981385e-01 5.9205285322218848e-01 0.0000000000000000e+00  4.4678390753140307e-01 6.0226571309027077e-01 0.0000000000000000e+00  4.5288632907624299e-01 6.5283032328719581e-01 0.0000000000000000e+00  4.4006221409662394e-01 5.9193461661699232e-01 0.0000000000000000e+00  4.5390432868974956e-01 6.7920045298644882e-01 0.0000000000000000e+00  4.4573600762187859e-01 6.4761346238853179e-01 0.0000000000000000e+00  4.3874809593926295e-01 6.3555883474765329e-01 0.0000000000000000e+00  4.6361195259385063e-01 7.4910213586646002e-01 0.0000000000000000e+00  4.2409177696877015e-01 5.8687374114518842e-01 0.0000000000000000e+00  4.6465539375619536e-01 7.8723310552538162e-01 0.0000000000000000e+00  4.3748240330391847e-01 6.7843909660801427e-01 0.0000000000000000e+00  4.3360418488129637e-01 6.5835859195589186e-01 0.0000000000000000e+00  4.7571224116647609e-01 8.8153952811703884e-01 0.0000000000000000e+00  3.9783959882802217e-01 5.1905996438112001e-01 0.0000000000000000e+00  4.8422966327951183e-01 9.3942348358697036e-01 0.0000000000000000e+00  4.2358594581417253e-01 6.6881128176971738e-01 0.0000000000000000e+00  4.1459174884199007e-01 6.6350227447398846e-01 0.0000000000000000e+00  5.0716627705660355e-01 1.0828759758831652e+00 0.0000000000000000e+00  3.3060579673041801e-01 2.3377679383883637e-01 0.0000000000000000e+00  5.4380071172853350e-01 1.1904030790718800e+00 0.0000000000000000e+00  2.8616544543554506e-01 4.2920893414689459e-01 0.0000000000000000e+00  1.0411978113627868e-01 -2.1366511833108088e+00 0.0000000000000000e+00  1.1479541905274739e-01 -1.2434272930104540e+00 0.0000000000000000e+00  1.2569511773547484e-01 -1.5535909115115198e+00 0.0000000000000000e+00  1.1262733806324011e-01 -1.4847981419349798e+00 0.0000000000000000e+00  1.2191272706162967e-01 -1.4622820906041318e+00 0.0000000000000000e+00  1.1287803091782223e-01 -1.5031891533898611e+00 0.0000000000000000e+00  1.2020754099904382e-01 -1.4613839007350027e+00 0.0000000000000000e+00  1.1187975330242832e-01 -1.4849129330521886e+00 0.0000000000000000e+00  1.1865331656833057e-01 -1.4704430796809937e+00 0.0000000000000000e+00  1.1125822205167626e-01 -1.4672335089156661e+00 0.0000000000000000e+00  1.1668268277963573e-01 -1.4759977240741087e+00 0.0000000000000000e+00  1.1090235897452254e-01 -1.4532723429710122e+00 0.0000000000000000e+00  1.1463950520143398e-01 -1.4788283114356509e+00 0.0000000000000000e+00  1.1048663899732504e-01 -1.4415198253120773e+00 0.0000000000000000e+00  1.1274113876614225e-01 -1.4800295714295830e+00 0.0000000000000000e+00  1.0989867133469171e-01 -1.4313698843955440e+00 0.0000000000000000e+00  1.1102358274490993e-01 -1.4798545230451514e+00 0.0000000000000000e+00  1.0914434567427192e-01 -1.4226904062318873e+00 0.0000000000000000e+00  1.0945937175222051e-01 -1.4784312986355854e+00 0.0000000000000000e+00  1.0825792532269411e-01 -1.4153007731629483e+00 0.0000000000000000e+00  1.0801230517895594e-01 -1.4759941788888802e+00 0.0000000000000000e+00  1.0727379335225680e-01 -1.4089342699542680e+00 0.0000000000000000e+00  1.0665005305090608e-01 -1.4728222976206364e+00 0.0000000000000000e+00  1.0622121373819389e-01 -1.4033235040295757e+00 0.0000000000000000e+00  1.0534618078725594e-01 -1.4691658568757424e+00 0.0000000000000000e+00  1.0512331488606844e-01 -1.3982500688626280e+00 0.0000000000000000e+00  1.0408053515047812e-01 -1.4652187576585110e+00 0.0000000000000000e+00  1.0399705286775404e-01 -1.3935543347003989e+00 0.0000000000000000e+00  1.0283880596574688e-01 -1.4611194243751746e+00 0.0000000000000000e+00  1.0285399313686702e-01 -1.3891278053293190e+00 0.0000000000000000e+00  1.0161144590276383e-01 -1.4569614477072230e+00 0.0000000000000000e+00  1.0170153879967458e-01 -1.3849010104473263e+00 0.0000000000000000e+00  1.0039239553713716e-01 -1.4528056726003395e+00 0.0000000000000000e+00  1.0054416353095331e-01 -1.3808319996880840e+00 0.0000000000000000e+00  9.9177952995648549e-02 -1.4486906890534841e+00 0.0000000000000000e+00  9.9384416596802624e-02 -1.3768970729058028e+00 0.0000000000000000e+00  9.7965913915549735e-02 -1.4446408626290972e+00 0.0000000000000000e+00  9.8223647456248203e-02 -1.3730840448064785e+00 0.0000000000000000e+00  9.6754978587793500e-02 -1.4406719467875129e+00 0.0000000000000000e+00  9.7062487469764105e-02 -1.3693877210624545e+00 0.0000000000000000e+00  9.5544368939218707e-02 -1.4367947560540550e+00 0.0000000000000000e+00  9.5901152264225797e-02 -1.3658070377524689e+00 0.0000000000000000e+00  9.4333594243961899e-02 -1.4330174383233036e+00 0.0000000000000000e+00  9.4739621273956950e-02 -1.3623433575881529e+00 0.0000000000000000e+00  9.3122314159307856e-02 -1.4293468191045913e+00 0.0000000000000000e+00  9.3577740541173057e-02 -1.3589994960172911e+00 0.0000000000000000e+00  9.1910260758357690e-02 -1.4257891791830548e+00 0.0000000000000000e+00  9.2415279185044177e-02 -1.3557791919340401e+00 0.0000000000000000e+00  9.0697196074774333e-02 -1.4223506886706145e+00 0.0000000000000000e+00  9.1251958796784660e-02 -1.3526868405468853e+00 0.0000000000000000e+00  8.9482889015480863e-02 -1.4190376530292350e+00 0.0000000000000000e+00  9.0087468628856665e-02 -1.3497273643008432e+00 0.0000000000000000e+00  8.8267102597832645e-02 -1.4158566584589292e+00 0.0000000000000000e+00  8.8921472523840014e-02 -1.3469061643367861e+00 0.0000000000000000e+00  8.7049587145322377e-02 -1.4128146581091126e+00 0.0000000000000000e+00  8.7753611520633434e-02 -1.3442291133085260e+00 0.0000000000000000e+00  8.5830075859577359e-02 -1.4099190337824246e+00 0.0000000000000000e+00  8.6583504596117383e-02 -1.3417025641533951e+00 0.0000000000000000e+00  8.4608281614989650e-02 -1.4071776430010190e+00 0.0000000000000000e+00  8.5410747877383786e-02 -1.3393333707781967e+00 0.0000000000000000e+00  8.3383894566168404e-02 -1.4045988535110077e+00 0.0000000000000000e+00  8.4234913223219229e-02 -1.3371289104397901e+00 0.0000000000000000e+00  8.2156579620560249e-02 -1.4021915732349188e+00 0.0000000000000000e+00  8.3055546753478246e-02 -1.3350971008223202e+00 0.0000000000000000e+00  8.0925973983513408e-02 -1.3999652717865205e+00 0.0000000000000000e+00  8.1872167111145477e-02 -1.3332464137733240e+00 0.0000000000000000e+00  7.9691685112820349e-02 -1.3979299892598795e+00 0.0000000000000000e+00  8.0684264112917292e-02 -1.3315858797149149e+00 0.0000000000000000e+00  7.8453289039080151e-02 -1.3960963344416510e+00 0.0000000000000000e+00  7.9491298592882315e-02 -1.3301250773477173e+00 0.0000000000000000e+00  7.7210329952898699e-02 -1.3944754676561379e+00 0.0000000000000000e+00  7.8292703970691449e-02 -1.3288741092160399e+00 0.0000000000000000e+00  7.5962322391071715e-02 -1.3930790621495137e+00 0.0000000000000000e+00  7.7087890933947661e-02 -1.3278435566671376e+00 0.0000000000000000e+00  7.4708757265402395e-02 -1.3919192408054528e+00 0.0000000000000000e+00  7.5876257133023164e-02 -1.3270444015502574e+00 0.0000000000000000e+00  7.3449113700649951e-02 -1.3910084748726912e+00 0.0000000000000000e+00  7.4657203694004234e-02 -1.3264878979316619e+00 0.0000000000000000e+00  7.2182879241063300e-02 -1.3903594172368761e+00 0.0000000000000000e+00  7.3430160977000808e-02 -1.3261853603728011e+00 0.0000000000000000e+00  7.0909581141427855e-02 -1.3899846291448477e+00 0.0000000000000000e+00  7.2194627012167514e-02 -1.3261478114075995e+00 0.0000000000000000e+00  6.9628832450788936e-02 -1.3898961346747398e+00 0.0000000000000000e+00  7.0950223121692885e-02 -1.3263854069009193e+00 0.0000000000000000e+00  6.8340398575220271e-02 -1.3901047028527438e+00 0.0000000000000000e+00  6.9696773350240798e-02 -1.3269065257878467e+00 0.0000000000000000e+00  6.7044292438030909e-02 -1.3906187203815774e+00 0.0000000000000000e+00  6.8434417646167964e-02 -1.3277163678582879e+00 0.0000000000000000e+00  6.5740909503991821e-02 -1.3914424730921320e+00 0.0000000000000000e+00  6.7163772411820769e-02 -1.3288148559418043e+00 0.0000000000000000e+00  6.4431217652176576e-02 -1.3925735982983023e+00 0.0000000000000000e+00  6.5886155187405968e-02 -1.3301935927674788e+00 0.0000000000000000e+00  6.3117019143404882e-02 -1.3939994239653650e+00 0.0000000000000000e+00  6.4603890607584882e-02 -1.3318316020368979e+00 0.0000000000000000e+00  6.1801298924386905e-02 -1.3956919230558209e+00 0.0000000000000000e+00  6.3320707119255012e-02 -1.3336896550319426e+00 0.0000000000000000e+00  6.0488658993127338e-02 -1.3976011729673044e+00 0.0000000000000000e+00  6.2042209398188226e-02 -1.3357032725985136e+00 0.0000000000000000e+00  5.9185802474097417e-02 -1.3996476745761293e+00 0.0000000000000000e+00  6.0776359515305051e-02 -1.3377751606236250e+00 0.0000000000000000e+00  5.7901964884015236e-02 -1.4017148079101116e+00 0.0000000000000000e+00  5.9533819297515118e-02 -1.3397689544860683e+00 0.0000000000000000e+00  5.6649103926772228e-02 -1.4036440063369455e+00 0.0000000000000000e+00  5.8327925945779291e-02 -1.3415073939109345e+00 0.0000000000000000e+00  5.5441604436867277e-02 -1.4052362652301242e+00 0.0000000000000000e+00  5.7174067190650428e-02 -1.3427784472897137e+00 0.0000000000000000e+00  5.4295316110035297e-02 -1.4062631487018080e+00 0.0000000000000000e+00  5.6088359975159464e-02 -1.3433513955193364e+00 0.0000000000000000e+00  5.3225936671015758e-02 -1.4064880221737104e+00 0.0000000000000000e+00  5.5085762101840095e-02 -1.3430019405157354e+00 0.0000000000000000e+00  5.2246971539625361e-02 -1.4056950718923495e+00 0.0000000000000000e+00  5.4177949592716768e-02 -1.3415423439708285e+00 0.0000000000000000e+00  5.1367698925800252e-02 -1.4037203668384732e+00 0.0000000000000000e+00  5.3371498572912242e-02 -1.3388491901763120e+00 0.0000000000000000e+00  5.0591761348362380e-02 -1.4004757488719231e+00 0.0000000000000000e+00  5.2667020957548299e-02 -1.3348791401751610e+00 0.0000000000000000e+00  4.9916949266108950e-02 -1.3959563862490918e+00 0.0000000000000000e+00  5.2059624742041878e-02 -1.3296663723008835e+00 0.0000000000000000e+00  4.9336261410571333e-02 -1.3902294073356982e+00 0.0000000000000000e+00  5.1540464003294081e-02 -1.3233038615539143e+00 0.0000000000000000e+00  4.8839732360383033e-02 -1.3834099738548478e+00 0.0000000000000000e+00  5.1098684135385659e-02 -1.3159176702641575e+00 0.0000000000000000e+00  4.8416287346085898e-02 -1.3756352888501724e+00 0.0000000000000000e+00  5.0723091774523485e-02 -1.3076438026828920e+00 0.0000000000000000e+00  4.8055118267428087e-02 -1.3670442934493612e+00 0.0000000000000000e+00  5.0403239647897738e-02 -1.2986124901556932e+00 0.0000000000000000e+00  4.7746460072707379e-02 -1.3577654227779454e+00 0.0000000000000000e+00  5.0129952664010310e-02 -1.2889400241518589e+00 0.0000000000000000e+00  4.7481890921258312e-02 -1.3479111303745721e+00 0.0000000000000000e+00  4.9895466951128682e-02 -1.2787259964555808e+00 0.0000000000000000e+00  4.7254341480903003e-02 -1.3375767930438724e+00 0.0000000000000000e+00  4.9693354307699542e-02 -1.2680536035170449e+00 0.0000000000000000e+00  4.7057964172139484e-02 -1.3268419430738112e+00 0.0000000000000000e+00  4.9518351959464052e-02 -1.2569913246568245e+00 0.0000000000000000e+00  4.6887956559180370e-02 -1.3157724713893568e+00 0.0000000000000000e+00  4.9366167747051840e-02 -1.2455949901475252e+00 0.0000000000000000e+00  4.6740384197125819e-02 -1.3044230614920975e+00 0.0000000000000000e+00  4.9233298657140948e-02 -1.2339097533973253e+00 0.0000000000000000e+00  4.6612021396714484e-02 -1.2928394511093573e+00 0.0000000000000000e+00  4.9116873320663904e-02 -1.2219718935471182e+00 0.0000000000000000e+00  4.6500220121519005e-02 -1.2810602401040654e+00 0.0000000000000000e+00  4.9014523435130519e-02 -1.2098104380955068e+00 0.0000000000000000e+00  4.6402789286552580e-02 -1.2691184213206361e+00 0.0000000000000000e+00  4.8924309517356823e-02 -1.1974482541482241e+00 0.0000000000000000e+00  4.6317864714706114e-02 -1.2570429131898699e+00 0.0000000000000000e+00  4.8844676091925450e-02 -1.1849029064317014e+00 0.0000000000000000e+00  4.6243830630037307e-02 -1.2448592588011107e+00 0.0000000000000000e+00  4.8774359327572715e-02 -1.1721882754892772e+00 0.0000000000000000e+00  4.6179300663452008e-02 -1.2325894638471044e+00 0.0000000000000000e+00  4.8712348531252433e-02 -1.1593153937289402e+00 0.0000000000000000e+00  4.6122954055630487e-02 -1.2202540613875459e+00 0.0000000000000000e+00  4.8658079280773169e-02 -1.1462898707793312e+00 0.0000000000000000e+00  4.6073240619213120e-02 -1.2078763119751028e+00 0.0000000000000000e+00  4.8611529799282682e-02 -1.1331104373683041e+00 0.0000000000000000e+00  4.6028521587181265e-02 -1.1954803432890204e+00 0.0000000000000000e+00  4.8572680645167968e-02 -1.1197761672843405e+00 0.0000000000000000e+00  4.5987739821302935e-02 -1.1830818972903050e+00 0.0000000000000000e+00  4.8540997517267363e-02 -1.1062930766417898e+00 0.0000000000000000e+00  4.5950199748291620e-02 -1.1706923310965900e+00 0.0000000000000000e+00  4.8516714617111836e-02 -1.0926551768390202e+00 0.0000000000000000e+00  4.5913094345413658e-02 -1.1583554798250180e+00 0.0000000000000000e+00  4.8504089106045596e-02 -1.0787979789193032e+00 0.0000000000000000e+00  4.5868310514555519e-02 -1.1461945701404366e+00 0.0000000000000000e+00  4.8513473945636348e-02 -1.0645694630310212e+00 0.0000000000000000e+00  4.5802515702499297e-02 -1.1344104753504576e+00 0.0000000000000000e+00  4.8558480452410450e-02 -1.0497713442332406e+00 0.0000000000000000e+00  4.5702672557279340e-02 -1.1232002321049743e+00 0.0000000000000000e+00  4.8648472442150259e-02 -1.0342666216309322e+00 0.0000000000000000e+00  4.5564125684975060e-02 -1.1126379729892495e+00 0.0000000000000000e+00  4.8781284349169320e-02 -1.0180829743083823e+00 0.0000000000000000e+00  4.5395498158661673e-02 -1.1026025553400434e+00 0.0000000000000000e+00  4.8941462130105598e-02 -1.0014362391980691e+00 0.0000000000000000e+00  4.5216834157937848e-02 -1.0928041972739928e+00 0.0000000000000000e+00  4.9105206180410914e-02 -9.8465812247941886e-01 0.0000000000000000e+00  4.5052377598572481e-02 -1.0828906071113145e+00 0.0000000000000000e+00  4.9248627154443815e-02 -9.6807794350223031e-01 0.0000000000000000e+00  4.4922565437984764e-02 -1.0725659662213285e+00 0.0000000000000000e+00  4.9354581222986985e-02 -9.5192634112108176e-01 0.0000000000000000e+00  4.4839223039784257e-02 -1.0616632756733593e+00 0.0000000000000000e+00  4.9415362609444555e-02 -9.3629890568588692e-01 0.0000000000000000e+00  4.4805087996900111e-02 -1.0501519142703699e+00 0.0000000000000000e+00  4.9431490309958484e-02 -9.2117530553543037e-01 0.0000000000000000e+00  4.4816304739418625e-02 -1.0380998377992650e+00 0.0000000000000000e+00  4.9408532402600409e-02 -9.0646560633386963e-01 0.0000000000000000e+00  4.4865780956722598e-02 -1.0256224697882725e+00 0.0000000000000000e+00  4.9353901071892775e-02 -8.9205587018783339e-01 0.0000000000000000e+00  4.4945910701153842e-02 -1.0128418866193605e+00 0.0000000000000000e+00  4.9274644016652921e-02 -8.7783814626291456e-01 0.0000000000000000e+00  4.5050156371966278e-02 -9.9986466283943276e-01 0.0000000000000000e+00  4.9176357496780614e-02 -8.6372324257171773e-01 0.0000000000000000e+00  4.5173659424770342e-02 -9.8677544751766177e-01 0.0000000000000000e+00  4.9062907549091365e-02 -8.4964166157157128e-01 0.0000000000000000e+00  4.5313245130980943e-02 -9.7363950714305980e-01 0.0000000000000000e+00  4.8936593928549238e-02 -8.3553916949180085e-01 0.0000000000000000e+00  4.5467151855659686e-02 -9.6050804704777348e-01 0.0000000000000000e+00  4.8798471388648443e-02 -8.2137181102917478e-01 0.0000000000000000e+00  4.5634685877139730e-02 -9.4742294528064797e-01 0.0000000000000000e+00  4.8648702981788756e-02 -8.0710201783218383e-01 0.0000000000000000e+00  4.5815885043337945e-02 -9.3441998200142762e-01 0.0000000000000000e+00  4.8486871000127191e-02 -7.9269659291913674e-01 0.0000000000000000e+00  4.6011230431179266e-02 -9.2152986850902174e-01 0.0000000000000000e+00  4.8312278930139854e-02 -7.7812679779061800e-01 0.0000000000000000e+00  4.6221303875816924e-02 -9.0877747039144507e-01 0.0000000000000000e+00  4.8124326293483490e-02 -7.6337054565130791e-01 0.0000000000000000e+00  4.6446413377275127e-02 -8.9617866244431466e-01 0.0000000000000000e+00  4.79228605415