<?xml version="1.0"?>
<VTKFile type="UnstructuredGrid"  version="0.1"  >
<UnstructuredGrid>
<Piece  NumberOfPoints="801" NumberOfCells="800">
<Points>
<DataArray  type="Float64"  NumberOfComponents="3"  format="ascii">-5 0 0  -4.9875 0 0  -4.975 0 0  -4.9625 0 0  -4.95 0 0  -4.9375 0 0  -4.925 0 0  -4.9125 0 0  -4.9 0 0  -4.8875 0 0  -4.875 0 0  -4.8625 0 0  -4.85 0 0  -4.8375 0 0  -4.825 0 0  -4.8125 0 0  -4.8 0 0  -4.7875 0 0  -4.775 0 0  -4.7625 0 0  -4.75 0 0  -4.7375 0 0  -4.725 0 0  -4.7125 0 0  -4.7 0 0  -4.6875 0 0  -4.675 0 0  -4.6625 0 0  -4.65 0 0  -4.6375 0 0  -4.625 0 0  -4.6125 0 0  -4.6 0 0  -4.5875 0 0  -4.575 0 0  -4.5625 0 0  -4.55 0 0  -4.5375 0 0  -4.525 0 0  -4.5125 0 0  -4.5 0 0  -4.4875 0 0  -4.475 0 0  -4.4625 0 0  -4.45 0 0  -4.4375 0 0  -4.425 0 0  -4.4125 0 0  -4.4 0 0  -4.3875 0 0  -4.375 0 0  -4.3625 0 0  -4.35 0 0  -4.3375 0 0  -4.325 0 0  -4.3125 0 0  -4.3 0 0  -4.2875 0 0  -4.275 0 0  -4.2625 0 0  -4.25 0 0  -4.2375 0 0  -4.225 0 0  -4.2125 0 0  -4.2 0 0  -4.1875 0 0  -4.175 0 0  -4.1625 0 0  -4.15 0 0  -4.1375 0 0  -4.125 0 0  -4.1125 0 0  -4.1 0 0  -4.0875 0 0  -4.075 0 0  -4.0625 0 0  -4.05 0 0  -4.0375 0 0  -4.025 0 0  -4.0125 0 0  -4 0 0  -3.9875 0 0  -3.975 0 0  -3.9625 0 0  -3.95 0 0  -3.9375 0 0  -3.925 0 0  -3.9125 0 0  -3.9 0 0  -3.8875 0 0  -3.875 0 0  -3.8625 0 0  -3.85 0 0  -3.8375 0 0  -3.825 0 0  -3.8125 0 0  -3.8 0 0  -3.7875 0 0  -3.775 0 0  -3.7625 0 0  -3.75 0 0  -3.7375 0 0  -3.725 0 0  -3.7125 0 0  -3.7 0 0  -3.6875 0 0  -3.675 0 0  -3.6625 0 0  -3.65 0 0  -3.6375 0 0  -3.625 0 0  -3.6125 0 0  -3.6 0 0  -3.5875 0 0  -3.575 0 0  -3.5625 0 0  -3.55 0 0  -3.5375 0 0  -3.525 0 0  -3.5125 0 0  -3.5 0 0  -3.4875 0 0  -3.475 0 0  -3.4625 0 0  -3.45 0 0  -3.4375 0 0  -3.425 0 0  -3.4125 0 0  -3.4 0 0  -3.3875 0 0  -3.375 0 0  -3.3625 0 0  -3.35 0 0  -3.3375 0 0  -3.325 0 0  -3.3125 0 0  -3.3 0 0  -3.2875 0 0  -3.275 0 0  -3.2625 0 0  -3.25 0 0  -3.2375 0 0  -3.225 0 0  -3.2125 0 0  -3.2 0 0  -3.1875 0 0  -3.175 0 0  -3.1625 0 0  -3.15 0 0  -3.1375 0 0  -3.125 0 0  -3.1125 0 0  -3.1 0 0  -3.0875 0 0  -3.075 0 0  -3.0625 0 0  -3.05 0 0  -3.0375 0 0  -3.025 0 0  -3.0125 0 0  -3 0 0  -2.9875 0 0  -2.975 0 0  -2.9625 0 0  -2.95 0 0  -2.9375 0 0  -2.925 0 0  -2.9125 0 0  -2.9 0 0  -2.8875 0 0  -2.875 0 0  -2.8625 0 0  -2.85 0 0  -2.8375 0 0  -2.825 0 0  -2.8125 0 0  -2.8 0 0  -2.7875 0 0  -2.775 0 0  -2.7625 0 0  -2.75 0 0  -2.7375 0 0  -2.725 0 0  -2.7125 0 0  -2.7 0 0  -2.6875 0 0  -2.675 0 0  -2.6625 0 0  -2.65 0 0  -2.6375 0 0  -2.625 0 0  -2.6125 0 0  -2.6 0 0  -2.5875 0 0  -2.575 0 0  -2.5625 0 0  -2.55 0 0  -2.5375 0 0  -2.525 0 0  -2.5125 0 0  -2.5 0 0  -2.4875 0 0  -2.475 0 0  -2.4625 0 0  -2.45 0 0  -2.4375 0 0  -2.425 0 0  -2.4125 0 0  -2.4 0 0  -2.3875 0 0  -2.375 0 0  -2.3625 0 0  -2.35 0 0  -2.3375 0 0  -2.325 0 0  -2.3125 0 0  -2.3 0 0  -2.2875 0 0  -2.275 0 0  -2.2625 0 0  -2.25 0 0  -2.2375 0 0  -2.225 0 0  -2.2125 0 0  -2.2 0 0  -2.1875 0 0  -2.175 0 0  -2.1625 0 0  -2.15 0 0  -2.1375 0 0  -2.125 0 0  -2.1125 0 0  -2.1 0 0  -2.0875 0 0  -2.075 0 0  -2.0625 0 0  -2.05 0 0  -2.0375 0 0  -2.025 0 0  -2.0125 0 0  -2 0 0  -1.9875 0 0  -1.975 0 0  -1.9625 0 0  -1.95 0 0  -1.9375 0 0  -1.925 0 0  -1.9125 0 0  -1.9 0 0  -1.8875 0 0  -1.875 0 0  -1.8625 0 0  -1.85 0 0  -1.8375 0 0  -1.825 0 0  -1.8125 0 0  -1.8 0 0  -1.7875 0 0  -1.775 0 0  -1.7625 0 0  -1.75 0 0  -1.7375 0 0  -1.725 0 0  -1.7125 0 0  -1.7 0 0  -1.6875 0 0  -1.675 0 0  -1.6625 0 0  -1.65 0 0  -1.6375 0 0  -1.625 0 0  -1.6125 0 0  -1.6 0 0  -1.5875 0 0  -1.575 0 0  -1.5625 0 0  -1.55 0 0  -1.5375 0 0  -1.525 0 0  -1.5125 0 0  -1.5 0 0  -1.4875 0 0  -1.475 0 0  -1.4625 0 0  -1.45 0 0  -1.4375 0 0  -1.425 0 0  -1.4125 0 0  -1.4 0 0  -1.3875 0 0  -1.375 0 0  -1.3625 0 0  -1.35 0 0  -1.3375 0 0  -1.325 0 0  -1.3125 0 0  -1.3 0 0  -1.2875 0 0  -1.275 0 0  -1.2625 0 0  -1.25 0 0  -1.2375 0 0  -1.225 0 0  -1.2125 0 0  -1.2 0 0  -1.1875 0 0  -1.175 0 0  -1.1625 0 0  -1.15 0 0  -1.1375 0 0  -1.125 0 0  -1.1125 0 0  -1.1 0 0  -1.0875 0 0  -1.075 0 0  -1.0625 0 0  -1.05 0 0  -1.0375 0 0  -1.025 0 0  -1.0125 0 0  -1 0 0  -0.9874999999999998 0 0  -0.9749999999999996 0 0  -0.9625000000000004 0 0  -0.9500000000000002 0 0  -0.9375 0 0  -0.9249999999999998 0 0  -0.9124999999999996 0 0  -0.9000000000000004 0 0  -0.8875000000000002 0 0  -0.875 0 0  -0.8624999999999998 0 0  -0.8499999999999996 0 0  -0.8375000000000004 0 0  -0.8250000000000002 0 0  -0.8125 0 0  -0.7999999999999998 0 0  -0.7874999999999996 0 0  -0.7750000000000004 0 0  -0.7625000000000002 0 0  -0.75 0 0  -0.7374999999999998 0 0  -0.7249999999999996 0 0  -0.7125000000000004 0 0  -0.7000000000000002 0 0  -0.6875 0 0  -0.6749999999999998 0 0  -0.6624999999999996 0 0  -0.6500000000000004 0 0  -0.6375000000000002 0 0  -0.625 0 0  -0.6124999999999998 0 0  -0.5999999999999996 0 0  -0.5875000000000004 0 0  -0.5750000000000002 0 0  -0.5625 0 0  -0.5499999999999998 0 0  -0.5374999999999996 0 0  -0.5250000000000004 0 0  -0.5125000000000002 0 0  -0.5 0 0  -0.4874999999999998 0 0  -0.4749999999999996 0 0  -0.4625000000000004 0 0  -0.4500000000000002 0 0  -0.4375 0 0  -0.4249999999999998 0 0  -0.4124999999999996 0 0  -0.4000000000000004 0 0  -0.3875000000000002 0 0  -0.375 0 0  -0.3624999999999998 0 0  -0.3499999999999996 0 0  -0.3375000000000004 0 0  -0.3250000000000002 0 0  -0.3125 0 0  -0.2999999999999998 0 0  -0.2874999999999996 0 0  -0.2750000000000004 0 0  -0.2625000000000002 0 0  -0.25 0 0  -0.2374999999999998 0 0  -0.2249999999999996 0 0  -0.2125000000000004 0 0  -0.2000000000000002 0 0  -0.1875 0 0  -0.1749999999999998 0 0  -0.1624999999999996 0 0  -0.1500000000000004 0 0  -0.1375000000000002 0 0  -0.125 0 0  -0.1124999999999998 0 0  -0.09999999999999964 0 0  -0.08750000000000036 0 0  -0.07500000000000018 0 0  -0.0625 0 0  -0.04999999999999982 0 0  -0.03749999999999964 0 0  -0.02500000000000036 0 0  -0.01250000000000018 0 0  0 0 0  0.01250000000000018 0 0  0.02500000000000036 0 0  0.03749999999999964 0 0  0.04999999999999982 0 0  0.0625 0 0  0.07500000000000018 0 0  0.08750000000000036 0 0  0.09999999999999964 0 0  0.1124999999999998 0 0  0.125 0 0  0.1375000000000002 0 0  0.1500000000000004 0 0  0.1624999999999996 0 0  0.1749999999999998 0 0  0.1875 0 0  0.2000000000000002 0 0  0.2125000000000004 0 0  0.2249999999999996 0 0  0.2374999999999998 0 0  0.25 0 0  0.2625000000000002 0 0  0.2750000000000004 0 0  0.2874999999999996 0 0  0.2999999999999998 0 0  0.3125 0 0  0.3250000000000002 0 0  0.3375000000000004 0 0  0.3499999999999996 0 0  0.3624999999999998 0 0  0.375 0 0  0.3875000000000002 0 0  0.4000000000000004 0 0  0.4124999999999996 0 0  0.4249999999999998 0 0  0.4375 0 0  0.4500000000000002 0 0  0.4625000000000004 0 0  0.4749999999999996 0 0  0.4874999999999998 0 0  0.5 0 0  0.5125000000000002 0 0  0.5250000000000004 0 0  0.5374999999999996 0 0  0.5499999999999998 0 0  0.5625 0 0  0.5750000000000002 0 0  0.5875000000000004 0 0  0.5999999999999996 0 0  0.6124999999999998 0 0  0.625 0 0  0.6375000000000002 0 0  0.6500000000000004 0 0  0.6624999999999996 0 0  0.6749999999999998 0 0  0.6875 0 0  0.7000000000000002 0 0  0.7125000000000004 0 0  0.7249999999999996 0 0  0.7374999999999998 0 0  0.75 0 0  0.7625000000000002 0 0  0.7750000000000004 0 0  0.7874999999999996 0 0  0.7999999999999998 0 0  0.8125 0 0  0.8250000000000002 0 0  0.8375000000000004 0 0  0.8499999999999996 0 0  0.8624999999999998 0 0  0.875 0 0  0.8875000000000002 0 0  0.9000000000000004 0 0  0.9124999999999996 0 0  0.9249999999999998 0 0  0.9375 0 0  0.9500000000000002 0 0  0.9625000000000004 0 0  0.9749999999999996 0 0  0.9874999999999998 0 0  1 0 0  1.0125 0 0  1.025 0 0  1.0375 0 0  1.05 0 0  1.0625 0 0  1.075 0 0  1.0875 0 0  1.1 0 0  1.1125 0 0  1.125 0 0  1.1375 0 0  1.15 0 0  1.1625 0 0  1.175 0 0  1.1875 0 0  1.2 0 0  1.2125 0 0  1.225 0 0  1.2375 0 0  1.25 0 0  1.2625 0 0  1.275 0 0  1.2875 0 0  1.3 0 0  1.3125 0 0  1.325 0 0  1.3375 0 0  1.35 0 0  1.3625 0 0  1.375 0 0  1.3875 0 0  1.4 0 0  1.4125 0 0  1.425 0 0  1.4375 0 0  1.45 0 0  1.4625 0 0  1.475 0 0  1.4875 0 0  1.5 0 0  1.5125 0 0  1.525 0 0  1.5375 0 0  1.55 0 0  1.5625 0 0  1.575 0 0  1.5875 0 0  1.6 0 0  1.6125 0 0  1.625 0 0  1.6375 0 0  1.65 0 0  1.6625 0 0  1.675 0 0  1.6875 0 0  1.7 0 0  1.7125 0 0  1.725 0 0  1.7375 0 0  1.75 0 0  1.7625 0 0  1.775 0 0  1.7875 0 0  1.8 0 0  1.8125 0 0  1.825 0 0  1.8375 0 0  1.85 0 0  1.8625 0 0  1.875 0 0  1.8875 0 0  1.9 0 0  1.9125 0 0  1.925 0 0  1.9375 0 0  1.95 0 0  1.9625 0 0  1.975 0 0  1.9875 0 0  2 0 0  2.0125 0 0  2.025 0 0  2.0375 0 0  2.05 0 0  2.0625 0 0  2.075 0 0  2.0875 0 0  2.1 0 0  2.1125 0 0  2.125 0 0  2.1375 0 0  2.15 0 0  2.1625 0 0  2.175 0 0  2.1875 0 0  2.2 0 0  2.2125 0 0  2.225 0 0  2.2375 0 0  2.25 0 0  2.2625 0 0  2.275 0 0  2.2875 0 0  2.3 0 0  2.3125 0 0  2.325 0 0  2.3375 0 0  2.35 0 0  2.3625 0 0  2.375 0 0  2.3875 0 0  2.4 0 0  2.4125 0 0  2.425 0 0  2.4375 0 0  2.45 0 0  2.4625 0 0  2.475 0 0  2.4875 0 0  2.5 0 0  2.5125 0 0  2.525 0 0  2.5375 0 0  2.55 0 0  2.5625 0 0  2.575 0 0  2.5875 0 0  2.6 0 0  2.6125 0 0  2.625 0 0  2.6375 0 0  2.65 0 0  2.6625 0 0  2.675 0 0  2.6875 0 0  2.7 0 0  2.7125 0 0  2.725 0 0  2.7375 0 0  2.75 0 0  2.7625 0 0  2.775 0 0  2.7875 0 0  2.8 0 0  2.8125 0 0  2.825 0 0  2.8375 0 0  2.85 0 0  2.8625 0 0  2.875 0 0  2.8875 0 0  2.9 0 0  2.9125 0 0  2.925 0 0  2.9375 0 0  2.95 0 0  2.9625 0 0  2.975 0 0  2.9875 0 0  3 0 0  3.012499999999999 0 0  3.025 0 0  3.0375 0 0  3.050000000000001 0 0  3.0625 0 0  3.074999999999999 0 0  3.0875 0 0  3.1 0 0  3.112500000000001 0 0  3.125 0 0  3.137499999999999 0 0  3.15 0 0  3.1625 0 0  3.175000000000001 0 0  3.1875 0 0  3.199999999999999 0 0  3.2125 0 0  3.225 0 0  3.237500000000001 0 0  3.25 0 0  3.262499999999999 0 0  3.275 0 0  3.2875 0 0  3.300000000000001 0 0  3.3125 0 0  3.324999999999999 0 0  3.3375 0 0  3.35 0 0  3.362500000000001 0 0  3.375 0 0  3.387499999999999 0 0  3.4 0 0  3.4125 0 0  3.425000000000001 0 0  3.4375 0 0  3.449999999999999 0 0  3.4625 0 0  3.475 0 0  3.4875
[...]
<PointData  Vectors="(h, u)"> 
<DataArray  type="Float64"  Name="(h, u)"  NumberOfComponents="3" format="ascii">5.5000000000000021e-02 0.0000000000000000e+00 0.0000000000000000e+00  5.5000000000000028e-02 -2.0627539991996393e-16 0.0000000000000000e+00  5.5000000000000000e-02 4.6676201068472836e-16 0.0000000000000000e+00  5.5000000000000007e-02 -7.4701435062895632e-16 0.0000000000000000e+00  5.5000000000000028e-02 8.7020053584420016e-17 0.0000000000000000e+00  5.5000000000000014e-02 -1.7998427538379411e-16 0.0000000000000000e+00  5.5000000000000042e-02 9.4278293568467316e-17 0.0000000000000000e+00  5.5000000000000007e-02 6.5229542961523909e-17 0.0000000000000000e+00  5.5000000000000035e-02 1.5293033822651853e-16 0.0000000000000000e+00  5.5000000000000007e-02 -5.5783309627153282e-16 0.0000000000000000e+00  5.5000000000000028e-02 6.7323501739724178e-16 0.0000000000000000e+00  5.5000000000000007e-02 -3.2263092337311826e-16 0.0000000000000000e+00  5.5000000000000014e-02 9.7675067190140248e-17 0.0000000000000000e+00  5.5000000000000028e-02 -2.6793632610981891e-17 0.0000000000000000e+00  5.5000000000000014e-02 4.6477295960367616e-17 0.0000000000000000e+00  5.5000000000000007e-02 2.1791102085036340e-16 0.0000000000000000e+00  5.5000000000000021e-02 -5.2100124817521283e-16 0.0000000000000000e+00  5.5000000000000021e-02 1.1525404514431560e-16 0.0000000000000000e+00  5.5000000000000028e-02 -1.0014538694978399e-16 0.0000000000000000e+00  5.5000000000000007e-02 -3.4129809666876113e-16 0.0000000000000000e+00  5.5000000000000028e-02 -3.1450026390984712e-16 0.0000000000000000e+00  5.5000000000000028e-02 4.4392393350436681e-16 0.0000000000000000e+00  5.5000000000000014e-02 1.5986918398079252e-16 0.0000000000000000e+00  5.5000000000000035e-02 4.2162568941930021e-16 0.0000000000000000e+00  5.5000000000000056e-02 -6.2013645582318846e-17 0.0000000000000000e+00  5.4999999999999966e-02 -2.6757418180598218e-16 0.0000000000000000e+00  5.5000000000000021e-02 2.7704062193859821e-16 0.0000000000000000e+00  5.5000000000000000e-02 -2.1940913389014588e-16 0.0000000000000000e+00  5.5000000000000028e-02 3.1946479805578203e-16 0.0000000000000000e+00  5.5000000000000028e-02 -2.0929528170407884e-16 0.0000000000000000e+00  5.4999999999999973e-02 -4.4052709321014690e-16 0.0000000000000000e+00  5.5000000000000028e-02 5.3054156002807620e-16 0.0000000000000000e+00  5.5000000000000007e-02 -7.1121569691617593e-17 0.0000000000000000e+00  5.5000000000000007e-02 4.2008438991611994e-16 0.0000000000000000e+00  5.5000000000000042e-02 -4.5052652009692515e-16 0.0000000000000000e+00  5.4999999999999959e-02 5.5436999029360716e-17 0.0000000000000000e+00  5.5000000000000007e-02 2.2563570479849330e-19 0.0000000000000000e+00  5.5000000000000014e-02 -5.0230682337290590e-17 0.0000000000000000e+00  5.5000000000000014e-02 4.2724515506627681e-16 0.0000000000000000e+00  5.5000000000000035e-02 -4.0471835539176459e-16 0.0000000000000000e+00  5.4999999999999959e-02 1.9048584705203516e-17 0.0000000000000000e+00  5.5000000000000007e-02 1.1538305996825616e-17 0.0000000000000000e+00  5.5000000000000014e-02 -5.4107506455897674e-17 0.0000000000000000e+00  5.5000000000000014e-02 4.2843117730420751e-16 0.0000000000000000e+00  5.5000000000000035e-02 -4.0462051677885483e-16 0.0000000000000000e+00  5.4999999999999959e-02 1.8287367501758408e-17 0.0000000000000000e+00  5.5000000000000007e-02 1.0543890701109066e-17 0.0000000000000000e+00  5.5000000000000021e-02 -1.0420247879358433e-16 0.0000000000000000e+00  5.5000000000000021e-02 5.1274741945529773e-16 0.0000000000000000e+00  5.5000000000000028e-02 -4.6082620898910219e-16 0.0000000000000000e+00  5.4999999999999973e-02 -3.5751749286345286e-17 0.0000000000000000e+00  5.5000000000000014e-02 7.7163341575743097e-17 0.0000000000000000e+00  5.5000000000000014e-02 -1.6821489313077785e-17 0.0000000000000000e+00  5.5000000000000014e-02 3.1343211495225174e-16 0.0000000000000000e+00  5.5000000000000035e-02 -2.9603032112138771e-16 0.0000000000000000e+00  5.4999999999999973e-02 -1.9391486273266182e-16 0.0000000000000000e+00  5.5000000000000035e-02 1.8007159519586725e-16 0.0000000000000000e+00  5.5000000000000000e-02 2.8987133031260690e-17 0.0000000000000000e+00  5.5000000000000021e-02 2.6422519759664447e-16 0.0000000000000000e+00  5.5000000000000007e-02 -3.2839384506864554e-16 0.0000000000000000e+00  5.5000000000000000e-02 -1.3652009941546302e-16 0.0000000000000000e+00  5.5000000000000021e-02 2.0080896776430525e-16 0.0000000000000000e+00  5.5000000000000042e-02 2.7413563009072369e-16 0.0000000000000000e+00  5.5000000000000007e-02 -4.0553201531811756e-16 0.0000000000000000e+00  5.5000000000000028e-02 -3.4644246254392857e-16 0.0000000000000000e+00  5.5000000000000028e-02 5.1678306122436242e-17 0.0000000000000000e+00  5.5000000000000028e-02 -1.6542213419709229e-17 0.0000000000000000e+00  5.5000000000000014e-02 -7.6781490261932305e-17 0.0000000000000000e+00  5.5000000000000021e-02 3.5269487132003180e-16 0.0000000000000000e+00  5.5000000000000014e-02 -5.1108397750692392e-16 0.0000000000000000e+00  5.5000000000000042e-02 -1.8700007299045814e-16 0.0000000000000000e+00  5.5000000000000021e-02 2.4631525544955333e-16 0.0000000000000000e+00  5.5000000000000028e-02 5.7898905547793852e-16 0.0000000000000000e+00  5.5000000000000007e-02 1.7016828283136837e-16 0.0000000000000000e+00  5.5000000000000007e-02 -7.2290255772983505e-17 0.0000000000000000e+00  5.5000000000000007e-02 4.6435650443073239e-16 0.0000000000000000e+00  5.5000000000000007e-02 -6.6451269373778955e-16 0.0000000000000000e+00  5.5000000000000021e-02 1.2642120518249195e-16 0.0000000000000000e+00  5.5000000000000000e-02 -2.8641783895827846e-18 0.0000000000000000e+00  5.5000000000000028e-02 1.0553707010033842e-16 0.0000000000000000e+00  5.5000000000000014e-02 1.3589083927019657e-16 0.0000000000000000e+00  5.5000000000000014e-02 -2.9970252087241169e-16 0.0000000000000000e+00  5.5000000000000021e-02 -2.0376597603009775e-17 0.0000000000000000e+00  5.5000000000000014e-02 5.4871026825959737e-16 0.0000000000000000e+00  5.5000000000000014e-02 4.0113748969654005e-16 0.0000000000000000e+00  5.5000000000000007e-02 6.1984418101782891e-17 0.0000000000000000e+00  5.5000000000000014e-02 -2.5249782161127947e-16 0.0000000000000000e+00  5.4999999999999993e-02 1.4412972532360343e-16 0.0000000000000000e+00  5.4999999999999993e-02 6.9164639528055731e-17 0.0000000000000000e+00  5.5000000000000000e-02 -2.8869247729752634e-16 0.0000000000000000e+00  5.5000000000000028e-02 8.9114437365275127e-17 0.0000000000000000e+00  5.5000000000000007e-02 7.6080128423849437e-17 0.0000000000000000e+00  5.5000000000000007e-02 -6.2251738684128631e-17 0.0000000000000000e+00  5.4999999999999993e-02 3.7564910562362852e-17 0.0000000000000000e+00  5.5000000000000028e-02 -3.4980438127793335e-16 0.0000000000000000e+00  5.5000000000000007e-02 2.1882866832617251e-16 0.0000000000000000e+00  5.5000000000000028e-02 3.0571261405536920e-16 0.0000000000000000e+00  5.5000000000000000e-02 -4.1514514648811090e-16 0.0000000000000000e+00  5.5000000000000014e-02 -4.2294735753538657e-17 0.0000000000000000e+00  5.5000000000000014e-02 -1.2960695809639002e-16 0.0000000000000000e+00  5.5000000000000028e-02 2.4547934661286785e-16 0.0000000000000000e+00  5.5000000000000007e-02 1.4053834312594142e-16 0.0000000000000000e+00  5.5000000000000007e-02 -2.8115609037428539e-16 0.0000000000000000e+00  5.5000000000000007e-02 1.9576071485643882e-16 0.0000000000000000e+00  5.5000000000000014e-02 -1.3984470017657070e-16 0.0000000000000000e+00  5.5000000000000021e-02 2.3939034688171628e-16 0.0000000000000000e+00  5.5000000000000007e-02 3.1921010951506969e-16 0.0000000000000000e+00  5.4999999999999986e-02 -2.1128009279187564e-16 0.0000000000000000e+00  5.5000000000000007e-02 -2.8900161721070125e-16 0.0000000000000000e+00  5.5000000000000014e-02 -2.0380361624436157e-17 0.0000000000000000e+00  5.5000000000000021e-02 1.8214730813790767e-16 0.0000000000000000e+00  5.5000000000000007e-02 3.4799929979348313e-16 0.0000000000000000e+00  5.4999999999999986e-02 -2.2531379207911555e-16 0.0000000000000000e+00  5.5000000000000007e-02 -2.8230257669040334e-16 0.0000000000000000e+00  5.5000000000000014e-02 -2.3534719690245450e-17 0.0000000000000000e+00  5.5000000000000021e-02 1.8361643281408225e-16 0.0000000000000000e+00  5.5000000000000007e-02 3.4732167473710676e-16 0.0000000000000000e+00  5.4999999999999986e-02 -2.2500399808438690e-16 0.0000000000000000e+00  5.5000000000000007e-02 -2.8244306124906279e-16 0.0000000000000000e+00  5.5000000000000014e-02 -2.3471486979727106e-17 0.0000000000000000e+00  5.5000000000000021e-02 1.8358816668614495e-16 0.0000000000000000e+00  5.5000000000000007e-02 3.4733423002327731e-16 0.0000000000000000e+00  5.4999999999999986e-02 -2.2500954206340194e-16 0.0000000000000000e+00  5.5000000000000007e-02 -2.8244062664570446e-16 0.0000000000000000e+00  5.5000000000000014e-02 -2.3472550644724782e-17 0.0000000000000000e+00  5.5000000000000021e-02 1.8358862916708991e-16 0.0000000000000000e+00  5.5000000000000007e-02 3.4733402984193109e-16 0.0000000000000000e+00  5.4999999999999986e-02 -2.2500945578331894e-16 0.0000000000000000e+00  5.5000000000000007e-02 -2.8244066368481247e-16 0.0000000000000000e+00  5.5000000000000014e-02 -2.3472534804183934e-17 0.0000000000000000e+00  5.5000000000000021e-02 1.8358862241672480e-16 0.0000000000000000e+00  5.5000000000000007e-02 3.4733403270883547e-16 0.0000000000000000e+00  5.4999999999999986e-02 -2.2500945699699283e-16 0.0000000000000000e+00  5.5000000000000007e-02 -2.8244066317258561e-16 0.0000000000000000e+00  5.5000000000000014e-02 -2.3472535019737859e-17 0.0000000000000000e+00  5.5000000000000021e-02 1.8358862250718237e-16 0.0000000000000000e+00  5.5000000000000007e-02 3.4733403267097587e-16 0.0000000000000000e+00  5.4999999999999986e-02 -2.2500945698118781e-16 0.0000000000000000e+00  5.5000000000000007e-02 -2.8244066317916826e-16 0.0000000000000000e+00  5.5000000000000014e-02 -2.3472535017003273e-17 0.0000000000000000e+00  5.5000000000000021e-02 1.8358862250604841e-16 0.0000000000000000e+00  5.5000000000000007e-02 3.4733403267144485e-16 0.0000000000000000e+00  5.4999999999999986e-02 -2.2500945698138137e-16 0.0000000000000000e+00  5.5000000000000007e-02 -2.8244066317908834e-16 0.0000000000000000e+00  5.5000000000000014e-02 -2.3472535017035965e-17 0.0000000000000000e+00  5.5000000000000021e-02 1.8358862250606172e-16 0.0000000000000000e+00  5.5000000000000007e-02 3.4733403267143952e-16 0.0000000000000000e+00  5.4999999999999986e-02 -2.2500945698137901e-16 0.0000000000000000e+00  5.5000000000000007e-02 -2.8244066317908917e-16 0.0000000000000000e+00  5.5000000000000014e-02 -2.3472535017035752e-17 0.0000000000000000e+00  5.5000000000000021e-02 1.8358862250606160e-16 0.0000000000000000e+00  5.5000000000000007e-02 3.4733403267143927e-16 0.0000000000000000e+00  5.4999999999999986e-02 -2.2500945698137921e-16 0.0000000000000000e+00  5.5000000000000007e-02 -2.8244066317908922e-16 0.0000000000000000e+00  5.5000000000000014e-02 -2.3472535017035573e-17 0.0000000000000000e+00  5.5000000000000021e-02 1.8358862250606167e-16 0.0000000000000000e+00  5.5000000000000007e-02 3.4733403267143967e-16 0.0000000000000000e+00  5.4999999999999986e-02 -2.2500945698137901e-16 0.0000000000000000e+00  5.5000000000000007e-02 -2.8244066317908917e-16 0.0000000000000000e+00  5.5000000000000014e-02 -2.3472535017035598e-17 0.0000000000000000e+00  5.5000000000000021e-02 1.8358862250606167e-16 0.0000000000000000e+00  5.5000000000000007e-02 3.4733403267143927e-16 0.0000000000000000e+00  5.4999999999999986e-02 -2.2500945698137921e-16 0.0000000000000000e+00  5.5000000000000007e-02 -2.8244066317908917e-16 0.0000000000000000e+00  5.5000000000000014e-02 -2.3472535017035626e-17 0.0000000000000000e+00  5.5000000000000021e-02 1.8358862250606162e-16 0.0000000000000000e+00  5.5000000000000007e-02 3.4733403267143927e-16 0.0000000000000000e+00  5.4999999999999986e-02 -2.2500945698137901e-16 0.0000000000000000e+00  5.5000000000000007e-02 -2.8244066317908917e-16 0.0000000000000000e+00  5.5000000000000014e-02 -2.3472535017035613e-17 0.0000000000000000e+00  5.5000000000000021e-02 1.8358862250606170e-16 0.0000000000000000e+00  5.5000000000000007e-02 3.4733403267143927e-16 0.0000000000000000e+00  5.4999999999999986e-02 -2.2500945698137901e-16 0.0000000000000000e+00  5.5000000000000007e-02 -2.8244066317908917e-16 0.0000000000000000e+00  5.5000000000000014e-02 -2.3472535017035604e-17 0.0000000000000000e+00  5.5000000000000021e-02 1.8358862250606167e-16 0.0000000000000000e+00  5.5000000000000007e-02 3.4733403267143927e-16 0.0000000000000000e+00  5.4999999999999986e-02 -2.2500945698137906e-16 0.0000000000000000e+00  5.5000000000000007e-02 -2.8244066317908927e-16 0.0000000000000000e+00  5.5000000000000014e-02 -2.3472535017035592e-17 0.0000000000000000e+00  5.5000000000000021e-02 1.8358862250606165e-16 0.0000000000000000e+00  5.5000000000000007e-02 3.4733403267143937e-16 0.0000000000000000e+00  5.4999999999999986e-02 -2.2500945698137911e-16 0.0000000000000000e+00  5.5000000000000007e-02 -2.8244066317908917e-16 0.0000000000000000e+00  5.5000000000000014e-02 -2.3472535017035638e-17 0.0000000000000000e+00  5.5000000000000021e-02 1.8358862250606175e-16 0.0000000000000000e+00  5.5000000000000007e-02 3.4733403267143918e-16 0.0000000000000000e+00  5.4999999999999986e-02 -2.2500945698137911e-16 0.0000000000000000e+00  5.5000000000000007e-02 -2.8244066317908932e-16 0.0000000000000000e+00  5.5000000000000014e-02 -2.3472535017035539e-17 0.0000000000000000e+00  5.5000000000000021e-02 1.8358862250606170e-16 0.0000000000000000e+00  5.5000000000000007e-02 3.4733403267143927e-16 0.0000000000000000e+00  5.4999999999999986e-02 -2.2500945698137921e-16 0.0000000000000000e+00  5.5000000000000007e-02 -2.8244066317908932e-16 0.0000000000000000e+00  5.5000000000000014e-02 -2.3472535017035657e-17 0.0000000000000000e+00  5.5000000000000021e-02 1.8358862250606145e-16 0.0000000000000000e+00  5.5000000000000007e-02 3.4733403267143972e-16 0.0000000000000000e+00  5.4999999999999986e-02 -2.2500945698137911e-16 0.0000000000000000e+00  5.5000000000000007e-02 -2.8244066317908903e-16 0.0000000000000000e+00  5.5000000000000014e-02 -2.3472535017035493e-17 0.0000000000000000e+00  5.5000000000000021e-02 1.8358862250606180e-16 0.0000000000000000e+00  5.5000000000000007e-02 3.4733403267143947e-16 0.0000000000000000e+00  5.4999999999999986e-02 -2.2500945698137891e-16 0.0000000000000000e+00  5.5000000000000007e-02 -2.8244066317908937e-16 0.0000000000000000e+00  5.5000000000000014e-02 -2.3472535017035610e-17 0.0000000000000000e+00  5.5000000000000021e-02 1.8358862250606175e-16 0.0000000000000000e+00  5.5000000000000007e-02 3.4733403267143918e-16 0.0000000000000000e+00  5.4999999999999986e-02 -2.2500945698137916e-16 0.0000000000000000e+00  5.5000000000000007e-02 -2.8244066317908947e-16 0.0000000000000000e+00  5.5000000000000014e-02 -2.3472535017035509e-17 0.0000000000000000e+00  5.5000000000000021e-02 1.8358862250606160e-16 0.0000000000000000e+00  5.5000000000000007e-02 3.4733403267143913e-16 0.0000000000000000e+00  5.4999999999999986e-02 -2.2500945698137925e-16 0.0000000000000000e+00  5.5000000000000007e-02 -2.8244066317908927e-16 0.0000000000000000e+00  5.5000000000000014e-02 -2.3472535017035721e-17 0.0000000000000000e+00  5.5000000000000021e-02 1.8358862250606155e-16 0.0000000000000000e+00  5.5000000000000007e-02 3.4733403267143967e-16 0.0000000000000000e+00  5.4999999999999986e-02 -2.2500945698137935e-16 0.0000000000000000e+00  5.5000000000000007e-02 -2.8244066317908908e-16 0.0000000000000000e+00  5.5000000000000014e-02 -2.3472535017035848e-17 0.0000000000000000e+00  5.5000000000000021e-02 1.8358862250606185e-16 0.0000000000000000e+00  5.5000000000000007e-02 3.4733403267143893e-16 0.0000000000000000e+00  5.4999999999999986e-02 -2.2500945698137856e-16 0.0000000000000000e+00  5.5000000000000007e-02 -2.8244066317909095e-16 0.0000000000000000e+00  5.5000000000000014e-02 -2.3472535017031863e-17 0.0000000000000000e+00  5.5000000000000021e-02 1.8358862250605243e-16 0.0000000000000000e+00  5.5000000000000007e-02 3.4733403267146141e-16 0.0000000000000000e+00  5.4999999999999986e-02 -2.2500945698143240e-16 0.0000000000000000e+00  5.5000000000000007e-02 -2.8244066317896069e-16 0.0000000000000000e+00  5.5000000000000014e-02 -2.3472535017343041e-17 0.0000000000000000e+00  5.5000000000000021e-02 1.8358862250679906e-16 0.0000000000000000e+00  5.5000000000000007e-02 3.4733403266967395e-16 0.0000000000000000e+00  5.4999999999999986e-02 -2.2500945697715486e-16 0.0000000000000000e+00  5.5000000000000007e-02 -2.8244066318918743e-16 0.0000000000000000e+00  5.5000000000000014e-02 -2.3472534992917282e-17 0.0000000000000000e+00  5.5000000000000021e-02 1.8358862244852578e-16 0.0000000000000000e+00  5.5000000000000007e-02 3.4733403280851263e-16 0.0000000000000000e+00  5.4999999999999986e-02 -2.2500945730744288e-16 0.0000000000000000e+00  5.5000000000000007e-02 -2.8244066240482210e-16 0.0000000000000000e+00  5.5000000000000014e-02 -2.3472536851926341e-17 0.0000000000000000e+00  5.5000000000000021e-02 1.8358862684459576e-16 0.0000000000000000e+00  5.5000000000000007e-02 3.4733402243941374e-16 0.0000000000000000e+00  5.4999999999999986e-02 -2.2500943291962710e-16 0.0000000000000000e+00  5.5000000000000007e-02 -2.8244071958049519e-16 0.0000000000000000e+00  5.5000000000000014e-02 -2.3472403286171867e-17 0.0000000000000000e+00  5.5000000000000021e-02 1.8358831606649187e-16 0.0000000000000000e+00  5.5000000000000007e-02 3.4733474236687336e-16 0.0000000000000000e+00  5.4999999999999986e-02 -2.2501109252717116e-16 0.0000000000000000e+00  5.5000000000000007e-02 -2.8243691438539105e-16 0.0000000000000000e+00  5.5000000000000014e-02 -2.3481076056557543e-17 0.0000000000000000e+00  5.5000000000000021e-02 1.8360795313149631e-16 0.0000000000000000e+00  5.5000000000000007e-02 3.4729060253335630e-16 0.0000000000000000e+00  5.4999999999999986e-02 -2.2491267271043846e-16 0.0000000000000000e+00  5.5000000000000007e-02 -2.8265441350005466e-16 0.0000000000000000e+00  5.5000000000000014e-02 -2.3005145341714846e-17 0.0000000000000000e+00  5.5000000000000021e-02 1.8257789080974593e-16 0.0000000000000000e+00  5.5000000000000007e-02 3.4949175130758040e-16 0.0000000000000000e+00  5.4999999999999986e-02 -2.2953497901077059e-16 0.0000000000000000e+00  5.5000000000000007e-02 -2.7324634133384095e-16 0.0000000000000000e+00  5.5000000000000014e-02 -4.1196350021952952e-17 0.0000000000000000e+00  5.5000000000000021e-02 2.2236635097277428e-16 0.0000000000000000e+00  5.5000000000000007e-02 9.8095925247417669e-17 0.0000000000000000e+00  5.5000000000000000e-02 -4.4213646246725534e-16 0.0000000000000000e+00  5.5000000000000014e-02 1.9635374772535783e-16 0.0000000000000000e+00  5.5000000000000007e-02 -1.8585174723100932e-17 0.0000000000000000e+00  5.5000000000000035e-02 2.4611255983343280e-17 0.0000000000000000e+00  5.5000000000000007e-02 3.9150779273046214e-16 0.0000000000000000e+00  5.5000000000000000e-02 -5.2837839211408245e-16 0.0000000000000000e+00  5.5000000000000014e-02 2.3883950606325413e-16 0.0000000000000000e+00  5.5000000000000000e-02 9.2857017483578296e-17 0.0000000000000000e+00  5.5000000000000028e-02 -1.2305506791850121e-16 0.0000000000000000e+00  5.5000000000000007e-02 2.0294682381929409e-16 0.0000000000000000e+00  5.5000000000000007e-02 -5.4199723851158398e-16 0.0000000000000000e+00  5.5000000000000014e-02 3.6139669898828260e-16 0.0000000000000000e+00  5.5000000000000014e-02 -4.0626206219248589e-16 0.0000000000000000e+00  5.5000000000000042e-02 -8.9016560947909050e-17 0.0000000000000000e+00  5.5000000000000014e-02 4.9356146281206569e-16 0.0000000000000000e+00  5.5000000000000000e-02 2.0144711135462322e-16 0.0000000000000000e+00  5.4999999999999993e-02 -2.6139105422236774e-16 0.0000000000000000e+00  5.5000000000000007e-02 -6.9306061774172557e-16 0.0000000000000000e+00  5.5000000000000035e-02 1.3710385336538832e-16 0.0000000000000000e+00  5.5000000000000028e-02 -1.1344597454756691e-16 0.0000000000000000e+