<?xml version="1.0"?>
<VTKFile type="UnstructuredGrid"  version="0.1"  >
<UnstructuredGrid>
<Piece  NumberOfPoints="801" NumberOfCells="800">
<Points>
<DataArray  type="Float64"  NumberOfComponents="3"  format="ascii">-5 0 0  -4.9875 0 0  -4.975 0 0  -4.9625 0 0  -4.95 0 0  -4.9375 0 0  -4.925 0 0  -4.9125 0 0  -4.9 0 0  -4.8875 0 0  -4.875 0 0  -4.8625 0 0  -4.85 0 0  -4.8375 0 0  -4.825 0 0  -4.8125 0 0  -4.8 0 0  -4.7875 0 0  -4.775 0 0  -4.7625 0 0  -4.75 0 0  -4.7375 0 0  -4.725 0 0  -4.7125 0 0  -4.7 0 0  -4.6875 0 0  -4.675 0 0  -4.6625 0 0  -4.65 0 0  -4.6375 0 0  -4.625 0 0  -4.6125 0 0  -4.6 0 0  -4.5875 0 0  -4.575 0 0  -4.5625 0 0  -4.55 0 0  -4.5375 0 0  -4.525 0 0  -4.5125 0 0  -4.5 0 0  -4.4875 0 0  -4.475 0 0  -4.4625 0 0  -4.45 0 0  -4.4375 0 0  -4.425 0 0  -4.4125 0 0  -4.4 0 0  -4.3875 0 0  -4.375 0 0  -4.3625 0 0  -4.35 0 0  -4.3375 0 0  -4.325 0 0  -4.3125 0 0  -4.3 0 0  -4.2875 0 0  -4.275 0 0  -4.2625 0 0  -4.25 0 0  -4.2375 0 0  -4.225 0 0  -4.2125 0 0  -4.2 0 0  -4.1875 0 0  -4.175 0 0  -4.1625 0 0  -4.15 0 0  -4.1375 0 0  -4.125 0 0  -4.1125 0 0  -4.1 0 0  -4.0875 0 0  -4.075 0 0  -4.0625 0 0  -4.05 0 0  -4.0375 0 0  -4.025 0 0  -4.0125 0 0  -4 0 0  -3.9875 0 0  -3.975 0 0  -3.9625 0 0  -3.95 0 0  -3.9375 0 0  -3.925 0 0  -3.9125 0 0  -3.9 0 0  -3.8875 0 0  -3.875 0 0  -3.8625 0 0  -3.85 0 0  -3.8375 0 0  -3.825 0 0  -3.8125 0 0  -3.8 0 0  -3.7875 0 0  -3.775 0 0  -3.7625 0 0  -3.75 0 0  -3.7375 0 0  -3.725 0 0  -3.7125 0 0  -3.7 0 0  -3.6875 0 0  -3.675 0 0  -3.6625 0 0  -3.65 0 0  -3.6375 0 0  -3.625 0 0  -3.6125 0 0  -3.6 0 0  -3.5875 0 0  -3.575 0 0  -3.5625 0 0  -3.55 0 0  -3.5375 0 0  -3.525 0 0  -3.5125 0 0  -3.5 0 0  -3.4875 0 0  -3.475 0 0  -3.4625 0 0  -3.45 0 0  -3.4375 0 0  -3.425 0 0  -3.4125 0 0  -3.4 0 0  -3.3875 0 0  -3.375 0 0  -3.3625 0 0  -3.35 0 0  -3.3375 0 0  -3.325 0 0  -3.3125 0 0  -3.3 0 0  -3.2875 0 0  -3.275 0 0  -3.2625 0 0  -3.25 0 0  -3.2375 0 0  -3.225 0 0  -3.2125 0 0  -3.2 0 0  -3.1875 0 0  -3.175 0 0  -3.1625 0 0  -3.15 0 0  -3.1375 0 0  -3.125 0 0  -3.1125 0 0  -3.1 0 0  -3.0875 0 0  -3.075 0 0  -3.0625 0 0  -3.05 0 0  -3.0375 0 0  -3.025 0 0  -3.0125 0 0  -3 0 0  -2.9875 0 0  -2.975 0 0  -2.9625 0 0  -2.95 0 0  -2.9375 0 0  -2.925 0 0  -2.9125 0 0  -2.9 0 0  -2.8875 0 0  -2.875 0 0  -2.8625 0 0  -2.85 0 0  -2.8375 0 0  -2.825 0 0  -2.8125 0 0  -2.8 0 0  -2.7875 0 0  -2.775 0 0  -2.7625 0 0  -2.75 0 0  -2.7375 0 0  -2.725 0 0  -2.7125 0 0  -2.7 0 0  -2.6875 0 0  -2.675 0 0  -2.6625 0 0  -2.65 0 0  -2.6375 0 0  -2.625 0 0  -2.6125 0 0  -2.6 0 0  -2.5875 0 0  -2.575 0 0  -2.5625 0 0  -2.55 0 0  -2.5375 0 0  -2.525 0 0  -2.5125 0 0  -2.5 0 0  -2.4875 0 0  -2.475 0 0  -2.4625 0 0  -2.45 0 0  -2.4375 0 0  -2.425 0 0  -2.4125 0 0  -2.4 0 0  -2.3875 0 0  -2.375 0 0  -2.3625 0 0  -2.35 0 0  -2.3375 0 0  -2.325 0 0  -2.3125 0 0  -2.3 0 0  -2.2875 0 0  -2.275 0 0  -2.2625 0 0  -2.25 0 0  -2.2375 0 0  -2.225 0 0  -2.2125 0 0  -2.2 0 0  -2.1875 0 0  -2.175 0 0  -2.1625 0 0  -2.15 0 0  -2.1375 0 0  -2.125 0 0  -2.1125 0 0  -2.1 0 0  -2.0875 0 0  -2.075 0 0  -2.0625 0 0  -2.05 0 0  -2.0375 0 0  -2.025 0 0  -2.0125 0 0  -2 0 0  -1.9875 0 0  -1.975 0 0  -1.9625 0 0  -1.95 0 0  -1.9375 0 0  -1.925 0 0  -1.9125 0 0  -1.9 0 0  -1.8875 0 0  -1.875 0 0  -1.8625 0 0  -1.85 0 0  -1.8375 0 0  -1.825 0 0  -1.8125 0 0  -1.8 0 0  -1.7875 0 0  -1.775 0 0  -1.7625 0 0  -1.75 0 0  -1.7375 0 0  -1.725 0 0  -1.7125 0 0  -1.7 0 0  -1.6875 0 0  -1.675 0 0  -1.6625 0 0  -1.65 0 0  -1.6375 0 0  -1.625 0 0  -1.6125 0 0  -1.6 0 0  -1.5875 0 0  -1.575 0 0  -1.5625 0 0  -1.55 0 0  -1.5375 0 0  -1.525 0 0  -1.5125 0 0  -1.5 0 0  -1.4875 0 0  -1.475 0 0  -1.4625 0 0  -1.45 0 0  -1.4375 0 0  -1.425 0 0  -1.4125 0 0  -1.4 0 0  -1.3875 0 0  -1.375 0 0  -1.3625 0 0  -1.35 0 0  -1.3375 0 0  -1.325 0 0  -1.3125 0 0  -1.3 0 0  -1.2875 0 0  -1.275 0 0  -1.2625 0 0  -1.25 0 0  -1.2375 0 0  -1.225 0 0  -1.2125 0 0  -1.2 0 0  -1.1875 0 0  -1.175 0 0  -1.1625 0 0  -1.15 0 0  -1.1375 0 0  -1.125 0 0  -1.1125 0 0  -1.1 0 0  -1.0875 0 0  -1.075 0 0  -1.0625 0 0  -1.05 0 0  -1.0375 0 0  -1.025 0 0  -1.0125 0 0  -1 0 0  -0.9874999999999998 0 0  -0.9749999999999996 0 0  -0.9625000000000004 0 0  -0.9500000000000002 0 0  -0.9375 0 0  -0.9249999999999998 0 0  -0.9124999999999996 0 0  -0.9000000000000004 0 0  -0.8875000000000002 0 0  -0.875 0 0  -0.8624999999999998 0 0  -0.8499999999999996 0 0  -0.8375000000000004 0 0  -0.8250000000000002 0 0  -0.8125 0 0  -0.7999999999999998 0 0  -0.7874999999999996 0 0  -0.7750000000000004 0 0  -0.7625000000000002 0 0  -0.75 0 0  -0.7374999999999998 0 0  -0.7249999999999996 0 0  -0.7125000000000004 0 0  -0.7000000000000002 0 0  -0.6875 0 0  -0.6749999999999998 0 0  -0.6624999999999996 0 0  -0.6500000000000004 0 0  -0.6375000000000002 0 0  -0.625 0 0  -0.6124999999999998 0 0  -0.5999999999999996 0 0  -0.5875000000000004 0 0  -0.5750000000000002 0 0  -0.5625 0 0  -0.5499999999999998 0 0  -0.5374999999999996 0 0  -0.5250000000000004 0 0  -0.5125000000000002 0 0  -0.5 0 0  -0.4874999999999998 0 0  -0.4749999999999996 0 0  -0.4625000000000004 0 0  -0.4500000000000002 0 0  -0.4375 0 0  -0.4249999999999998 0 0  -0.4124999999999996 0 0  -0.4000000000000004 0 0  -0.3875000000000002 0 0  -0.375 0 0  -0.3624999999999998 0 0  -0.3499999999999996 0 0  -0.3375000000000004 0 0  -0.3250000000000002 0 0  -0.3125 0 0  -0.2999999999999998 0 0  -0.2874999999999996 0 0  -0.2750000000000004 0 0  -0.2625000000000002 0 0  -0.25 0 0  -0.2374999999999998 0 0  -0.2249999999999996 0 0  -0.2125000000000004 0 0  -0.2000000000000002 0 0  -0.1875 0 0  -0.1749999999999998 0 0  -0.1624999999999996 0 0  -0.1500000000000004 0 0  -0.1375000000000002 0 0  -0.125 0 0  -0.1124999999999998 0 0  -0.09999999999999964 0 0  -0.08750000000000036 0 0  -0.07500000000000018 0 0  -0.0625 0 0  -0.04999999999999982 0 0  -0.03749999999999964 0 0  -0.02500000000000036 0 0  -0.01250000000000018 0 0  0 0 0  0.01250000000000018 0 0  0.02500000000000036 0 0  0.03749999999999964 0 0  0.04999999999999982 0 0  0.0625 0 0  0.07500000000000018 0 0  0.08750000000000036 0 0  0.09999999999999964 0 0  0.1124999999999998 0 0  0.125 0 0  0.1375000000000002 0 0  0.1500000000000004 0 0  0.1624999999999996 0 0  0.1749999999999998 0 0  0.1875 0 0  0.2000000000000002 0 0  0.2125000000000004 0 0  0.2249999999999996 0 0  0.2374999999999998 0 0  0.25 0 0  0.2625000000000002 0 0  0.2750000000000004 0 0  0.2874999999999996 0 0  0.2999999999999998 0 0  0.3125 0 0  0.3250000000000002 0 0  0.3375000000000004 0 0  0.3499999999999996 0 0  0.3624999999999998 0 0  0.375 0 0  0.3875000000000002 0 0  0.4000000000000004 0 0  0.4124999999999996 0 0  0.4249999999999998 0 0  0.4375 0 0  0.4500000000000002 0 0  0.4625000000000004 0 0  0.4749999999999996 0 0  0.4874999999999998 0 0  0.5 0 0  0.5125000000000002 0 0  0.5250000000000004 0 0  0.5374999999999996 0 0  0.5499999999999998 0 0  0.5625 0 0  0.5750000000000002 0 0  0.5875000000000004 0 0  0.5999999999999996 0 0  0.6124999999999998 0 0  0.625 0 0  0.6375000000000002 0 0  0.6500000000000004 0 0  0.6624999999999996 0 0  0.6749999999999998 0 0  0.6875 0 0  0.7000000000000002 0 0  0.7125000000000004 0 0  0.7249999999999996 0 0  0.7374999999999998 0 0  0.75 0 0  0.7625000000000002 0 0  0.7750000000000004 0 0  0.7874999999999996 0 0  0.7999999999999998 0 0  0.8125 0 0  0.8250000000000002 0 0  0.8375000000000004 0 0  0.8499999999999996 0 0  0.8624999999999998 0 0  0.875 0 0  0.8875000000000002 0 0  0.9000000000000004 0 0  0.9124999999999996 0 0  0.9249999999999998 0 0  0.9375 0 0  0.9500000000000002 0 0  0.9625000000000004 0 0  0.9749999999999996 0 0  0.9874999999999998 0 0  1 0 0  1.0125 0 0  1.025 0 0  1.0375 0 0  1.05 0 0  1.0625 0 0  1.075 0 0  1.0875 0 0  1.1 0 0  1.1125 0 0  1.125 0 0  1.1375 0 0  1.15 0 0  1.1625 0 0  1.175 0 0  1.1875 0 0  1.2 0 0  1.2125 0 0  1.225 0 0  1.2375 0 0  1.25 0 0  1.2625 0 0  1.275 0 0  1.2875 0 0  1.3 0 0  1.3125 0 0  1.325 0 0  1.3375 0 0  1.35 0 0  1.3625 0 0  1.375 0 0  1.3875 0 0  1.4 0 0  1.4125 0 0  1.425 0 0  1.4375 0 0  1.45 0 0  1.4625 0 0  1.475 0 0  1.4875 0 0  1.5 0 0  1.5125 0 0  1.525 0 0  1.5375 0 0  1.55 0 0  1.5625 0 0  1.575 0 0  1.5875 0 0  1.6 0 0  1.6125 0 0  1.625 0 0  1.6375 0 0  1.65 0 0  1.6625 0 0  1.675 0 0  1.6875 0 0  1.7 0 0  1.7125 0 0  1.725 0 0  1.7375 0 0  1.75 0 0  1.7625 0 0  1.775 0 0  1.7875 0 0  1.8 0 0  1.8125 0 0  1.825 0 0  1.8375 0 0  1.85 0 0  1.8625 0 0  1.875 0 0  1.8875 0 0  1.9 0 0  1.9125 0 0  1.925 0 0  1.9375 0 0  1.95 0 0  1.9625 0 0  1.975 0 0  1.9875 0 0  2 0 0  2.0125 0 0  2.025 0 0  2.0375 0 0  2.05 0 0  2.0625 0 0  2.075 0 0  2.0875 0 0  2.1 0 0  2.1125 0 0  2.125 0 0  2.1375 0 0  2.15 0 0  2.1625 0 0  2.175 0 0  2.1875 0 0  2.2 0 0  2.2125 0 0  2.225 0 0  2.2375 0 0  2.25 0 0  2.2625 0 0  2.275 0 0  2.2875 0 0  2.3 0 0  2.3125 0 0  2.325 0 0  2.3375 0 0  2.35 0 0  2.3625 0 0  2.375 0 0  2.3875 0 0  2.4 0 0  2.4125 0 0  2.425 0 0  2.4375 0 0  2.45 0 0  2.4625 0 0  2.475 0 0  2.4875 0 0  2.5 0 0  2.5125 0 0  2.525 0 0  2.5375 0 0  2.55 0 0  2.5625 0 0  2.575 0 0  2.5875 0 0  2.6 0 0  2.6125 0 0  2.625 0 0  2.6375 0 0  2.65 0 0  2.6625 0 0  2.675 0 0  2.6875 0 0  2.7 0 0  2.7125 0 0  2.725 0 0  2.7375 0 0  2.75 0 0  2.7625 0 0  2.775 0 0  2.7875 0 0  2.8 0 0  2.8125 0 0  2.825 0 0  2.8375 0 0  2.85 0 0  2.8625 0 0  2.875 0 0  2.8875 0 0  2.9 0 0  2.9125 0 0  2.925 0 0  2.9375 0 0  2.95 0 0  2.9625 0 0  2.975 0 0  2.9875 0 0  3 0 0  3.012499999999999 0 0  3.025 0 0  3.0375 0 0  3.050000000000001 0 0  3.0625 0 0  3.074999999999999 0 0  3.0875 0 0  3.1 0 0  3.112500000000001 0 0  3.125 0 0  3.137499999999999 0 0  3.15 0 0  3.1625 0 0  3.175000000000001 0 0  3.1875 0 0  3.199999999999999 0 0  3.2125 0 0  3.225 0 0  3.237500000000001 0 0  3.25 0 0  3.262499999999999 0 0  3.275 0 0  3.2875 0 0  3.300000000000001 0 0  3.3125 0 0  3.324999999999999 0 0  3.3375 0 0  3.35 0 0  3.362500000000001 0 0  3.375 0 0  3.387499999999999 0 0  3.4 0 0  3.4125 0 0  3.425000000000001 0 0  3.4375 0 0  3.449999999999999 0 0  3.4625 0 0  3.475 0 0  3.4875
[...]
<PointData  Vectors="(h, u)"> 
<DataArray  type="Float64"  Name="(h, u)"  NumberOfComponents="3" format="ascii">3.7772955116849644e-01 0.0000000000000000e+00 0.0000000000000000e+00  3.7463670610516264e-01 9.6259770197229966e-03 0.0000000000000000e+00  3.7772406113399354e-01 1.8821916940394211e-02 0.0000000000000000e+00  3.7462593731490396e-01 2.8877444838675236e-02 0.0000000000000000e+00  3.7770813543060061e-01 3.7643984433512752e-02 0.0000000000000000e+00  3.7460483672187611e-01 4.8129355326857158e-02 0.0000000000000000e+00  3.7768153136016414e-01 5.6469130517938393e-02 0.0000000000000000e+00  3.7457273601608682e-01 6.7383971759051947e-02 0.0000000000000000e+00  3.7764393641292876e-01 7.5298089587724076e-02 0.0000000000000000e+00  3.7453012899457128e-01 8.6638977296546030e-02 0.0000000000000000e+00  3.7759605215150122e-01 9.4129440486384178e-02 0.0000000000000000e+00  3.7447702298552077e-01 1.0589601501047780e-01 0.0000000000000000e+00  3.7753697521658736e-01 1.1296873191021953e-01 0.0000000000000000e+00  3.7441266417933339e-01 1.2515833936787951e-01 0.0000000000000000e+00  3.7746708781296323e-01 1.3181391559102393e-01 0.0000000000000000e+00  3.7433828636906963e-01 1.4442003567486042e-01 0.0000000000000000e+00  3.7738678744312648e-01 1.5066440081371538e-01 0.0000000000000000e+00  3.7425268476935764e-01 1.6368820483524724e-01 0.0000000000000000e+00  3.7729448786414449e-01 1.6952901246446803e-01 0.0000000000000000e+00  3.7415610569564878e-01 1.8296140093834318e-01 0.0000000000000000e+00  3.7719220547149895e-01 1.8839759197342329e-01 0.0000000000000000e+00  3.7404980412747085e-01 2.0223353030815922e-01 0.0000000000000000e+00  3.7707817692389900e-01 2.0728016818403458e-01 0.0000000000000000e+00  3.7393086764230327e-01 2.2152003544340149e-01 0.0000000000000000e+00  3.7695229024979621e-01 2.2617788466058794e-01 0.0000000000000000e+00  3.7380288272307460e-01 2.4080276676957349e-01 0.0000000000000000e+00  3.7681700450975880e-01 2.4507838983121963e-01 0.0000000000000000e+00  3.7366308223746536e-01 2.6009597124251277e-01 0.0000000000000000e+00  3.7666713527591039e-01 2.6400911742708566e-01 0.0000000000000000e+00  3.7351138267733697e-01 2.7940044174526629e-01 0.0000000000000000e+00  3.7650889107090280e-01 2.8293862059093233e-01 0.0000000000000000e+00  3.7335195261866594e-01 2.9869554220611799e-01 0.0000000000000000e+00  3.7633678554508393e-01 3.0189511405726055e-01 0.0000000000000000e+00  3.7317622965978958e-01 3.1802495649511481e-01 0.0000000000000000e+00  3.7615234625158944e-01 3.2087190897108503e-01 0.0000000000000000e+00  3.7299564402115787e-01 3.3733003958983626e-01 0.0000000000000000e+00  3.7595996544273402e-01 3.3984732815887236e-01 0.0000000000000000e+00  3.7279834729514716e-01 3.5667236393431367e-01 0.0000000000000000e+00  3.7574740535386242e-01 3.5888268584286365e-01 0.0000000000000000e+00  3.7259304788081105e-01 3.7600957134518265e-01 0.0000000000000000e+00  3.7553358926632102e-01 3.7788135473724455e-01 0.0000000000000000e+00  3.7237804244320033e-01 3.9534765303940994e-01 0.0000000000000000e+00  3.7529456937260008e-01 3.9697211794332765e-01 0.0000000000000000e+00  3.7214358447320345e-01 4.1473325979706988e-01 0.0000000000000000e+00  3.7505601706789626e-01 4.1602078382823282e-01 0.0000000000000000e+00  3.7191311746136974e-01 4.3405700340060083e-01 0.0000000000000000e+00  3.7479320607216482e-01 4.3514303242541541e-01 0.0000000000000000e+00  3.7165024268199137e-01 4.5351007857986902e-01 0.0000000000000000e+00  3.7452257957648999e-01 4.5426471588938355e-01 0.0000000000000000e+00  3.7140333777617535e-01 4.7282135325065650e-01 0.0000000000000000e+00  3.7424373929521687e-01 4.7341569613479034e-01 0.0000000000000000e+00  3.7110809902978331e-01 4.9231147019929417e-01 0.0000000000000000e+00  3.7393921310975331e-01 4.9265863101187957e-01 0.0000000000000000e+00  3.7084421508742860e-01 5.1163434239035432e-01 0.0000000000000000e+00  3.7363886330757112e-01 5.1177789676720919e-01 0.0000000000000000e+00  3.7053122340771372e-01 5.3121761893633146e-01 0.0000000000000000e+00  3.7328785792457164e-01 5.3112417794529698e-01 0.0000000000000000e+00  3.7024330106391617e-01 5.5054127566027511e-01 0.0000000000000000e+00  3.7298956188854138e-01 5.5031105441861317e-01 0.0000000000000000e+00  3.6988294056225668e-01 5.7006253616204783e-01 0.0000000000000000e+00  3.7260928159819579e-01 5.6989026832166301e-01 0.0000000000000000e+00  3.6958023939388973e-01 5.8943181292186497e-01 0.0000000000000000e+00  3.7226761196142610e-01 5.8889292695062456e-01 0.0000000000000000e+00  3.6924004079600375e-01 6.0928070976941251e-01 0.0000000000000000e+00  3.7179833607119683e-01 6.0843882179354702e-01 0.0000000000000000e+00  3.6892177598027981e-01 6.2862845645802312e-01 0.0000000000000000e+00  3.7151187044757039e-01 6.2775090237764164e-01 0.0000000000000000e+00  3.6842558141628906e-01 6.4802613923104335e-01 0.0000000000000000e+00  3.7110239654790239e-01 6.4805165278856214e-01 0.0000000000000000e+00  3.6808094396135815e-01 6.6712176238826915e-01 0.0000000000000000e+00  3.7069348907800681e-01 6.6680556788643963e-01 0.0000000000000000e+00  3.6775912673211492e-01 6.8803702091892871e-01 0.0000000000000000e+00  3.6996379911026972e-01 6.8579255791346250e-01 0.0000000000000000e+00  3.6760553826607506e-01 7.0768653006507665e-01 0.0000000000000000e+00  3.6963906755056730e-01 7.0534790547770521e-01 0.0000000000000000e+00  3.6671846731695001e-01 7.2667551816445397e-01 0.0000000000000000e+00  3.6958427018194717e-01 7.2763319182248887e-01 0.0000000000000000e+00  3.6607830224553989e-01 7.4311418017203346e-01 0.0000000000000000e+00  3.6917187313694877e-01 7.4799607659722001e-01 0.0000000000000000e+00  3.6581039043735558e-01 7.6627154648914364e-01 0.0000000000000000e+00  3.6784986825344695e-01 7.6237466509741070e-01 0.0000000000000000e+00  3.6669968460067875e-01 7.9058894602318286e-01 0.0000000000000000e+00  3.6634892129643398e-01 7.7965695247783440e-01 0.0000000000000000e+00  3.6581840139435717e-01 8.0996185310255375e-01 0.0000000000000000e+00  3.6767291702505361e-01 8.0553232363311988e-01 0.0000000000000000e+00  3.6283812469817844e-01 8.1697921998194734e-01 0.0000000000000000e+00  3.6917057947670967e-01 8.4038536123569951e-01 0.0000000000000000e+00  3.6149181395900970e-01 8.2988025451733272e-01 0.0000000000000000e+00  3.6738659487998709e-01 8.5105904272083777e-01 0.0000000000000000e+00  3.6484416662665037e-01 8.7500288017175321e-01 0.0000000000000000e+00  3.6064430159674943e-01 8.3940497234869116e-01 0.0000000000000000e+00  3.7011876796998561e-01 9.1914753073928079e-01 0.0000000000000000e+00  3.5831024851907717e-01 8.5465665155914450e-01 0.0000000000000000e+00  3.6411525922856347e-01 9.1473533865434631e-01 0.0000000000000000e+00  3.6967393282103866e-01 9.3053738461537017e-01 0.0000000000000000e+00  3.4873212231464235e-01 8.5930681182826818e-01 0.0000000000000000e+00  3.7969503399591126e-01 1.0109037802748428e+00 0.0000000000000000e+00  3.4749262299368400e-01 8.6900433973360502e-01 0.0000000000000000e+00  3.6465709121893514e-01 9.6065386506821615e-01 0.0000000000000000e+00  3.7381521541254886e-01 1.0376615591584759e+00 0.0000000000000000e+00  3.3007416143636115e-01 7.9142778544508730e-01 0.0000000000000000e+00  3.9789527875401326e-01 1.1819254902483896e+00 0.0000000000000000e+00  3.2640284508894268e-01 8.0609651578098640e-01 0.0000000000000000e+00  3.6161815047138407e-01 1.0275281762495942e+00 0.0000000000000000e+00  3.9037084547074158e-01 1.1699081298282472e+00 0.0000000000000000e+00  2.7388742589191772e-01 5.8378895848984058e-01 0.0000000000000000e+00  4.5315722468310404e-01 1.4105518684230582e+00 0.0000000000000000e+00  1.7834937361091169e-01 3.1245648364957501e-01 0.0000000000000000e+00  7.1894857792430641e-02 -1.8165155064376421e+00 0.0000000000000000e+00  8.5171144881906885e-02 -1.0897582167041937e+00 0.0000000000000000e+00  8.2568742446797849e-02 -1.3288242952971472e+00 0.0000000000000000e+00  8.3408421553630194e-02 -1.2522342212126509e+00 0.0000000000000000e+00  8.0992679290290179e-02 -1.2820219940036077e+00 0.0000000000000000e+00  8.2449497583787640e-02 -1.2541918927633355e+00 0.0000000000000000e+00  8.0102479737707261e-02 -1.2864590473116657e+00 0.0000000000000000e+00  8.1290429823187432e-02 -1.2437080151058777e+00 0.0000000000000000e+00  7.9080187767533311e-02 -1.2907308158859936e+00 0.0000000000000000e+00  8.0312013002742433e-02 -1.2365674266964553e+00 0.0000000000000000e+00  7.7938274979500469e-02 -1.2922329778833501e+00 0.0000000000000000e+00  7.9368062325330557e-02 -1.2315861220151032e+00 0.0000000000000000e+00  7.6807631269069532e-02 -1.2926197103739669e+00 0.0000000000000000e+00  7.8381187012132258e-02 -1.2275605688115045e+00 0.0000000000000000e+00  7.5718429159601697e-02 -1.2926018012837510e+00 0.0000000000000000e+00  7.7347977739297372e-02 -1.2241171121926591e+00 0.0000000000000000e+00  7.4660843010896802e-02 -1.2923962508623135e+00 0.0000000000000000e+00  7.6280951133983990e-02 -1.2211319380428909e+00 0.0000000000000000e+00  7.3621955562736124e-02 -1.2921144247467955e+00 0.0000000000000000e+00  7.5190260933843414e-02 -1.2185271747676885e+00 0.0000000000000000e+00  7.2592593515255655e-02 -1.2918445120418300e+00 0.0000000000000000e+00  7.4082375978791457e-02 -1.2162452264218568e+00 0.0000000000000000e+00  7.1566565152751727e-02 -1.2916559021939962e+00 0.0000000000000000e+00  7.2961290069021675e-02 -1.2142489851413525e+00 0.0000000000000000e+00  7.0539563462449023e-02 -1.2916004057658328e+00 0.0000000000000000e+00  7.1829376917102478e-02 -1.2125188631687016e+00 0.0000000000000000e+00  6.9508506908597237e-02 -1.2917166365063886e+00 0.0000000000000000e+00  7.0687905999910927e-02 -1.2110482391143826e+00 0.0000000000000000e+00  6.8471116610082775e-02 -1.2920345247580793e+00 0.0000000000000000e+00  6.9537393973214498e-02 -1.2098395913793976e+00 0.0000000000000000e+00  6.7425620646821213e-02 -1.2925787671718876e+00 0.0000000000000000e+00  6.8377854018285153e-02 -1.2089017268140660e+00 0.0000000000000000e+00  6.6370551064530464e-02 -1.2933712081208979e+00 0.0000000000000000e+00  6.7208969544394648e-02 -1.2082478864577837e+00 0.0000000000000000e+00  6.5304614290899288e-02 -1.2944323831768085e+00 0.0000000000000000e+00  6.6030214997832778e-02 -1.2078944399866924e+00 0.0000000000000000e+00  6.4226618643443950e-02 -1.2957824195628711e+00 0.0000000000000000e+00  6.4840945794730362e-02 -1.2078599087101149e+00 0.0000000000000000e+00  6.3135447533954711e-02 -1.2974414089113873e+00 0.0000000000000000e+00  6.3640477468469084e-02 -1.2081640809728518e+00 0.0000000000000000e+00  6.2030074099963667e-02 -1.2994292751833114e+00 0.0000000000000000e+00  6.2428173271972420e-02 -1.2088269809752576e+00 0.0000000000000000e+00  6.0909620875816008e-02 -1.3017650575171296e+00 0.0000000000000000e+00  6.1203561505564948e-02 -1.2098674082039029e+00 0.0000000000000000e+00  5.9773476928351797e-02 -1.3044654035825274e+00 0.0000000000000000e+00  5.9966508951241677e-02 -1.2113006758006981e+00 0.0000000000000000e+00  5.8621495389342006e-02 -1.3075419094535317e+00 0.0000000000000000e+00  5.8717484738028604e-02 -1.2131350404064416e+00 0.0000000000000000e+00  5.7454306030424042e-02 -1.3109967484370184e+00 0.0000000000000000e+00  5.7457958146302592e-02 -1.2153661482888598e+00 0.0000000000000000e+00  5.6273786694371927e-02 -1.3148158488269872e+00 0.0000000000000000e+00  5.6190976804176077e-02 -1.2179687174960370e+00 0.0000000000000000e+00  5.5083732327940983e-02 -1.3189588688351146e+00 0.0000000000000000e+00  5.4921949183495369e-02 -1.2208848983379768e+00 0.0000000000000000e+00  5.3890714620223636e-02 -1.3233457634733345e+00 0.0000000000000000e+00  5.3659571268024078e-02 -1.2240098345080372e+00 0.0000000000000000e+00  5.2704996729278475e-02 -1.3278415111418107e+00 0.0000000000000000e+00  5.2416650942347404e-02 -1.2271775589853156e+00 0.0000000000000000e+00  5.1541133849104782e-02 -1.3322440651532530e+00 0.0000000000000000e+00  5.1210319101709104e-02 -1.2301543772709154e+00 0.0000000000000000e+00  5.0417652385468414e-02 -1.3362846207857200e+00 0.0000000000000000e+00  5.0060983256417203e-02 -1.2326495525529244e+00 0.0000000000000000e+00  4.9355264979621151e-02 -1.3396494251784590e+00 0.0000000000000000e+00  4.8989729283968525e-02 -1.2343491660596326e+00 0.0000000000000000e+00  4.8373707728783320e-02 -1.3420240644805450e+00 0.0000000000000000e+00  4.8014725601448288e-02 -1.2349672526683917e+00 0.0000000000000000e+00  4.7488156725480395e-02 -1.3431479417339998e+00 0.0000000000000000e+00  4.7147898586412496e-02 -1.2342969001716928e+00 0.0000000000000000e+00  4.6706575919276655e-02 -1.3428588669563750e+00 0.0000000000000000e+00  4.6393155942783440e-02 -1.2322418247286675e+00 0.0000000000000000e+00  4.6028992353240705e-02 -1.3411108483338328e+00 0.0000000000000000e+00  4.5746746800201715e-02 -1.2288174670771419e+00 0.0000000000000000e+00  4.5448789148595237e-02 -1.3379609372694137e+00 0.0000000000000000e+00  4.5199332395039538e-02 -1.2241255316864663e+00 0.0000000000000000e+00  4.4955186290145603e-02 -1.3335357183773675e+00 0.0000000000000000e+00  4.4738673816857394e-02 -1.2183169568403784e+00 0.0000000000000000e+00  4.4535786903842856e-02 -1.3279941013139394e+00 0.0000000000000000e+00  4.4351933822894762e-02 -1.2115583637165261e+00 0.0000000000000000e+00  4.4178448873612060e-02 -1.3214984487731172e+00 0.0000000000000000e+00  4.4027142889304108e-02 -1.2040095400828847e+00 0.0000000000000000e+00  4.3872312688203186e-02 -1.3141976571986349e+00 0.0000000000000000e+00  4.3753878570820033e-02 -1.1958120874544864e+00 0.0000000000000000e+00  4.3608172888390195e-02 -1.3062200801680826e+00 0.0000000000000000e+00  4.3523418467043648e-02 -1.1870858891239213e+00 0.0000000000000000e+00  4.3378463193991558e-02 -1.2976725330255992e+00 0.0000000000000000e+00  4.3328619302619706e-02 -1.1779298634436179e+00 0.0000000000000000e+00  4.3177065494742442e-02 -1.2886422696693867e+00 0.0000000000000000e+00  4.3163690515129138e-02 -1.1684245385393228e+00 0.0000000000000000e+00  4.2999067266519947e-02 -1.2792000082529156e+00 0.0000000000000000e+00  4.3023952339257966e-02 -1.1586350767981315e+00 0.0000000000000000e+00  4.2840527932126872e-02 -1.2694030239116150e+00 0.0000000000000000e+00  4.2905617676964665e-02 -1.1486141137218853e+00 0.0000000000000000e+00  4.2698277422507404e-02 -1.2592978962007091e+00 0.0000000000000000e+00  4.2805609937847024e-02 -1.1384041835031704e+00 0.0000000000000000e+00  4.2569751764048189e-02 -1.2489227922618997e+00 0.0000000000000000e+00  4.2721416690602532e-02 -1.1280396977861435e+00 0.0000000000000000e+00  4.2452862737946892e-02 -1.2383092981606429e+00 0.0000000000000000e+00  4.2650974185786845e-02 -1.1175485252357222e+00 0.0000000000000000e+00  4.2345896138978850e-02 -1.2274838594506392e+00 0.0000000000000000e+00  4.2592577207699031e-02 -1.1069532363436108e+00 0.0000000000000000e+00  4.2247432634617936e-02 -1.2164689074307409e+00 0.0000000000000000e+00  4.2544808507289554e-02 -1.0962720866354747e+00 0.0000000000000000e+00  4.2156287271946091e-02 -1.2052837210764560e+00 0.0000000000000000e+00  4.2506483064008074e-02 -1.0855198005299118e+00 0.0000000000000000e+00  4.2071461741797239e-02 -1.1939451081938948e+00 0.0000000000000000e+00  4.2476606060164138e-02 -1.0747081665160481e+00 0.0000000000000000e+00  4.1992107125958092e-02 -1.1824679356274639e+00 0.0000000000000000e+00  4.2454336506098714e-02 -1.0638465600014395e+00 0.0000000000000000e+00  4.1917498415392218e-02 -1.1708654850248477e+00 0.0000000000000000e+00  4.2438959805222151e-02 -1.0529423415993047e+00 0.0000000000000000e+00  4.1847006848692921e-02 -1.1591498479656122e+00 0.0000000000000000e+00  4.2429871344102782e-02 -1.0420010976101310e+00 0.0000000000000000e+00  4.1780085587551120e-02 -1.1473321174567495e+00 0.0000000000000000e+00  4.2426544660710566e-02 -1.0310271172861323e+00 0.0000000000000000e+00  4.1716266850495516e-02 -1.1354224049159869e+00 0.0000000000000000e+00  4.2428526953088769e-02 -1.0200234642874297e+00 0.0000000000000000e+00  4.1655119534801700e-02 -1.1234304725492930e+00 0.0000000000000000e+00  4.2435450691898260e-02 -1.0089918104511204e+00 0.0000000000000000e+00  4.1596262111509678e-02 -1.1113655065451264e+00 0.0000000000000000e+00  4.2446956970262829e-02 -9.9793359637768186e-01 0.0000000000000000e+00  4.1539406133901516e-02 -1.0992354201849117e+00 0.0000000000000000e+00  4.2462727150801627e-02 -9.8684956584210026e-01 0.0000000000000000e+00  4.1484212647041725e-02 -1.0870490663791528e+00 0.0000000000000000e+00  4.2482608653653754e-02 -9.7573788953132523e-01 0.0000000000000000e+00  4.1430319540707868e-02 -1.0748157838476133e+00 0.0000000000000000e+00  4.2506358752610753e-02 -9.6459802930337202e-01 0.0000000000000000e+00  4.1377639401806207e-02 -1.0625407534481606e+00 0.0000000000000000e+00  4.2533585043158538e-02 -9.5343163782413420e-01 0.0000000000000000e+00  4.1325955393627420e-02 -1.0502312834758851e+00 0.0000000000000000e+00  4.2564450885153156e-02 -9.4223196356449679e-01 0.0000000000000000e+00  4.1274449883872757e-02 -1.0379040925932463e+00 0.0000000000000000e+00  4.2599346274924808e-02 -9.3098883262509113e-01 0.0000000000000000e+00  4.1222922113274781e-02 -1.0255663276363296e+00 0.0000000000000000e+00  4.2637390583313013e-02 -9.1971117676745295e-01 0.0000000000000000e+00  4.1172330333604949e-02 -1.0132071999674166e+00 0.0000000000000000e+00  4.2677745766914590e-02 -9.0840725166180281e-01 0.0000000000000000e+00  4.1121758150444825e-02 -1.0008451818895319e+00 0.0000000000000000e+00  4.2722966744622483e-02 -8.9703428543582298e-01 0.0000000000000000e+00  4.1067135096616025e-02 -9.8854765443231485e-01 0.0000000000000000e+00  4.2776514771409355e-02 -8.8553605502904986e-01 0.0000000000000000e+00  4.1007384084507367e-02 -9.7633512975458203e-01 0.0000000000000000e+00  4.2835149622487738e-02 -8.7395737678018814e-01 0.0000000000000000e+00  4.0949175261965752e-02 -9.6410767427207322e-01 0.0000000000000000e+00  4.2890585462903578e-02 -8.6241891562308204e-01 0.0000000000000000e+00  4.0897140428052370e-02 -9.5179754913308445e-01 0.0000000000000000e+00  4.2945873152098982e-02 -8.5087060620591937e-01 0.0000000000000000e+00  4.0836462550290470e-02 -9.3963950380666783e-01 0.0000000000000000e+00  4.3028161105798331e-02 -8.3890028805507255e-01 0.0000000000000000e+00  4.0731196421871167e-02 -9.2819558238787891e-01 0.0000000000000000e+00  4.3177340087538110e-02 -8.2590608798003828e-01 0.0000000000000000e+00  4.0547220313146719e-02 -9.1799848996913125e-01 0.0000000000000000e+00  4.3416419213893408e-02 -8.1154370497566530e-01 0.0000000000000000e+00  4.0280488250811736e-02 -9.0911411290194710e-01 0.0000000000000000e+00  4.3730536584077120e-02 -7.9604039123830883e-01 0.0000000000000000e+00  3.9964736092158087e-02 -9.0102052728630244e-01 0.0000000000000000e+00  4.4072563260203500e-02 -7.8010472402104003e-01 0.0000000000000000e+00  3.9653500166517447e-02 -8.9288400100918097e-01 0.0000000000000000e+00  4.4388108948077751e-02 -7.6454681236420885e-01 0.0000000000000000e+00  3.9393455054841764e-02 -8.8397427829552067e-01 0.0000000000000000e+00  4.4639235102431431e-02 -7.4992471091496471e-01 0.0000000000000000e+00  3.9208232596455284e-02 -8.7392176497713703e-01 0.0000000000000000e+00  4.4813165372036189e-02 -7.3641914159750410e-01 0.0000000000000000e+00  3.9098337601063710e-02 -8.6272269677483904e-01 0.0000000000000000e+00  4.4916891623356776e-02 -7.2391746795146350e-01 0.0000000000000000e+00  3.9050518170808630e-02 -8.5059224547176437e-01 0.0000000000000000e+00  4.4966533077684383e-02 -7.1217312523568221e-01 0.0000000000000000e+00  3.9047721805284881e-02 -8.3780615619773824e-01 0.0000000000000000e+00  4.4978770780505495e-02 -7.0093270958324827e-01 0.0000000000000000e+00  3.9075104031217001e-02 -8.2460475451779824e-01 0.0000000000000000e+00  4.4966771863076370e-02 -6.8999602634046608e-01 0.0000000000000000e+00  3.9121969983834007e-02 -8.1116200218865364e-01 0.0000000000000000e+00  4.4939476390550022e-02 -6.7922623895556400e-01 0.0000000000000000e+00  3.9181420260106778e-02 -7.9759124299857143e-01 0.0000000000000000e+00  4.4902471899435178e-02 -6.6853650174935808e-0