<?xml version="1.0"?>
<VTKFile type="UnstructuredGrid"  version="0.1"  >
<UnstructuredGrid>
<Piece  NumberOfPoints="801" NumberOfCells="800">
<Points>
<DataArray  type="Float64"  NumberOfComponents="3"  format="ascii">-5 0 0  -4.9875 0 0  -4.975 0 0  -4.9625 0 0  -4.95 0 0  -4.9375 0 0  -4.925 0 0  -4.9125 0 0  -4.9 0 0  -4.8875 0 0  -4.875 0 0  -4.8625 0 0  -4.85 0 0  -4.8375 0 0  -4.825 0 0  -4.8125 0 0  -4.8 0 0  -4.7875 0 0  -4.775 0 0  -4.7625 0 0  -4.75 0 0  -4.7375 0 0  -4.725 0 0  -4.7125 0 0  -4.7 0 0  -4.6875 0 0  -4.675 0 0  -4.6625 0 0  -4.65 0 0  -4.6375 0 0  -4.625 0 0  -4.6125 0 0  -4.6 0 0  -4.5875 0 0  -4.575 0 0  -4.5625 0 0  -4.55 0 0  -4.5375 0 0  -4.525 0 0  -4.5125 0 0  -4.5 0 0  -4.4875 0 0  -4.475 0 0  -4.4625 0 0  -4.45 0 0  -4.4375 0 0  -4.425 0 0  -4.4125 0 0  -4.4 0 0  -4.3875 0 0  -4.375 0 0  -4.3625 0 0  -4.35 0 0  -4.3375 0 0  -4.325 0 0  -4.3125 0 0  -4.3 0 0  -4.2875 0 0  -4.275 0 0  -4.2625 0 0  -4.25 0 0  -4.2375 0 0  -4.225 0 0  -4.2125 0 0  -4.2 0 0  -4.1875 0 0  -4.175 0 0  -4.1625 0 0  -4.15 0 0  -4.1375 0 0  -4.125 0 0  -4.1125 0 0  -4.1 0 0  -4.0875 0 0  -4.075 0 0  -4.0625 0 0  -4.05 0 0  -4.0375 0 0  -4.025 0 0  -4.0125 0 0  -4 0 0  -3.9875 0 0  -3.975 0 0  -3.9625 0 0  -3.95 0 0  -3.9375 0 0  -3.925 0 0  -3.9125 0 0  -3.9 0 0  -3.8875 0 0  -3.875 0 0  -3.8625 0 0  -3.85 0 0  -3.8375 0 0  -3.825 0 0  -3.8125 0 0  -3.8 0 0  -3.7875 0 0  -3.775 0 0  -3.7625 0 0  -3.75 0 0  -3.7375 0 0  -3.725 0 0  -3.7125 0 0  -3.7 0 0  -3.6875 0 0  -3.675 0 0  -3.6625 0 0  -3.65 0 0  -3.6375 0 0  -3.625 0 0  -3.6125 0 0  -3.6 0 0  -3.5875 0 0  -3.575 0 0  -3.5625 0 0  -3.55 0 0  -3.5375 0 0  -3.525 0 0  -3.5125 0 0  -3.5 0 0  -3.4875 0 0  -3.475 0 0  -3.4625 0 0  -3.45 0 0  -3.4375 0 0  -3.425 0 0  -3.4125 0 0  -3.4 0 0  -3.3875 0 0  -3.375 0 0  -3.3625 0 0  -3.35 0 0  -3.3375 0 0  -3.325 0 0  -3.3125 0 0  -3.3 0 0  -3.2875 0 0  -3.275 0 0  -3.2625 0 0  -3.25 0 0  -3.2375 0 0  -3.225 0 0  -3.2125 0 0  -3.2 0 0  -3.1875 0 0  -3.175 0 0  -3.1625 0 0  -3.15 0 0  -3.1375 0 0  -3.125 0 0  -3.1125 0 0  -3.1 0 0  -3.0875 0 0  -3.075 0 0  -3.0625 0 0  -3.05 0 0  -3.0375 0 0  -3.025 0 0  -3.0125 0 0  -3 0 0  -2.9875 0 0  -2.975 0 0  -2.9625 0 0  -2.95 0 0  -2.9375 0 0  -2.925 0 0  -2.9125 0 0  -2.9 0 0  -2.8875 0 0  -2.875 0 0  -2.8625 0 0  -2.85 0 0  -2.8375 0 0  -2.825 0 0  -2.8125 0 0  -2.8 0 0  -2.7875 0 0  -2.775 0 0  -2.7625 0 0  -2.75 0 0  -2.7375 0 0  -2.725 0 0  -2.7125 0 0  -2.7 0 0  -2.6875 0 0  -2.675 0 0  -2.6625 0 0  -2.65 0 0  -2.6375 0 0  -2.625 0 0  -2.6125 0 0  -2.6 0 0  -2.5875 0 0  -2.575 0 0  -2.5625 0 0  -2.55 0 0  -2.5375 0 0  -2.525 0 0  -2.5125 0 0  -2.5 0 0  -2.4875 0 0  -2.475 0 0  -2.4625 0 0  -2.45 0 0  -2.4375 0 0  -2.425 0 0  -2.4125 0 0  -2.4 0 0  -2.3875 0 0  -2.375 0 0  -2.3625 0 0  -2.35 0 0  -2.3375 0 0  -2.325 0 0  -2.3125 0 0  -2.3 0 0  -2.2875 0 0  -2.275 0 0  -2.2625 0 0  -2.25 0 0  -2.2375 0 0  -2.225 0 0  -2.2125 0 0  -2.2 0 0  -2.1875 0 0  -2.175 0 0  -2.1625 0 0  -2.15 0 0  -2.1375 0 0  -2.125 0 0  -2.1125 0 0  -2.1 0 0  -2.0875 0 0  -2.075 0 0  -2.0625 0 0  -2.05 0 0  -2.0375 0 0  -2.025 0 0  -2.0125 0 0  -2 0 0  -1.9875 0 0  -1.975 0 0  -1.9625 0 0  -1.95 0 0  -1.9375 0 0  -1.925 0 0  -1.9125 0 0  -1.9 0 0  -1.8875 0 0  -1.875 0 0  -1.8625 0 0  -1.85 0 0  -1.8375 0 0  -1.825 0 0  -1.8125 0 0  -1.8 0 0  -1.7875 0 0  -1.775 0 0  -1.7625 0 0  -1.75 0 0  -1.7375 0 0  -1.725 0 0  -1.7125 0 0  -1.7 0 0  -1.6875 0 0  -1.675 0 0  -1.6625 0 0  -1.65 0 0  -1.6375 0 0  -1.625 0 0  -1.6125 0 0  -1.6 0 0  -1.5875 0 0  -1.575 0 0  -1.5625 0 0  -1.55 0 0  -1.5375 0 0  -1.525 0 0  -1.5125 0 0  -1.5 0 0  -1.4875 0 0  -1.475 0 0  -1.4625 0 0  -1.45 0 0  -1.4375 0 0  -1.425 0 0  -1.4125 0 0  -1.4 0 0  -1.3875 0 0  -1.375 0 0  -1.3625 0 0  -1.35 0 0  -1.3375 0 0  -1.325 0 0  -1.3125 0 0  -1.3 0 0  -1.2875 0 0  -1.275 0 0  -1.2625 0 0  -1.25 0 0  -1.2375 0 0  -1.225 0 0  -1.2125 0 0  -1.2 0 0  -1.1875 0 0  -1.175 0 0  -1.1625 0 0  -1.15 0 0  -1.1375 0 0  -1.125 0 0  -1.1125 0 0  -1.1 0 0  -1.0875 0 0  -1.075 0 0  -1.0625 0 0  -1.05 0 0  -1.0375 0 0  -1.025 0 0  -1.0125 0 0  -1 0 0  -0.9874999999999998 0 0  -0.9749999999999996 0 0  -0.9625000000000004 0 0  -0.9500000000000002 0 0  -0.9375 0 0  -0.9249999999999998 0 0  -0.9124999999999996 0 0  -0.9000000000000004 0 0  -0.8875000000000002 0 0  -0.875 0 0  -0.8624999999999998 0 0  -0.8499999999999996 0 0  -0.8375000000000004 0 0  -0.8250000000000002 0 0  -0.8125 0 0  -0.7999999999999998 0 0  -0.7874999999999996 0 0  -0.7750000000000004 0 0  -0.7625000000000002 0 0  -0.75 0 0  -0.7374999999999998 0 0  -0.7249999999999996 0 0  -0.7125000000000004 0 0  -0.7000000000000002 0 0  -0.6875 0 0  -0.6749999999999998 0 0  -0.6624999999999996 0 0  -0.6500000000000004 0 0  -0.6375000000000002 0 0  -0.625 0 0  -0.6124999999999998 0 0  -0.5999999999999996 0 0  -0.5875000000000004 0 0  -0.5750000000000002 0 0  -0.5625 0 0  -0.5499999999999998 0 0  -0.5374999999999996 0 0  -0.5250000000000004 0 0  -0.5125000000000002 0 0  -0.5 0 0  -0.4874999999999998 0 0  -0.4749999999999996 0 0  -0.4625000000000004 0 0  -0.4500000000000002 0 0  -0.4375 0 0  -0.4249999999999998 0 0  -0.4124999999999996 0 0  -0.4000000000000004 0 0  -0.3875000000000002 0 0  -0.375 0 0  -0.3624999999999998 0 0  -0.3499999999999996 0 0  -0.3375000000000004 0 0  -0.3250000000000002 0 0  -0.3125 0 0  -0.2999999999999998 0 0  -0.2874999999999996 0 0  -0.2750000000000004 0 0  -0.2625000000000002 0 0  -0.25 0 0  -0.2374999999999998 0 0  -0.2249999999999996 0 0  -0.2125000000000004 0 0  -0.2000000000000002 0 0  -0.1875 0 0  -0.1749999999999998 0 0  -0.1624999999999996 0 0  -0.1500000000000004 0 0  -0.1375000000000002 0 0  -0.125 0 0  -0.1124999999999998 0 0  -0.09999999999999964 0 0  -0.08750000000000036 0 0  -0.07500000000000018 0 0  -0.0625 0 0  -0.04999999999999982 0 0  -0.03749999999999964 0 0  -0.02500000000000036 0 0  -0.01250000000000018 0 0  0 0 0  0.01250000000000018 0 0  0.02500000000000036 0 0  0.03749999999999964 0 0  0.04999999999999982 0 0  0.0625 0 0  0.07500000000000018 0 0  0.08750000000000036 0 0  0.09999999999999964 0 0  0.1124999999999998 0 0  0.125 0 0  0.1375000000000002 0 0  0.1500000000000004 0 0  0.1624999999999996 0 0  0.1749999999999998 0 0  0.1875 0 0  0.2000000000000002 0 0  0.2125000000000004 0 0  0.2249999999999996 0 0  0.2374999999999998 0 0  0.25 0 0  0.2625000000000002 0 0  0.2750000000000004 0 0  0.2874999999999996 0 0  0.2999999999999998 0 0  0.3125 0 0  0.3250000000000002 0 0  0.3375000000000004 0 0  0.3499999999999996 0 0  0.3624999999999998 0 0  0.375 0 0  0.3875000000000002 0 0  0.4000000000000004 0 0  0.4124999999999996 0 0  0.4249999999999998 0 0  0.4375 0 0  0.4500000000000002 0 0  0.4625000000000004 0 0  0.4749999999999996 0 0  0.4874999999999998 0 0  0.5 0 0  0.5125000000000002 0 0  0.5250000000000004 0 0  0.5374999999999996 0 0  0.5499999999999998 0 0  0.5625 0 0  0.5750000000000002 0 0  0.5875000000000004 0 0  0.5999999999999996 0 0  0.6124999999999998 0 0  0.625 0 0  0.6375000000000002 0 0  0.6500000000000004 0 0  0.6624999999999996 0 0  0.6749999999999998 0 0  0.6875 0 0  0.7000000000000002 0 0  0.7125000000000004 0 0  0.7249999999999996 0 0  0.7374999999999998 0 0  0.75 0 0  0.7625000000000002 0 0  0.7750000000000004 0 0  0.7874999999999996 0 0  0.7999999999999998 0 0  0.8125 0 0  0.8250000000000002 0 0  0.8375000000000004 0 0  0.8499999999999996 0 0  0.8624999999999998 0 0  0.875 0 0  0.8875000000000002 0 0  0.9000000000000004 0 0  0.9124999999999996 0 0  0.9249999999999998 0 0  0.9375 0 0  0.9500000000000002 0 0  0.9625000000000004 0 0  0.9749999999999996 0 0  0.9874999999999998 0 0  1 0 0  1.0125 0 0  1.025 0 0  1.0375 0 0  1.05 0 0  1.0625 0 0  1.075 0 0  1.0875 0 0  1.1 0 0  1.1125 0 0  1.125 0 0  1.1375 0 0  1.15 0 0  1.1625 0 0  1.175 0 0  1.1875 0 0  1.2 0 0  1.2125 0 0  1.225 0 0  1.2375 0 0  1.25 0 0  1.2625 0 0  1.275 0 0  1.2875 0 0  1.3 0 0  1.3125 0 0  1.325 0 0  1.3375 0 0  1.35 0 0  1.3625 0 0  1.375 0 0  1.3875 0 0  1.4 0 0  1.4125 0 0  1.425 0 0  1.4375 0 0  1.45 0 0  1.4625 0 0  1.475 0 0  1.4875 0 0  1.5 0 0  1.5125 0 0  1.525 0 0  1.5375 0 0  1.55 0 0  1.5625 0 0  1.575 0 0  1.5875 0 0  1.6 0 0  1.6125 0 0  1.625 0 0  1.6375 0 0  1.65 0 0  1.6625 0 0  1.675 0 0  1.6875 0 0  1.7 0 0  1.7125 0 0  1.725 0 0  1.7375 0 0  1.75 0 0  1.7625 0 0  1.775 0 0  1.7875 0 0  1.8 0 0  1.8125 0 0  1.825 0 0  1.8375 0 0  1.85 0 0  1.8625 0 0  1.875 0 0  1.8875 0 0  1.9 0 0  1.9125 0 0  1.925 0 0  1.9375 0 0  1.95 0 0  1.9625 0 0  1.975 0 0  1.9875 0 0  2 0 0  2.0125 0 0  2.025 0 0  2.0375 0 0  2.05 0 0  2.0625 0 0  2.075 0 0  2.0875 0 0  2.1 0 0  2.1125 0 0  2.125 0 0  2.1375 0 0  2.15 0 0  2.1625 0 0  2.175 0 0  2.1875 0 0  2.2 0 0  2.2125 0 0  2.225 0 0  2.2375 0 0  2.25 0 0  2.2625 0 0  2.275 0 0  2.2875 0 0  2.3 0 0  2.3125 0 0  2.325 0 0  2.3375 0 0  2.35 0 0  2.3625 0 0  2.375 0 0  2.3875 0 0  2.4 0 0  2.4125 0 0  2.425 0 0  2.4375 0 0  2.45 0 0  2.4625 0 0  2.475 0 0  2.4875 0 0  2.5 0 0  2.5125 0 0  2.525 0 0  2.5375 0 0  2.55 0 0  2.5625 0 0  2.575 0 0  2.5875 0 0  2.6 0 0  2.6125 0 0  2.625 0 0  2.6375 0 0  2.65 0 0  2.6625 0 0  2.675 0 0  2.6875 0 0  2.7 0 0  2.7125 0 0  2.725 0 0  2.7375 0 0  2.75 0 0  2.7625 0 0  2.775 0 0  2.7875 0 0  2.8 0 0  2.8125 0 0  2.825 0 0  2.8375 0 0  2.85 0 0  2.8625 0 0  2.875 0 0  2.8875 0 0  2.9 0 0  2.9125 0 0  2.925 0 0  2.9375 0 0  2.95 0 0  2.9625 0 0  2.975 0 0  2.9875 0 0  3 0 0  3.012499999999999 0 0  3.025 0 0  3.0375 0 0  3.050000000000001 0 0  3.0625 0 0  3.074999999999999 0 0  3.0875 0 0  3.1 0 0  3.112500000000001 0 0  3.125 0 0  3.137499999999999 0 0  3.15 0 0  3.1625 0 0  3.175000000000001 0 0  3.1875 0 0  3.199999999999999 0 0  3.2125 0 0  3.225 0 0  3.237500000000001 0 0  3.25 0 0  3.262499999999999 0 0  3.275 0 0  3.2875 0 0  3.300000000000001 0 0  3.3125 0 0  3.324999999999999 0 0  3.3375 0 0  3.35 0 0  3.362500000000001 0 0  3.375 0 0  3.387499999999999 0 0  3.4 0 0  3.4125 0 0  3.425000000000001 0 0  3.4375 0 0  3.449999999999999 0 0  3.4625 0 0  3.475 0 0  3.4875
[...]
<PointData  Vectors="(h, u)"> 
<DataArray  type="Float64"  Name="(h, u)"  NumberOfComponents="3" format="ascii">1.3176157746449932e-01 0.0000000000000000e+00 0.0000000000000000e+00  1.3543280406437799e-01 5.7379274613747590e-03 0.0000000000000000e+00  1.3177214053138978e-01 6.8029028063091553e-03 0.0000000000000000e+00  1.3540562151844193e-01 1.7152220718520451e-02 0.0000000000000000e+00  1.3180373060542580e-01 1.3732091150149849e-02 0.0000000000000000e+00  1.3535147110461754e-01 2.8387038300210995e-02 0.0000000000000000e+00  1.3185600009683873e-01 2.0903088508459643e-02 0.0000000000000000e+00  1.3527087594219619e-01 3.9339535503876269e-02 0.0000000000000000e+00  1.3192821631267529e-01 2.8411076719665675e-02 0.0000000000000000e+00  1.3516482970695587e-01 4.9930188956234418e-02 0.0000000000000000e+00  1.3201907698157295e-01 3.6323532409231432e-02 0.0000000000000000e+00  1.3503498186598328e-01 6.0108587029715527e-02 0.0000000000000000e+00  1.3212653186472967e-01 4.4675834572557568e-02 0.0000000000000000e+00  1.3488379100161180e-01 6.9856203952931864e-02 0.0000000000000000e+00  1.3224766682188305e-01 5.3470227504421340e-02 0.0000000000000000e+00  1.3471459378132095e-01 7.9185966945472516e-02 0.0000000000000000e+00  1.3237869583193809e-01 6.2678109205090746e-02 0.0000000000000000e+00  1.3453155188131841e-01 8.8138807045874498e-02 0.0000000000000000e+00  1.3251508501674544e-01 7.2245214030090141e-02 0.0000000000000000e+00  1.3433946324000770e-01 9.6777731956468743e-02 0.0000000000000000e+00  1.3265180575752747e-01 8.2098924283839594e-02 0.0000000000000000e+00  1.3414345238650793e-01 1.0518022688502837e-01 0.0000000000000000e+00  1.3278368753825448e-01 9.2156724485883801e-02 0.0000000000000000e+00  1.3394858101424184e-01 1.1342994306467426e-01 0.0000000000000000e+00  1.3290582064021825e-01 1.0233473426017668e-01 0.0000000000000000e+00  1.3375943833465759e-01 1.2160865714991778e-01 0.0000000000000000e+00  1.3301394798333302e-01 1.1255533015055168e-01 0.0000000000000000e+00  1.3357977661362203e-01 1.2978938098347795e-01 0.0000000000000000e+00  1.3310478583576710e-01 1.2275307763104357e-01 0.0000000000000000e+00  1.3341224925283859e-01 1.3803128986244531e-01 0.0000000000000000e+00  1.3317622438891522e-01 1.3287850234652579e-01 0.0000000000000000e+00  1.3325828905789183e-01 1.4637684980090152e-01 0.0000000000000000e+00  1.3322737935903792e-01 1.4289957592779515e-01 0.0000000000000000e+00  1.3311813818179624e-01 1.5485119991905363e-01 0.0000000000000000e+00  1.3325849153517880e-01 1.5280111267587412e-01 0.0000000000000000e+00  1.3299101510248912e-01 1.6346353113405482e-01 0.0000000000000000e+00  1.3327069795293109e-01 1.6258251619472780e-01 0.0000000000000000e+00  1.3287538331031676e-01 1.7220994717034280e-01 0.0000000000000000e+00  1.3326572060527281e-01 1.7225445153790253e-01 0.0000000000000000e+00  1.3276927398220986e-01 1.8107714577027972e-01 0.0000000000000000e+00  1.3324553094179101e-01 1.8183504927877625e-01 0.0000000000000000e+00  1.3267061088879442e-01 1.9004624762363859e-01 0.0000000000000000e+00  1.3321204748577969e-01 1.9134619471938732e-01 0.0000000000000000e+00  1.3257748880802858e-01 1.9909622599133237e-01 0.0000000000000000e+00  1.3316691031665595e-01 2.0081034379828505e-01 0.0000000000000000e+00  1.3248836605554903e-01 2.0820660609296721e-01 0.0000000000000000e+00  1.3311135514128117e-01 2.1024815294825622e-01 0.0000000000000000e+00  1.3240214770899414e-01 2.1735933216753495e-01 0.0000000000000000e+00  1.3304618872559379e-01 2.1967702450093832e-01 0.0000000000000000e+00  1.3231815802127203e-01 2.2653986772134257e-01 0.0000000000000000e+00  1.3297185206552081e-01 2.2911047873116430e-01 0.0000000000000000e+00  1.3223602429924353e-01 2.3573766922544143e-01 0.0000000000000000e+00  1.3288854868590183e-01 2.3855811666072105e-01 0.0000000000000000e+00  1.3215551302638398e-01 2.4494617587509093e-01 0.0000000000000000e+00  1.3279640995845474e-01 2.4802588657960226e-01 0.0000000000000000e+00  1.3207636495623096e-01 2.5416244072165922e-01 0.0000000000000000e+00  1.3269566379264877e-01 2.5751643863775769e-01 0.0000000000000000e+00  1.3199816621744545e-01 2.6338653688497521e-01 0.0000000000000000e+00  1.3258676806136005e-01 2.6702951151901472e-01 0.0000000000000000e+00  1.3192027306060838e-01 2.7262089447631943e-01 0.0000000000000000e+00  1.3247047340592169e-01 2.7656243253866225e-01 0.0000000000000000e+00  1.3184179212141178e-01 2.8186969029874015e-01 0.0000000000000000e+00  1.3234779939579033e-01 2.8611081446771203e-01 0.0000000000000000e+00  1.3176161394582594e-01 2.9113829614193348e-01 0.0000000000000000e+00  1.3221993807123972e-01 2.9566940775091771e-01 0.0000000000000000e+00  1.3167849851947450e-01 3.0043267656645756e-01 0.0000000000000000e+00  1.3208812281443838e-01 3.0523293967503906e-01 0.0000000000000000e+00  1.3159120677632144e-01 3.0975861846548658e-01 0.0000000000000000e+00  1.3195350543604098e-01 3.1479674980706224e-01 0.0000000000000000e+00  1.3149865751794523e-01 3.1912080263166476e-01 0.0000000000000000e+00  1.3181706684752736e-01 3.2435715523273645e-01 0.0000000000000000e+00  1.3140006738777113e-01 3.2852195502472181e-01 0.0000000000000000e+00  1.3167955583071420e-01 3.3391169125240616e-01 0.0000000000000000e+00  1.3129502112664976e-01 3.3796246221593024e-01 0.0000000000000000e+00  1.3154143859248021e-01 3.4345941519095202e-01 0.0000000000000000e+00  1.3118345122815414e-01 3.4744061600602055e-01 0.0000000000000000e+00  1.3140287132366227e-01 3.5300115648412939e-01 0.0000000000000000e+00  1.3106556619398596e-01 3.5695317468609611e-01 0.0000000000000000e+00  1.3126373528229446e-01 3.6253932982683784e-01 0.0000000000000000e+00  1.3094178591645253e-01 3.6649578216954198e-01 0.0000000000000000e+00  1.3112374670469898e-01 3.7207715291288895e-01 0.0000000000000000e+00  1.3081270601238620e-01 3.7606310525503867e-01 0.0000000000000000e+00  1.3098260645660628e-01 3.8161752596736243e-01 0.0000000000000000e+00  1.3067907580788296e-01 3.8564885972850999e-01 0.0000000000000000e+00  1.3084012777166804e-01 3.9116207569020794e-01 0.0000000000000000e+00  1.3054174486681572e-01 3.9524613829247185e-01 0.0000000000000000e+00  1.3069626526816341e-01 4.0071101541422888e-01 0.0000000000000000e+00  1.3040153364125154e-01 4.0484843284937783e-01 0.0000000000000000e+00  1.3055103813799221e-01 4.1026388458659052e-01 0.0000000000000000e+00  1.3025910693003157e-01 4.1445066701486216e-01 0.0000000000000000e+00  1.3040450109782473e-01 4.1981984613567491e-01 0.0000000000000000e+00  1.3011501861589475e-01 4.2404876969774591e-01 0.0000000000000000e+00  1.3025686973899353e-01 4.2937662664375975e-01 0.0000000000000000e+00  1.2996988208378238e-01 4.3363817331719773e-01 0.0000000000000000e+00  1.3010862869363751e-01 4.3892959410940713e-01 0.0000000000000000e+00  1.2982443002866664e-01 4.4321327806527172e-01 0.0000000000000000e+00  1.2996047019312151e-01 4.4847230208240074e-01 0.0000000000000000e+00  1.2967943906641591e-01 4.5276809350301400e-01 0.0000000000000000e+00  1.2981315519942202e-01 4.5799770499284848e-01 0.0000000000000000e+00  1.2953560728435051e-01 4.6229729290427052e-01 0.0000000000000000e+00  1.2966733391772195e-01 4.6749972687436897e-01 0.0000000000000000e+00  1.2939341533001877e-01 4.7179741483100035e-01 0.0000000000000000e+00  1.2952348978358308e-01 4.7697375649268092e-01 0.0000000000000000e+00  1.2925331024578399e-01 4.8126526103060518e-01 0.0000000000000000e+00  1.2938233559019269e-01 4.8641320700289253e-01 0.0000000000000000e+00  1.2911617340702986e-01 4.9069382199345218e-01 0.0000000000000000e+00  1.2924501712126993e-01 4.9580774596757432e-01 0.0000000000000000e+00  1.2898304340670230e-01 5.0007468726147442e-01 0.0000000000000000e+00  1.2911238981925888e-01 5.0514959612487964e-01 0.0000000000000000e+00  1.2885436051547858e-01 5.0940462642363005e-01 0.0000000000000000e+00  1.2898469952579414e-01 5.1443632102715786e-01 0.0000000000000000e+00  1.2873031185404116e-01 5.1868258183957494e-01 0.0000000000000000e+00  1.2886229871876195e-01 5.2366458656898573e-01 0.0000000000000000e+00  1.2861141655160707e-01 5.2790456542172748e-01 0.0000000000000000e+00  1.2874574910512157e-01 5.3282926982964141e-01 0.0000000000000000e+00  1.2849832593905652e-01 5.3706539735355974e-01 0.0000000000000000e+00  1.2863567348844870e-01 5.4192475454889544e-01 0.0000000000000000e+00  1.2839182119712167e-01 5.4615872246694175e-01 0.0000000000000000e+00  1.2853246363962106e-01 5.5094748766809754e-01 0.0000000000000000e+00  1.2829187684201765e-01 5.5518518477183887e-01 0.0000000000000000e+00  1.2843519213145424e-01 5.5990548811608276e-01 0.0000000000000000e+00  1.2819767688403155e-01 5.6415227756111175e-01 0.0000000000000000e+00  1.2834357923124567e-01 5.6880116585317042e-01 0.0000000000000000e+00  1.2811039112411152e-01 5.7305007710451095e-01 0.0000000000000000e+00  1.2825905951872479e-01 5.7762201360368304e-01 0.0000000000000000e+00  1.2803072621094330e-01 5.8187265114955888e-01 0.0000000000000000e+00  1.2818050006727577e-01 5.8637805031434820e-01 0.0000000000000000e+00  1.2795668421073264e-01 5.9063764014363429e-01 0.0000000000000000e+00  1.2810667333465378e-01 5.9508018922932437e-01 0.0000000000000000e+00  1.2788854155481849e-01 5.9934269575235011e-01 0.0000000000000000e+00  1.2803884748789676e-01 6.0371759773308986e-01 0.0000000000000000e+00  1.2782661427659572e-01 6.0798504224334526e-01 0.0000000000000000e+00  1.2797668683164512e-01 6.1229357947362284e-01 0.0000000000000000e+00  1.2777007267861443e-01 6.1657183491449896e-01 0.0000000000000000e+00  1.2792005161423198e-01 6.2080981662836587e-01 0.0000000000000000e+00  1.2771796506301186e-01 6.2511120080222526e-01 0.0000000000000000e+00  1.2786724872160243e-01 6.2928168465020684e-01 0.0000000000000000e+00  1.2766917007610201e-01 6.3361264555806063e-01 0.0000000000000000e+00  1.2781991957907232e-01 6.3769543184789501e-01 0.0000000000000000e+00  1.2762690231658763e-01 6.4204762932404791e-01 0.0000000000000000e+00  1.2777811708400177e-01 6.4605132443111624e-01 0.0000000000000000e+00  1.2758648426190450e-01 6.5045669539225226e-01 0.0000000000000000e+00  1.2773699086161130e-01 6.5439259774573011e-01 0.0000000000000000e+00  1.2754940699714420e-01 6.5882624901294828e-01 0.0000000000000000e+00  1.2770281369728634e-01 6.6266504283953920e-01 0.0000000000000000e+00  1.2751808139204587e-01 6.6713468712152801e-01 0.0000000000000000e+00  1.2767040002858085e-01 6.7091489723078002e-01 0.0000000000000000e+00  1.2748647572403055e-01 6.7543438082720342e-01 0.0000000000000000e+00  1.2764100067995043e-01 6.7913187375923589e-01 0.0000000000000000e+00  1.2745951724811669e-01 6.8368169576869431e-01 0.0000000000000000e+00  1.2761513062564667e-01 6.8731211266205938e-01 0.0000000000000000e+00  1.2743372763581778e-01 6.9190678303115438e-01 0.0000000000000000e+00  1.2759287307526790e-01 6.9545541280282730e-01 0.0000000000000000e+00  1.2741134804919618e-01 7.0008974975882721e-01 0.0000000000000000e+00  1.2757092664609004e-01 7.0359115446382425e-01 0.0000000000000000e+00  1.2738700013567530e-01 7.0827760044880850e-01 0.0000000000000000e+00  1.2755422312057343e-01 7.1167634294140503e-01 0.0000000000000000e+00  1.2737106615189159e-01 7.1637929876529793e-01 0.0000000000000000e+00  1.2753865536557887e-01 7.1974723914163541e-01 0.0000000000000000e+00  1.2734700720659634e-01 7.2453998848691492e-01 0.0000000000000000e+00  1.2752374991993345e-01 7.2780795723722491e-01 0.0000000000000000e+00  1.2733450739364738e-01 7.3258719349552770e-01 0.0000000000000000e+00  1.2751493687976373e-01 7.3581092318971208e-01 0.0000000000000000e+00  1.2731306524163477e-01 7.4070106723590345e-01 0.0000000000000000e+00  1.2750292529253185e-01 7.4383743925762080e-01 0.0000000000000000e+00  1.2730095906859459e-01 7.4872153685881948e-01 0.0000000000000000e+00  1.2749629306018012e-01 7.5181215959004455e-01 0.0000000000000000e+00  1.2728212623278984e-01 7.5678990820688496e-01 0.0000000000000000e+00  1.2749150990225888e-01 7.5976581600998805e-01 0.0000000000000000e+00  1.2727111306750027e-01 7.6477892479666332e-01 0.0000000000000000e+00  1.2748206490284242e-01 7.6775540044201807e-01 0.0000000000000000e+00  1.2725329440669564e-01 7.7281719319995756e-01 0.0000000000000000e+00  1.2748719236581613e-01 7.7561190956134729e-01 0.0000000000000000e+00  1.2724336807625242e-01 7.8077620934264202e-01 0.0000000000000000e+00  1.2747255286008574e-01 7.8363656494357425e-01 0.0000000000000000e+00  1.2722907136496631e-01 7.8876368891555382e-01 0.0000000000000000e+00  1.2748590154575340e-01 7.9141012270294864e-01 0.0000000000000000e+00  1.2721545114325314e-01 7.9673587237817900e-01 0.0000000000000000e+00  1.2746982183442879e-01 7.9943631607091270e-01 0.0000000000000000e+00  1.2721141812973380e-01 8.0461459735304020e-01 0.0000000000000000e+00  1.2747891630009275e-01 8.0723588870692831e-01 0.0000000000000000e+00  1.2718914083677693e-01 8.1264456665164064e-01 0.0000000000000000e+00  1.2747600971015735e-01 8.1513481437647817e-01 0.0000000000000000e+00  1.2719479383015153e-01 8.2042079472321028e-01 0.0000000000000000e+00  1.2746244688021582e-01 8.2312129892635866e-01 0.0000000000000000e+00  1.2718240923659657e-01 8.2834691755463474e-01 0.0000000000000000e+00  1.2748070298514849e-01 8.3082225494163575e-01 0.0000000000000000e+00  1.2716939757924697e-01 8.3627073999040780e-01 0.0000000000000000e+00  1.2745108599469374e-01 8.3893679935685983e-01 0.0000000000000000e+00  1.2719753345779419e-01 8.4382569699212762e-01 0.0000000000000000e+00  1.2744667249903577e-01 8.4682358407822356e-01 0.0000000000000000e+00  1.2716303325147860e-01 8.5192322464431935e-01 0.0000000000000000e+00  1.2745698654302565e-01 8.5457380152910045e-01 0.0000000000000000e+00  1.2718763490714843e-01 8.5949542614164676e-01 0.0000000000000000e+00  1.2740315303003211e-01 8.6287978806324206e-01 0.0000000000000000e+00  1.2721774414398646e-01 8.6701270052343604e-01 0.0000000000000000e+00  1.2740365482178301e-01 8.7070136100813511e-01 0.0000000000000000e+00  1.2718570569393378e-01 8.7506962107384778e-01 0.0000000000000000e+00  1.2742116004399207e-01 8.7836555918428350e-01 0.0000000000000000e+00  1.2720796623781735e-01 8.8264460664653299e-01 0.0000000000000000e+00  1.2734297453026031e-01 8.8686147355945566e-01 0.0000000000000000e+00  1.2728546622236761e-01 8.8972913145896093e-01 0.0000000000000000e+00  1.2731543804685683e-01 8.9490489246577842e-01 0.0000000000000000e+00  1.2723498946155606e-01 8.9793197356711774e-01 0.0000000000000000e+00  1.2738231463324712e-01 9.0211093617781468e-01 0.0000000000000000e+00  1.2720824380575371e-01 9.0592211294710090e-01 0.0000000000000000e+00  1.2732267207972259e-01 9.1041875347739298e-01 0.0000000000000000e+00  1.2732046952749795e-01 9.1268744505567256e-01 0.0000000000000000e+00  1.2719721017919117e-01 9.1929621206620293e-01 0.0000000000000000e+00  1.2738638094474533e-01 9.1985414143819921e-01 0.0000000000000000e+00  1.2721864013272854e-01 9.2687647734566336e-01 0.0000000000000000e+00  1.2725713168624836e-01 9.2872951766886347e-01 0.0000000000000000e+00  1.2739578369535492e-01 9.3308131771392344e-01 0.0000000000000000e+00  1.2709899878462697e-01 9.3785433529475315e-01 0.0000000000000000e+00  1.2744070113057926e-01 9.4043790908098734e-01 0.0000000000000000e+00  1.2718875666517945e-01 9.4479860260768789e-01 0.0000000000000000e+00  1.2721510434349573e-01 9.5016129842613561e-01 0.0000000000000000e+00  1.2748832965181833e-01 9.4989529798740224e-01 0.0000000000000000e+00  1.2687594436136485e-01 9.6087443951195528e-01 0.0000000000000000e+00  1.2779980385304393e-01 9.5488146231862914e-01 0.0000000000000000e+00  1.2660917388474571e-01 9.7094553376443515e-01 0.0000000000000000e+00  1.2796938129898633e-01 9.6110787785005891e-01 0.0000000000000000e+00  1.2652520730056629e-01 9.7940512581597294e-01 0.0000000000000000e+00  1.2795665486832050e-01 9.6893000038291621e-01 0.0000000000000000e+00  1.2658938917156967e-01 9.8655657697886612e-01 0.0000000000000000e+00  1.2785165551856281e-01 9.7755780030797057e-01 0.0000000000000000e+00  1.2669687738047550e-01 9.9331984507333793e-01 0.0000000000000000e+00  1.2773336498418841e-01 9.8629798309487771e-01 0.0000000000000000e+00  1.2680348109903194e-01 1.0000827679504476e+00 0.0000000000000000e+00  1.2762180144481261e-01 9.9497492607641302e-01 0.0000000000000000e+00  1.2689439074070016e-01 1.0069752677294967e+00 0.0000000000000000e+00  1.2753496511409204e-01 1.0034307776358209e+00 0.0000000000000000e+00  1.2695211717731283e-01 1.0141509116151797e+00 0.0000000000000000e+00  1.2748084114664052e-01 1.0115954941463987e+00 0.0000000000000000e+00  1.2698256041799516e-01 1.0215579753735629e+00 0.0000000000000000e+00  1.2744324391229417e-01 1.0196111949081388e+00 0.0000000000000000e+00  1.2700438701523883e-01 1.0290326032008335e+00 0.0000000000000000e+00  1.2740892365326667e-01 1.0275942620515950e+00 0.0000000000000000e+00  1.2702228842618019e-01 1.0365336571093300e+00 0.0000000000000000e+00  1.2738048279331243e-01 1.0355218520363867e+00 0.0000000000000000e+00  1.2703010431448233e-01 1.0441153868913138e+00 0.0000000000000000e+00  1.2736347660260941e-01 1.0433450763930474e+00 0.0000000000000000e+00  1.2702524902977702e-01 1.0518007625293007e+00 0.0000000000000000e+00  1.2735680105853561e-01 1.0510734162198194e+00 0.0000000000000000e+00  1.2701157349233516e-01 1.0595562972176074e+00 0.0000000000000000e+00  1.2735537172837683e-01 1.0587512459788488e+00 0.0000000000000000e+00  1.2699409772837145e-01 1.0673382684641086e+00 0.0000000000000000e+00  1.2735515957452248e-01 1.0664136375741895e+00 0.0000000000000000e+00  1.2697551372581073e-01 1.0751234189876018e+00 0.0000000000000000e+00  1.2735603309137450e-01 1.0740614148888448e+00 0.0000000000000000e+00  1.2695045765315607e-01 1.0829592629170874e+00 0.0000000000000000e+00  1.2737976313869179e-01 1.0815030788500453e+00 0.0000000000000000e+00  1.2686923788113891e-01 1.0912828232211442e+00 0.0000000000000000e+00  1.2752731221699631e-01 1.0878517932349676e+00 0.0000000000000000e+00  1.2659057261279427e-01 1.1013368721691310e+00 0.0000000000000000e+00  1.2797684552451463e-01 1.0915437393210432e+00 0.0000000000000000e+00  1.2599956620273944e-01 1.1141359910089825e+00 0.0000000000000000e+00  1.2868234461070796e-01 1.0929844836345657e+00 0.0000000000000000e+00  1.2535207886897956e-01 1.1274362672180058e+00 0.0000000000000000e+00  1.2906247001323787e-01 1.0972699536219270e+00 0.0000000000000000e+00  1.2525481595065133e-01 1.1358950151231841e+00 0.0000000000000000e+00  1.2868845331217665e-01 1.1081563185604393e+00 0.0000000000000000e+00  1.2573669500094248e-01 1.1392504384324622e+00 0.0000000000000000e+00  1.2817814331595245e-01 1.1202313762708200e+00 0.0000000000000000e+00  1.2604893312677803e-01 1.1440977564928330e+00 0.0000000000000000e+00  1.2799145649993346e-01 1.1294574472598899e+00 0.0000000000000000e+00  1.2623931211692149e-01 1.1500221467811265e+00 0.0000000000000000e+00  1.2762178060911056e-01 1.1402726080608163e+00 0.0000000000000000e+00  1.2675309615789204e-01 1.1531129455796711e+00 0.0000000000000000e+00  1.2692975654271060e-01 1.1538976186733709e+00 0.0000000000000000e+00  1.2760406245728204e-01 1.1532649995627060e+00 0.0000000000000000e+00  1.2578400188931363e-01 1.1714879609105893e+00 0.0000000000000000e+00  1.2919962535658494e-01 1.1469381135691561e+00 0.0000000000000000e+00  1.2378484998005865e-01 1.1965828300195491e+00 0.0000000000000000e+00  1.3183312890684390e-01 1.1316436230507638e+00 0.0000000000000000e+00  1.2103401156497234e-01 1.2283408760358236e+00 0.0000000000000000e+00  1.3519941758904810e-01 1.1101655549001404e+00 0.0000000000000000e+00  1.1812084063406829e-01 1.2615709686272778e+00 0.0000000000000000e+00  1.3823150978804707e-01 1.0918520183507567e+00 0.0000000000000000e+00  1.1622940675060905e-01 1.2856019377771961e+00 0.0000000000000000e+00  1.3860571668041177e-01 1.0968071657212297e+00 0.0000000000000000e+00  1.1763576575871371e-01 1.2797780996168930e+00 0.0000000000000000e+00  1.3341430110239497e-01 1.1504087772995608e+00 0.0000000000000000e+00  1.2454140843320624e-01 1.2247210551096801e+00 0.0000000000000000e+00  1.245571