<?xml version="1.0"?>
<VTKFile type="UnstructuredGrid"  version="0.1"  >
<UnstructuredGrid>
<Piece  NumberOfPoints="801" NumberOfCells="800">
<Points>
<DataArray  type="Float64"  NumberOfComponents="3"  format="ascii">-5 0 0  -4.9875 0 0  -4.975 0 0  -4.9625 0 0  -4.95 0 0  -4.9375 0 0  -4.925 0 0  -4.9125 0 0  -4.9 0 0  -4.8875 0 0  -4.875 0 0  -4.8625 0 0  -4.85 0 0  -4.8375 0 0  -4.825 0 0  -4.8125 0 0  -4.8 0 0  -4.7875 0 0  -4.775 0 0  -4.7625 0 0  -4.75 0 0  -4.7375 0 0  -4.725 0 0  -4.7125 0 0  -4.7 0 0  -4.6875 0 0  -4.675 0 0  -4.6625 0 0  -4.65 0 0  -4.6375 0 0  -4.625 0 0  -4.6125 0 0  -4.6 0 0  -4.5875 0 0  -4.575 0 0  -4.5625 0 0  -4.55 0 0  -4.5375 0 0  -4.525 0 0  -4.5125 0 0  -4.5 0 0  -4.4875 0 0  -4.475 0 0  -4.4625 0 0  -4.45 0 0  -4.4375 0 0  -4.425 0 0  -4.4125 0 0  -4.4 0 0  -4.3875 0 0  -4.375 0 0  -4.3625 0 0  -4.35 0 0  -4.3375 0 0  -4.325 0 0  -4.3125 0 0  -4.3 0 0  -4.2875 0 0  -4.275 0 0  -4.2625 0 0  -4.25 0 0  -4.2375 0 0  -4.225 0 0  -4.2125 0 0  -4.2 0 0  -4.1875 0 0  -4.175 0 0  -4.1625 0 0  -4.15 0 0  -4.1375 0 0  -4.125 0 0  -4.1125 0 0  -4.1 0 0  -4.0875 0 0  -4.075 0 0  -4.0625 0 0  -4.05 0 0  -4.0375 0 0  -4.025 0 0  -4.0125 0 0  -4 0 0  -3.9875 0 0  -3.975 0 0  -3.9625 0 0  -3.95 0 0  -3.9375 0 0  -3.925 0 0  -3.9125 0 0  -3.9 0 0  -3.8875 0 0  -3.875 0 0  -3.8625 0 0  -3.85 0 0  -3.8375 0 0  -3.825 0 0  -3.8125 0 0  -3.8 0 0  -3.7875 0 0  -3.775 0 0  -3.7625 0 0  -3.75 0 0  -3.7375 0 0  -3.725 0 0  -3.7125 0 0  -3.7 0 0  -3.6875 0 0  -3.675 0 0  -3.6625 0 0  -3.65 0 0  -3.6375 0 0  -3.625 0 0  -3.6125 0 0  -3.6 0 0  -3.5875 0 0  -3.575 0 0  -3.5625 0 0  -3.55 0 0  -3.5375 0 0  -3.525 0 0  -3.5125 0 0  -3.5 0 0  -3.4875 0 0  -3.475 0 0  -3.4625 0 0  -3.45 0 0  -3.4375 0 0  -3.425 0 0  -3.4125 0 0  -3.4 0 0  -3.3875 0 0  -3.375 0 0  -3.3625 0 0  -3.35 0 0  -3.3375 0 0  -3.325 0 0  -3.3125 0 0  -3.3 0 0  -3.2875 0 0  -3.275 0 0  -3.2625 0 0  -3.25 0 0  -3.2375 0 0  -3.225 0 0  -3.2125 0 0  -3.2 0 0  -3.1875 0 0  -3.175 0 0  -3.1625 0 0  -3.15 0 0  -3.1375 0 0  -3.125 0 0  -3.1125 0 0  -3.1 0 0  -3.0875 0 0  -3.075 0 0  -3.0625 0 0  -3.05 0 0  -3.0375 0 0  -3.025 0 0  -3.0125 0 0  -3 0 0  -2.9875 0 0  -2.975 0 0  -2.9625 0 0  -2.95 0 0  -2.9375 0 0  -2.925 0 0  -2.9125 0 0  -2.9 0 0  -2.8875 0 0  -2.875 0 0  -2.8625 0 0  -2.85 0 0  -2.8375 0 0  -2.825 0 0  -2.8125 0 0  -2.8 0 0  -2.7875 0 0  -2.775 0 0  -2.7625 0 0  -2.75 0 0  -2.7375 0 0  -2.725 0 0  -2.7125 0 0  -2.7 0 0  -2.6875 0 0  -2.675 0 0  -2.6625 0 0  -2.65 0 0  -2.6375 0 0  -2.625 0 0  -2.6125 0 0  -2.6 0 0  -2.5875 0 0  -2.575 0 0  -2.5625 0 0  -2.55 0 0  -2.5375 0 0  -2.525 0 0  -2.5125 0 0  -2.5 0 0  -2.4875 0 0  -2.475 0 0  -2.4625 0 0  -2.45 0 0  -2.4375 0 0  -2.425 0 0  -2.4125 0 0  -2.4 0 0  -2.3875 0 0  -2.375 0 0  -2.3625 0 0  -2.35 0 0  -2.3375 0 0  -2.325 0 0  -2.3125 0 0  -2.3 0 0  -2.2875 0 0  -2.275 0 0  -2.2625 0 0  -2.25 0 0  -2.2375 0 0  -2.225 0 0  -2.2125 0 0  -2.2 0 0  -2.1875 0 0  -2.175 0 0  -2.1625 0 0  -2.15 0 0  -2.1375 0 0  -2.125 0 0  -2.1125 0 0  -2.1 0 0  -2.0875 0 0  -2.075 0 0  -2.0625 0 0  -2.05 0 0  -2.0375 0 0  -2.025 0 0  -2.0125 0 0  -2 0 0  -1.9875 0 0  -1.975 0 0  -1.9625 0 0  -1.95 0 0  -1.9375 0 0  -1.925 0 0  -1.9125 0 0  -1.9 0 0  -1.8875 0 0  -1.875 0 0  -1.8625 0 0  -1.85 0 0  -1.8375 0 0  -1.825 0 0  -1.8125 0 0  -1.8 0 0  -1.7875 0 0  -1.775 0 0  -1.7625 0 0  -1.75 0 0  -1.7375 0 0  -1.725 0 0  -1.7125 0 0  -1.7 0 0  -1.6875 0 0  -1.675 0 0  -1.6625 0 0  -1.65 0 0  -1.6375 0 0  -1.625 0 0  -1.6125 0 0  -1.6 0 0  -1.5875 0 0  -1.575 0 0  -1.5625 0 0  -1.55 0 0  -1.5375 0 0  -1.525 0 0  -1.5125 0 0  -1.5 0 0  -1.4875 0 0  -1.475 0 0  -1.4625 0 0  -1.45 0 0  -1.4375 0 0  -1.425 0 0  -1.4125 0 0  -1.4 0 0  -1.3875 0 0  -1.375 0 0  -1.3625 0 0  -1.35 0 0  -1.3375 0 0  -1.325 0 0  -1.3125 0 0  -1.3 0 0  -1.2875 0 0  -1.275 0 0  -1.2625 0 0  -1.25 0 0  -1.2375 0 0  -1.225 0 0  -1.2125 0 0  -1.2 0 0  -1.1875 0 0  -1.175 0 0  -1.1625 0 0  -1.15 0 0  -1.1375 0 0  -1.125 0 0  -1.1125 0 0  -1.1 0 0  -1.0875 0 0  -1.075 0 0  -1.0625 0 0  -1.05 0 0  -1.0375 0 0  -1.025 0 0  -1.0125 0 0  -1 0 0  -0.9874999999999998 0 0  -0.9749999999999996 0 0  -0.9625000000000004 0 0  -0.9500000000000002 0 0  -0.9375 0 0  -0.9249999999999998 0 0  -0.9124999999999996 0 0  -0.9000000000000004 0 0  -0.8875000000000002 0 0  -0.875 0 0  -0.8624999999999998 0 0  -0.8499999999999996 0 0  -0.8375000000000004 0 0  -0.8250000000000002 0 0  -0.8125 0 0  -0.7999999999999998 0 0  -0.7874999999999996 0 0  -0.7750000000000004 0 0  -0.7625000000000002 0 0  -0.75 0 0  -0.7374999999999998 0 0  -0.7249999999999996 0 0  -0.7125000000000004 0 0  -0.7000000000000002 0 0  -0.6875 0 0  -0.6749999999999998 0 0  -0.6624999999999996 0 0  -0.6500000000000004 0 0  -0.6375000000000002 0 0  -0.625 0 0  -0.6124999999999998 0 0  -0.5999999999999996 0 0  -0.5875000000000004 0 0  -0.5750000000000002 0 0  -0.5625 0 0  -0.5499999999999998 0 0  -0.5374999999999996 0 0  -0.5250000000000004 0 0  -0.5125000000000002 0 0  -0.5 0 0  -0.4874999999999998 0 0  -0.4749999999999996 0 0  -0.4625000000000004 0 0  -0.4500000000000002 0 0  -0.4375 0 0  -0.4249999999999998 0 0  -0.4124999999999996 0 0  -0.4000000000000004 0 0  -0.3875000000000002 0 0  -0.375 0 0  -0.3624999999999998 0 0  -0.3499999999999996 0 0  -0.3375000000000004 0 0  -0.3250000000000002 0 0  -0.3125 0 0  -0.2999999999999998 0 0  -0.2874999999999996 0 0  -0.2750000000000004 0 0  -0.2625000000000002 0 0  -0.25 0 0  -0.2374999999999998 0 0  -0.2249999999999996 0 0  -0.2125000000000004 0 0  -0.2000000000000002 0 0  -0.1875 0 0  -0.1749999999999998 0 0  -0.1624999999999996 0 0  -0.1500000000000004 0 0  -0.1375000000000002 0 0  -0.125 0 0  -0.1124999999999998 0 0  -0.09999999999999964 0 0  -0.08750000000000036 0 0  -0.07500000000000018 0 0  -0.0625 0 0  -0.04999999999999982 0 0  -0.03749999999999964 0 0  -0.02500000000000036 0 0  -0.01250000000000018 0 0  0 0 0  0.01250000000000018 0 0  0.02500000000000036 0 0  0.03749999999999964 0 0  0.04999999999999982 0 0  0.0625 0 0  0.07500000000000018 0 0  0.08750000000000036 0 0  0.09999999999999964 0 0  0.1124999999999998 0 0  0.125 0 0  0.1375000000000002 0 0  0.1500000000000004 0 0  0.1624999999999996 0 0  0.1749999999999998 0 0  0.1875 0 0  0.2000000000000002 0 0  0.2125000000000004 0 0  0.2249999999999996 0 0  0.2374999999999998 0 0  0.25 0 0  0.2625000000000002 0 0  0.2750000000000004 0 0  0.2874999999999996 0 0  0.2999999999999998 0 0  0.3125 0 0  0.3250000000000002 0 0  0.3375000000000004 0 0  0.3499999999999996 0 0  0.3624999999999998 0 0  0.375 0 0  0.3875000000000002 0 0  0.4000000000000004 0 0  0.4124999999999996 0 0  0.4249999999999998 0 0  0.4375 0 0  0.4500000000000002 0 0  0.4625000000000004 0 0  0.4749999999999996 0 0  0.4874999999999998 0 0  0.5 0 0  0.5125000000000002 0 0  0.5250000000000004 0 0  0.5374999999999996 0 0  0.5499999999999998 0 0  0.5625 0 0  0.5750000000000002 0 0  0.5875000000000004 0 0  0.5999999999999996 0 0  0.6124999999999998 0 0  0.625 0 0  0.6375000000000002 0 0  0.6500000000000004 0 0  0.6624999999999996 0 0  0.6749999999999998 0 0  0.6875 0 0  0.7000000000000002 0 0  0.7125000000000004 0 0  0.7249999999999996 0 0  0.7374999999999998 0 0  0.75 0 0  0.7625000000000002 0 0  0.7750000000000004 0 0  0.7874999999999996 0 0  0.7999999999999998 0 0  0.8125 0 0  0.8250000000000002 0 0  0.8375000000000004 0 0  0.8499999999999996 0 0  0.8624999999999998 0 0  0.875 0 0  0.8875000000000002 0 0  0.9000000000000004 0 0  0.9124999999999996 0 0  0.9249999999999998 0 0  0.9375 0 0  0.9500000000000002 0 0  0.9625000000000004 0 0  0.9749999999999996 0 0  0.9874999999999998 0 0  1 0 0  1.0125 0 0  1.025 0 0  1.0375 0 0  1.05 0 0  1.0625 0 0  1.075 0 0  1.0875 0 0  1.1 0 0  1.1125 0 0  1.125 0 0  1.1375 0 0  1.15 0 0  1.1625 0 0  1.175 0 0  1.1875 0 0  1.2 0 0  1.2125 0 0  1.225 0 0  1.2375 0 0  1.25 0 0  1.2625 0 0  1.275 0 0  1.2875 0 0  1.3 0 0  1.3125 0 0  1.325 0 0  1.3375 0 0  1.35 0 0  1.3625 0 0  1.375 0 0  1.3875 0 0  1.4 0 0  1.4125 0 0  1.425 0 0  1.4375 0 0  1.45 0 0  1.4625 0 0  1.475 0 0  1.4875 0 0  1.5 0 0  1.5125 0 0  1.525 0 0  1.5375 0 0  1.55 0 0  1.5625 0 0  1.575 0 0  1.5875 0 0  1.6 0 0  1.6125 0 0  1.625 0 0  1.6375 0 0  1.65 0 0  1.6625 0 0  1.675 0 0  1.6875 0 0  1.7 0 0  1.7125 0 0  1.725 0 0  1.7375 0 0  1.75 0 0  1.7625 0 0  1.775 0 0  1.7875 0 0  1.8 0 0  1.8125 0 0  1.825 0 0  1.8375 0 0  1.85 0 0  1.8625 0 0  1.875 0 0  1.8875 0 0  1.9 0 0  1.9125 0 0  1.925 0 0  1.9375 0 0  1.95 0 0  1.9625 0 0  1.975 0 0  1.9875 0 0  2 0 0  2.0125 0 0  2.025 0 0  2.0375 0 0  2.05 0 0  2.0625 0 0  2.075 0 0  2.0875 0 0  2.1 0 0  2.1125 0 0  2.125 0 0  2.1375 0 0  2.15 0 0  2.1625 0 0  2.175 0 0  2.1875 0 0  2.2 0 0  2.2125 0 0  2.225 0 0  2.2375 0 0  2.25 0 0  2.2625 0 0  2.275 0 0  2.2875 0 0  2.3 0 0  2.3125 0 0  2.325 0 0  2.3375 0 0  2.35 0 0  2.3625 0 0  2.375 0 0  2.3875 0 0  2.4 0 0  2.4125 0 0  2.425 0 0  2.4375 0 0  2.45 0 0  2.4625 0 0  2.475 0 0  2.4875 0 0  2.5 0 0  2.5125 0 0  2.525 0 0  2.5375 0 0  2.55 0 0  2.5625 0 0  2.575 0 0  2.5875 0 0  2.6 0 0  2.6125 0 0  2.625 0 0  2.6375 0 0  2.65 0 0  2.6625 0 0  2.675 0 0  2.6875 0 0  2.7 0 0  2.7125 0 0  2.725 0 0  2.7375 0 0  2.75 0 0  2.7625 0 0  2.775 0 0  2.7875 0 0  2.8 0 0  2.8125 0 0  2.825 0 0  2.8375 0 0  2.85 0 0  2.8625 0 0  2.875 0 0  2.8875 0 0  2.9 0 0  2.9125 0 0  2.925 0 0  2.9375 0 0  2.95 0 0  2.9625 0 0  2.975 0 0  2.9875 0 0  3 0 0  3.012499999999999 0 0  3.025 0 0  3.0375 0 0  3.050000000000001 0 0  3.0625 0 0  3.074999999999999 0 0  3.0875 0 0  3.1 0 0  3.112500000000001 0 0  3.125 0 0  3.137499999999999 0 0  3.15 0 0  3.1625 0 0  3.175000000000001 0 0  3.1875 0 0  3.199999999999999 0 0  3.2125 0 0  3.225 0 0  3.237500000000001 0 0  3.25 0 0  3.262499999999999 0 0  3.275 0 0  3.2875 0 0  3.300000000000001 0 0  3.3125 0 0  3.324999999999999 0 0  3.3375 0 0  3.35 0 0  3.362500000000001 0 0  3.375 0 0  3.387499999999999 0 0  3.4 0 0  3.4125 0 0  3.425000000000001 0 0  3.4375 0 0  3.449999999999999 0 0  3.4625 0 0  3.475 0 0  3.4875
[...]
<PointData  Vectors="(h, u)"> 
<DataArray  type="Float64"  Name="(h, u)"  NumberOfComponents="3" format="ascii">5.5000000000000021e-02 0.0000000000000000e+00 0.0000000000000000e+00  5.5000000000000007e-02 -8.3782814308427968e-17 0.0000000000000000e+00  5.5000000000000021e-02 -2.5192825625744261e-16 0.0000000000000000e+00  5.5000000000000007e-02 -1.8260484152803458e-16 0.0000000000000000e+00  5.5000000000000021e-02 -3.6983033183746011e-16 0.0000000000000000e+00  5.5000000000000007e-02 1.1042057073246275e-16 0.0000000000000000e+00  5.5000000000000014e-02 -2.6392019586822196e-16 0.0000000000000000e+00  5.5000000000000007e-02 4.6686594976793342e-17 0.0000000000000000e+00  5.5000000000000028e-02 -2.5013130744507551e-16 0.0000000000000000e+00  5.5000000000000035e-02 -4.6932384206045655e-17 0.0000000000000000e+00  5.5000000000000028e-02 -5.3879330392655113e-16 0.0000000000000000e+00  5.5000000000000021e-02 -6.7645301851403847e-17 0.0000000000000000e+00  5.5000000000000028e-02 -4.9194281811253733e-16 0.0000000000000000e+00  5.5000000000000035e-02 -2.1148580336584557e-17 0.0000000000000000e+00  5.5000000000000035e-02 -2.2003891560466173e-16 0.0000000000000000e+00  5.5000000000000028e-02 3.2664329853839118e-16 0.0000000000000000e+00  5.5000000000000035e-02 -4.1848189588327272e-16 0.0000000000000000e+00  5.5000000000000021e-02 8.5378251087385471e-17 0.0000000000000000e+00  5.5000000000000028e-02 -5.5608004697334300e-16 0.0000000000000000e+00  5.5000000000000021e-02 1.4382886592862763e-17 0.0000000000000000e+00  5.5000000000000028e-02 -4.1209997107315448e-16 0.0000000000000000e+00  5.5000000000000021e-02 8.8672296660248617e-17 0.0000000000000000e+00  5.5000000000000028e-02 -2.9949437672674016e-16 0.0000000000000000e+00  5.5000000000000021e-02 1.3650698220560658e-16 0.0000000000000000e+00  5.5000000000000028e-02 -2.5343405865392864e-16 0.0000000000000000e+00  5.5000000000000021e-02 1.1585251302332859e-16 0.0000000000000000e+00  5.5000000000000028e-02 -2.2571268221542093e-16 0.0000000000000000e+00  5.5000000000000021e-02 1.2842231346311111e-16 0.0000000000000000e+00  5.5000000000000028e-02 -8.9882081869998228e-17 0.0000000000000000e+00  5.5000000000000021e-02 2.1476218413503156e-16 0.0000000000000000e+00  5.5000000000000028e-02 7.0125273045879870e-17 0.0000000000000000e+00  5.5000000000000021e-02 2.0835434263911321e-16 0.0000000000000000e+00  5.5000000000000028e-02 7.1535065534812812e-17 0.0000000000000000e+00  5.5000000000000021e-02 2.9703437878899585e-17 0.0000000000000000e+00  5.5000000000000028e-02 -2.6060247953823645e-17 0.0000000000000000e+00  5.5000000000000021e-02 -1.4002008919928221e-16 0.0000000000000000e+00  5.5000000000000028e-02 -2.0155449351046239e-17 0.0000000000000000e+00  5.5000000000000021e-02 -1.3626387598599477e-16 0.0000000000000000e+00  5.5000000000000028e-02 1.1273331918383209e-16 0.0000000000000000e+00  5.5000000000000021e-02 -1.0548643887798727e-16 0.0000000000000000e+00  5.5000000000000028e-02 1.9036744269528727e-16 0.0000000000000000e+00  5.5000000000000021e-02 -1.5553077978061294e-16 0.0000000000000000e+00  5.5000000000000028e-02 2.6075178797384530e-16 0.0000000000000000e+00  5.5000000000000021e-02 -1.9107185904170484e-16 0.0000000000000000e+00  5.5000000000000028e-02 5.3092228632404726e-16 0.0000000000000000e+00  5.5000000000000014e-02 -1.2241347803964716e-16 0.0000000000000000e+00  5.5000000000000028e-02 4.2521357206651473e-16 0.0000000000000000e+00  5.5000000000000014e-02 3.7952681136662854e-19 0.0000000000000000e+00  5.5000000000000028e-02 2.0839523573276485e-16 0.0000000000000000e+00  5.5000000000000021e-02 4.3547683026504169e-17 0.0000000000000000e+00  5.5000000000000028e-02 2.4384110942769791e-16 0.0000000000000000e+00  5.5000000000000021e-02 2.8370222928151516e-17 0.0000000000000000e+00  5.5000000000000028e-02 6.6263077852235827e-17 0.0000000000000000e+00  5.5000000000000021e-02 8.1152236160164423e-17 0.0000000000000000e+00  5.5000000000000028e-02 -2.4256238954557076e-16 0.0000000000000000e+00  5.5000000000000028e-02 -2.3938442706518785e-16 0.0000000000000000e+00  5.5000000000000028e-02 9.7170568247609180e-17 0.0000000000000000e+00  5.5000000000000014e-02 -1.4833112308707305e-16 0.0000000000000000e+00  5.5000000000000028e-02 -1.6442104391819868e-16 0.0000000000000000e+00  5.5000000000000014e-02 -1.0726999116731597e-17 0.0000000000000000e+00  5.5000000000000028e-02 -1.3983468598220481e-16 0.0000000000000000e+00  5.5000000000000014e-02 8.8943715431091968e-17 0.0000000000000000e+00  5.5000000000000028e-02 -1.6226275834024572e-16 0.0000000000000000e+00  5.5000000000000014e-02 4.2359634014441889e-17 0.0000000000000000e+00  5.5000000000000028e-02 -4.1345323962631156e-16 0.0000000000000000e+00  5.5000000000000021e-02 1.2305985386010207e-17 0.0000000000000000e+00  5.5000000000000028e-02 -3.3668827742446134e-17 0.0000000000000000e+00  5.5000000000000021e-02 1.1047566979981241e-16 0.0000000000000000e+00  5.5000000000000028e-02 1.8635917429180563e-16 0.0000000000000000e+00  5.5000000000000021e-02 4.5945907637290742e-17 0.0000000000000000e+00  5.5000000000000028e-02 1.2130531583712593e-16 0.0000000000000000e+00  5.5000000000000021e-02 -9.4781643658059959e-17 0.0000000000000000e+00  5.5000000000000028e-02 1.6967533564287069e-16 0.0000000000000000e+00  5.5000000000000021e-02 -5.5618485500051110e-18 0.0000000000000000e+00  5.5000000000000028e-02 4.7094374262659821e-16 0.0000000000000000e+00  5.5000000000000014e-02 2.5807625538303834e-16 0.0000000000000000e+00  5.5000000000000021e-02 1.3752896815018813e-16 0.0000000000000000e+00  5.5000000000000014e-02 -1.9841226990001394e-16 0.0000000000000000e+00  5.5000000000000028e-02 -2.3229730780427656e-16 0.0000000000000000e+00  5.5000000000000021e-02 -7.1923161637863300e-18 0.0000000000000000e+00  5.5000000000000028e-02 -1.7548059818368663e-16 0.0000000000000000e+00  5.5000000000000021e-02 -5.6213001297838529e-17 0.0000000000000000e+00  5.5000000000000028e-02 7.8475362372089919e-17 0.0000000000000000e+00  5.5000000000000021e-02 -1.0799107487590725e-16 0.0000000000000000e+00  5.5000000000000028e-02 2.6523486312271244e-16 0.0000000000000000e+00  5.5000000000000021e-02 -1.4490753500425272e-16 0.0000000000000000e+00  5.5000000000000028e-02 2.9802056871449599e-16 0.0000000000000000e+00  5.5000000000000014e-02 -1.2986694719378642e-16 0.0000000000000000e+00  5.5000000000000028e-02 -3.9694367333787431e-18 0.0000000000000000e+00  5.5000000000000014e-02 7.1156321475176987e-18 0.0000000000000000e+00  5.5000000000000028e-02 -1.2288470215254079e-16 0.0000000000000000e+00  5.5000000000000014e-02 8.4950946058007188e-17 0.0000000000000000e+00  5.5000000000000028e-02 -4.0371867014473958e-16 0.0000000000000000e+00  5.5000000000000021e-02 9.5954307155326887e-17 0.0000000000000000e+00  5.5000000000000028e-02 -2.5299625760971236e-17 0.0000000000000000e+00  5.5000000000000014e-02 3.4068700285970511e-16 0.0000000000000000e+00  5.5000000000000021e-02 -1.1385243958504410e-16 0.0000000000000000e+00  5.5000000000000021e-02 6.9280685536984953e-16 0.0000000000000000e+00  5.5000000000000014e-02 1.6044919309929655e-17 0.0000000000000000e+00  5.5000000000000028e-02 5.4762776847335663e-16 0.0000000000000000e+00  5.5000000000000021e-02 -2.7868776784795699e-16 0.0000000000000000e+00  5.5000000000000035e-02 1.7147664620538360e-16 0.0000000000000000e+00  5.5000000000000014e-02 -1.8052889691223547e-16 0.0000000000000000e+00  5.5000000000000028e-02 -1.6982882116485605e-16 0.0000000000000000e+00  5.5000000000000014e-02 -1.9690725760252024e-16 0.0000000000000000e+00  5.5000000000000021e-02 -9.5947405647149338e-17 0.0000000000000000e+00  5.5000000000000014e-02 -8.1159826982517295e-17 0.0000000000000000e+00  5.5000000000000028e-02 4.3156586570995428e-17 0.0000000000000000e+00  5.5000000000000028e-02 -1.9418812577881846e-16 0.0000000000000000e+00  5.5000000000000028e-02 2.4106776441822474e-16 0.0000000000000000e+00  5.5000000000000028e-02 -1.7388629408479755e-16 0.0000000000000000e+00  5.5000000000000028e-02 3.1532805432368725e-16 0.0000000000000000e+00  5.5000000000000021e-02 -2.8380361274046979e-16 0.0000000000000000e+00  5.5000000000000028e-02 3.8855376612234560e-18 0.0000000000000000e+00  5.5000000000000021e-02 -1.9738898033514751e-16 0.0000000000000000e+00  5.5000000000000028e-02 -2.4847358531704652e-16 0.0000000000000000e+00  5.5000000000000021e-02 2.8847780105396854e-17 0.0000000000000000e+00  5.5000000000000021e-02 -1.6163081341463849e-16 0.0000000000000000e+00  5.5000000000000028e-02 -7.0625854515101076e-17 0.0000000000000000e+00  5.5000000000000021e-02 1.0508764146743312e-16 0.0000000000000000e+00  5.5000000000000028e-02 -1.4736143137860948e-16 0.0000000000000000e+00  5.5000000000000021e-02 1.7803806266124520e-16 0.0000000000000000e+00  5.5000000000000028e-02 -1.9626610347695085e-16 0.0000000000000000e+00  5.5000000000000021e-02 1.4120791624501202e-16 0.0000000000000000e+00  5.5000000000000028e-02 -4.8594607673027346e-16 0.0000000000000000e+00  5.5000000000000028e-02 3.9546559069281887e-17 0.0000000000000000e+00  5.5000000000000028e-02 -1.9803778643296126e-16 0.0000000000000000e+00  5.5000000000000028e-02 4.3083320235791204e-17 0.0000000000000000e+00  5.5000000000000028e-02 -7.0244254392497955e-18 0.0000000000000000e+00  5.5000000000000028e-02 1.0778584449197756e-16 0.0000000000000000e+00  5.5000000000000028e-02 1.8710186049910619e-16 0.0000000000000000e+00  5.5000000000000028e-02 1.1340442866686222e-16 0.0000000000000000e+00  5.5000000000000028e-02 -2.6563470763604347e-17 0.0000000000000000e+00  5.5000000000000028e-02 -1.0709734459331782e-16 0.0000000000000000e+00  5.5000000000000028e-02 -2.0728375268807171e-16 0.0000000000000000e+00  5.5000000000000028e-02 -3.9870828228221550e-17 0.0000000000000000e+00  5.5000000000000028e-02 9.0121105827524028e-18 0.0000000000000000e+00  5.5000000000000028e-02 2.2584295921462029e-16 0.0000000000000000e+00  5.5000000000000028e-02 2.6303629880456463e-16 0.0000000000000000e+00  5.5000000000000028e-02 3.5983225863414163e-16 0.0000000000000000e+00  5.5000000000000028e-02 4.1156678194337510e-16 0.0000000000000000e+00  5.5000000000000021e-02 1.5825505131068279e-16 0.0000000000000000e+00  5.5000000000000028e-02 9.1852400873867598e-17 0.0000000000000000e+00  5.5000000000000014e-02 1.4280598834675154e-16 0.0000000000000000e+00  5.5000000000000021e-02 9.1878218681871385e-17 0.0000000000000000e+00  5.5000000000000007e-02 -7.1601164751990126e-17 0.0000000000000000e+00  5.5000000000000028e-02 -3.4506443962039596e-16 0.0000000000000000e+00  5.5000000000000021e-02 -3.6490082113419736e-16 0.0000000000000000e+00  5.5000000000000035e-02 -1.0950090985057918e-16 0.0000000000000000e+00  5.5000000000000014e-02 1.3245061454933301e-16 0.0000000000000000e+00  5.5000000000000028e-02 1.5250780196352063e-16 0.0000000000000000e+00  5.5000000000000014e-02 -1.0017548295524658e-16 0.0000000000000000e+00  5.5000000000000035e-02 2.3827385275370937e-16 0.0000000000000000e+00  5.5000000000000014e-02 2.0845732274950150e-16 0.0000000000000000e+00  5.5000000000000028e-02 1.3849262981535922e-16 0.0000000000000000e+00  5.5000000000000007e-02 4.6307202684630386e-17 0.0000000000000000e+00  5.5000000000000028e-02 2.3480659212429810e-18 0.0000000000000000e+00  5.5000000000000000e-02 5.4676023877012593e-17 0.0000000000000000e+00  5.5000000000000028e-02 -3.1338342146731979e-16 0.0000000000000000e+00  5.5000000000000014e-02 1.1283490851532670e-16 0.0000000000000000e+00  5.5000000000000028e-02 -1.8885863977757773e-16 0.0000000000000000e+00  5.5000000000000007e-02 1.2054357438295685e-16 0.0000000000000000e+00  5.5000000000000028e-02 -2.1197090840663217e-16 0.0000000000000000e+00  5.5000000000000014e-02 1.4671114883986226e-16 0.0000000000000000e+00  5.5000000000000028e-02 -3.4747366865350997e-16 0.0000000000000000e+00  5.5000000000000021e-02 -1.3671477339939312e-16 0.0000000000000000e+00  5.5000000000000021e-02 -8.3114423779858361e-17 0.0000000000000000e+00  5.5000000000000028e-02 -1.4514149991138391e-16 0.0000000000000000e+00  5.5000000000000028e-02 1.7049964607561902e-16 0.0000000000000000e+00  5.5000000000000028e-02 -2.5201235454404076e-16 0.0000000000000000e+00  5.5000000000000021e-02 2.7659057774980589e-16 0.0000000000000000e+00  5.5000000000000021e-02 -6.4161749373784559e-17 0.0000000000000000e+00  5.5000000000000021e-02 9.8086657327800039e-17 0.0000000000000000e+00  5.5000000000000035e-02 5.9759240395342164e-17 0.0000000000000000e+00  5.5000000000000014e-02 -1.0735138452403381e-16 0.0000000000000000e+00  5.5000000000000049e-02 2.2379615049446325e-16 0.0000000000000000e+00  5.5000000000000000e-02 -3.9188961290646267e-16 0.0000000000000000e+00  5.5000000000000028e-02 1.5964457728099696e-16 0.0000000000000000e+00  5.5000000000000167e-02 1.7556589637268365e-15 0.0000000000000000e+00  5.4999999999999077e-02 -1.2311965473754414e-14 0.0000000000000000e+00  5.5000000000004157e-02 5.4897002455917732e-14 0.0000000000000000e+00  5.4999999999984152e-02 -2.1150790348984383e-13 0.0000000000000000e+00  5.5000000000056726e-02 7.5710818874540195e-13 0.0000000000000000e+00  5.4999999999805850e-02 -2.5923901531125640e-12 0.0000000000000000e+00  5.5000000000645186e-02 8.6145796399389348e-12 0.0000000000000000e+00  5.4999999997902796e-02 -2.8004186528263033e-11 0.0000000000000000e+00  5.5000000006704707e-02 8.9527008851081226e-11 0.0000000000000000e+00  5.4999999978846692e-02 -2.8245799735379153e-10 0.0000000000000000e+00  5.5000000066025172e-02 8.8162584725765029e-10 0.0000000000000000e+00  5.4999999795758044e-02 -2.7272268015497648e-09 0.0000000000000000e+00  5.5000000626998412e-02 8.3723901621391087e-09 0.0000000000000000e+00  5.4999998087867749e-02 -2.5534227157238156e-08 0.0000000000000000e+00  5.5000005797510645e-02 7.7429322729404464e-08 0.0000000000000000e+00  5.4999982513854004e-02 -2.3361821963177066e-07 0.0000000000000000e+00  5.5000052486388923e-02 7.0180157675251031e-07 0.0000000000000000e+00  5.4999843195923166e-02 -2.1006309956507743e-06 0.0000000000000000e+00  5.5000466117640451e-02 6.2711905277126099e-06 0.0000000000000000e+00  5.4998622915606650e-02 -1.8705893155539035e-05 0.0000000000000000e+00  5.5004031686634668e-02 5.5924393333637147e-05 0.0000000000000000e+00  5.4988382988449401e-02 -1.6870812011002354e-04 0.0000000000000000e+00  5.5032423638495621e-02 5.1944993746440228e-04 0.0000000000000000e+00  5.4915874409150710e-02 -1.6729907103337450e-03 0.0000000000000000e+00  5.5178244244791050e-02 5.7859650586365172e-03 0.0000000000000000e+00  5.4904714938378785e-02 -2.2708277857917108e-02 0.0000000000000000e+00  5.2849378918205583e-02 9.8051172066959472e-02 0.0000000000000000e+00  9.0325512343008993e-02 -6.5716934149860340e-01 0.0000000000000000e+00  2.0177844731734396e-01 -2.1218382366304098e+00 0.0000000000000000e+00  2.8591873246279320e-01 -2.7760136478741408e+00 0.0000000000000000e+00  3.3605284852842110e-01 -3.0928477307298667e+00 0.0000000000000000e+00  3.6180647831750989e-01 -3.2386819204207420e+00 0.0000000000000000e+00  3.7338840637850423e-01 -3.3039235849816491e+00 0.0000000000000000e+00  3.7816914738894974e-01 -3.3327514817034869e+00 0.0000000000000000e+00  3.7887240343137996e-01 -3.3407473911550927e+00 0.0000000000000000e+00  3.7799786132030000e-01 -3.3406172588593201e+00 0.0000000000000000e+00  3.7596381309322963e-01 -3.3348429294210136e+00 0.0000000000000000e+00  3.7357338691051972e-01 -3.3271813145831417e+00 0.0000000000000000e+00  3.7086535809923526e-01 -3.3178576388867564e+00 0.0000000000000000e+00  3.6805912138628449e-01 -3.3081404515389847e+00 0.0000000000000000e+00  3.6517272158212044e-01 -3.2979086997884974e+00 0.0000000000000000e+00  3.6226652482526911e-01 -3.2875502545311739e+00 0.0000000000000000e+00  3.5933281461698535e-01 -3.2770961651973582e+00 0.0000000000000000e+00  3.5640296360249191e-01 -3.2665760553891121e+00 0.0000000000000000e+00  3.5347155258123153e-01 -3.2560296941739377e+00 0.0000000000000000e+00  3.5054019085570126e-01 -3.2454985884857863e+00 0.0000000000000000e+00  3.4761772371445909e-01 -3.2349494295141468e+00 0.0000000000000000e+00  3.4470113034395083e-01 -3.2244098609392386e+00 0.0000000000000000e+00  3.4178937016358185e-01 -3.2138953103060683e+00 0.0000000000000000e+00  3.3888728147179453e-01 -3.2033828010737899e+00 0.0000000000000000e+00  3.3599324344740306e-01 -3.1928872326869837e+00 0.0000000000000000e+00  3.3310588720318918e-01 -3.1824172658774303e+00 0.0000000000000000e+00  3.3022815594577370e-01 -3.1719612084615361e+00 0.0000000000000000e+00  3.2735946976131364e-01 -3.1615232459043265e+00 0.0000000000000000e+00  3.2449873851939653e-01 -3.1511122865740040e+00 0.0000000000000000e+00  3.2164746377734627e-01 -3.1407215238756878e+00 0.0000000000000000e+00  3.1880590230420752e-01 -3.1303516137591942e+00 0.0000000000000000e+00  3.1597328449737982e-01 -3.1200083780961854e+00 0.0000000000000000e+00  3.1315014747267172e-01 -3.1096905859588864e+00 0.0000000000000000e+00  3.1033714438455617e-01 -3.0993961474806881e+00 0.0000000000000000e+00  3.0753387128157550e-01 -3.0891288501035050e+00 0.0000000000000000e+00  3.0474041323764778e-01 -3.0788897196986533e+00 0.0000000000000000e+00  3.0195725886692254e-01 -3.0686774957176568e+00 0.0000000000000000e+00  2.9918452900164300e-01 -3.0584928029172951e+00 0.0000000000000000e+00  2.9642207416307964e-01 -3.0483380093210819e+00 0.0000000000000000e+00  2.9367017098732839e-01 -3.0382127228907492e+00 0.0000000000000000e+00  2.9092910638984637e-01 -3.0281168028250582e+00 0.0000000000000000e+00  2.8819892456985946e-01 -3.0180510492828323e+00 0.0000000000000000e+00  2.8547965879232090e-01 -3.0080167739569026e+00 0.0000000000000000e+00  2.8277155510956414e-01 -2.9980135296315615e+00 0.0000000000000000e+00  2.8007484554644196e-01 -2.9880414041633894e+00 0.0000000000000000e+00  2.7738959918113565e-01 -2.9781009133361502e+00 0.0000000000000000e+00  2.7471593275529332e-01 -2.9681927664807253e+00 0.0000000000000000e+00  2.7205405011499045e-01 -2.9583166360237301e+00 0.0000000000000000e+00  2.6940421213672039e-01 -2.9484722925961178e+00 0.0000000000000000e+00  2.6676652721136229e-01 -2.9386599129207287e+00 0.0000000000000000e+00  2.6414117197265269e-01 -2.9288797071828387e+00 0.0000000000000000e+00  2.6152832269313064e-01 -2.9191313844946301e+00 0.0000000000000000e+00  2.5892830373938613e-01 -2.9094141831362248e+00 0.0000000000000000e+00  2.5634129020053409e-01 -2.8997277301637712e+00 0.0000000000000000e+00  2.5376753561669496e-01 -2.8900716212934365e+00 0.0000000000000000e+00  2.5120721276443481e-01 -2.8804454146196510e+00 0.0000000000000000e+00  2.4866070069430254e-01 -2.8708478486061315e+00 0.0000000000000000e+00  2.4612828756654487e-01 -2.8612776493837870e+00 0.0000000000000000e+00  2.4361035859425687e-01 -2.8517334069846791e+00 0.0000000000000000e+00  2.4110716495119203e-01 -2.8422139560711184e+00 0.0000000000000000e+00  2.3861910896995117e-01 -2.8327176679232213e+00 0.0000000000000000e+00  2.3614658987173767e-01 -2.8232422974340841e+00 0.0000000000000000e+00  2.3369016317446450e-01 -2.8137850844947407e+00 0.0000000000000000e+00  2.3125034298730110e-01 -2.8043428564163020e+00 0.0000000000000000e+00  2.2882768586173444e-01 -2.7949126545724892e+00 0.0000000000000000e+00  2.2642273299996551e-01 -2.7854909209927508e+00 0.0000000000000000e+00  2.2403612380455662e-01 -2.7760739443518165e+00 0.0000000000000000e+00  2.2166862062045556e-01 -2.7666564641872222e+00 0.0000000000000000e+00  2.1932112721819244e-01 -2.7572327377483021e+00 0.0000000000000000e+00  2.1699467343913223e-01 -2.7477953825336003e+00 0.0000000000000000e+00  2.1469037379950165e-01 -2.7383368629996543e+00 0.0000000000000000e+00  2.1240943871359841e-01 -2.7288481488489427e+00 0.0000000000000000e+00  2.1015320858562264e-01 -2.7193197089611090e+00 0.0000000000000000e+00  2.0792321180606893e-01 -2.7097398238017911e+00 0.0000000000000000e+00  2.0572127452218705e-01 -2.7000950462150346e+00 0.0000000000000000e+00  2.0354954187519364e-01 -2.6903687166495223e+00 0.0000000000000000e+00  2.0141060695810992e-01 -2.6805412645283986e+00 0.0000000000000000e+00  1.9930745837078798e-01 -2.67058919755423