<?xml version="1.0"?>
<VTKFile type="UnstructuredGrid"  version="0.1"  >
<UnstructuredGrid>
<Piece  NumberOfPoints="801" NumberOfCells="800">
<Points>
<DataArray  type="Float64"  NumberOfComponents="3"  format="ascii">-5 0 0  -4.9875 0 0  -4.975 0 0  -4.9625 0 0  -4.95 0 0  -4.9375 0 0  -4.925 0 0  -4.9125 0 0  -4.9 0 0  -4.8875 0 0  -4.875 0 0  -4.8625 0 0  -4.85 0 0  -4.8375 0 0  -4.825 0 0  -4.8125 0 0  -4.8 0 0  -4.7875 0 0  -4.775 0 0  -4.7625 0 0  -4.75 0 0  -4.7375 0 0  -4.725 0 0  -4.7125 0 0  -4.7 0 0  -4.6875 0 0  -4.675 0 0  -4.6625 0 0  -4.65 0 0  -4.6375 0 0  -4.625 0 0  -4.6125 0 0  -4.6 0 0  -4.5875 0 0  -4.575 0 0  -4.5625 0 0  -4.55 0 0  -4.5375 0 0  -4.525 0 0  -4.5125 0 0  -4.5 0 0  -4.4875 0 0  -4.475 0 0  -4.4625 0 0  -4.45 0 0  -4.4375 0 0  -4.425 0 0  -4.4125 0 0  -4.4 0 0  -4.3875 0 0  -4.375 0 0  -4.3625 0 0  -4.35 0 0  -4.3375 0 0  -4.325 0 0  -4.3125 0 0  -4.3 0 0  -4.2875 0 0  -4.275 0 0  -4.2625 0 0  -4.25 0 0  -4.2375 0 0  -4.225 0 0  -4.2125 0 0  -4.2 0 0  -4.1875 0 0  -4.175 0 0  -4.1625 0 0  -4.15 0 0  -4.1375 0 0  -4.125 0 0  -4.1125 0 0  -4.1 0 0  -4.0875 0 0  -4.075 0 0  -4.0625 0 0  -4.05 0 0  -4.0375 0 0  -4.025 0 0  -4.0125 0 0  -4 0 0  -3.9875 0 0  -3.975 0 0  -3.9625 0 0  -3.95 0 0  -3.9375 0 0  -3.925 0 0  -3.9125 0 0  -3.9 0 0  -3.8875 0 0  -3.875 0 0  -3.8625 0 0  -3.85 0 0  -3.8375 0 0  -3.825 0 0  -3.8125 0 0  -3.8 0 0  -3.7875 0 0  -3.775 0 0  -3.7625 0 0  -3.75 0 0  -3.7375 0 0  -3.725 0 0  -3.7125 0 0  -3.7 0 0  -3.6875 0 0  -3.675 0 0  -3.6625 0 0  -3.65 0 0  -3.6375 0 0  -3.625 0 0  -3.6125 0 0  -3.6 0 0  -3.5875 0 0  -3.575 0 0  -3.5625 0 0  -3.55 0 0  -3.5375 0 0  -3.525 0 0  -3.5125 0 0  -3.5 0 0  -3.4875 0 0  -3.475 0 0  -3.4625 0 0  -3.45 0 0  -3.4375 0 0  -3.425 0 0  -3.4125 0 0  -3.4 0 0  -3.3875 0 0  -3.375 0 0  -3.3625 0 0  -3.35 0 0  -3.3375 0 0  -3.325 0 0  -3.3125 0 0  -3.3 0 0  -3.2875 0 0  -3.275 0 0  -3.2625 0 0  -3.25 0 0  -3.2375 0 0  -3.225 0 0  -3.2125 0 0  -3.2 0 0  -3.1875 0 0  -3.175 0 0  -3.1625 0 0  -3.15 0 0  -3.1375 0 0  -3.125 0 0  -3.1125 0 0  -3.1 0 0  -3.0875 0 0  -3.075 0 0  -3.0625 0 0  -3.05 0 0  -3.0375 0 0  -3.025 0 0  -3.0125 0 0  -3 0 0  -2.9875 0 0  -2.975 0 0  -2.9625 0 0  -2.95 0 0  -2.9375 0 0  -2.925 0 0  -2.9125 0 0  -2.9 0 0  -2.8875 0 0  -2.875 0 0  -2.8625 0 0  -2.85 0 0  -2.8375 0 0  -2.825 0 0  -2.8125 0 0  -2.8 0 0  -2.7875 0 0  -2.775 0 0  -2.7625 0 0  -2.75 0 0  -2.7375 0 0  -2.725 0 0  -2.7125 0 0  -2.7 0 0  -2.6875 0 0  -2.675 0 0  -2.6625 0 0  -2.65 0 0  -2.6375 0 0  -2.625 0 0  -2.6125 0 0  -2.6 0 0  -2.5875 0 0  -2.575 0 0  -2.5625 0 0  -2.55 0 0  -2.5375 0 0  -2.525 0 0  -2.5125 0 0  -2.5 0 0  -2.4875 0 0  -2.475 0 0  -2.4625 0 0  -2.45 0 0  -2.4375 0 0  -2.425 0 0  -2.4125 0 0  -2.4 0 0  -2.3875 0 0  -2.375 0 0  -2.3625 0 0  -2.35 0 0  -2.3375 0 0  -2.325 0 0  -2.3125 0 0  -2.3 0 0  -2.2875 0 0  -2.275 0 0  -2.2625 0 0  -2.25 0 0  -2.2375 0 0  -2.225 0 0  -2.2125 0 0  -2.2 0 0  -2.1875 0 0  -2.175 0 0  -2.1625 0 0  -2.15 0 0  -2.1375 0 0  -2.125 0 0  -2.1125 0 0  -2.1 0 0  -2.0875 0 0  -2.075 0 0  -2.0625 0 0  -2.05 0 0  -2.0375 0 0  -2.025 0 0  -2.0125 0 0  -2 0 0  -1.9875 0 0  -1.975 0 0  -1.9625 0 0  -1.95 0 0  -1.9375 0 0  -1.925 0 0  -1.9125 0 0  -1.9 0 0  -1.8875 0 0  -1.875 0 0  -1.8625 0 0  -1.85 0 0  -1.8375 0 0  -1.825 0 0  -1.8125 0 0  -1.8 0 0  -1.7875 0 0  -1.775 0 0  -1.7625 0 0  -1.75 0 0  -1.7375 0 0  -1.725 0 0  -1.7125 0 0  -1.7 0 0  -1.6875 0 0  -1.675 0 0  -1.6625 0 0  -1.65 0 0  -1.6375 0 0  -1.625 0 0  -1.6125 0 0  -1.6 0 0  -1.5875 0 0  -1.575 0 0  -1.5625 0 0  -1.55 0 0  -1.5375 0 0  -1.525 0 0  -1.5125 0 0  -1.5 0 0  -1.4875 0 0  -1.475 0 0  -1.4625 0 0  -1.45 0 0  -1.4375 0 0  -1.425 0 0  -1.4125 0 0  -1.4 0 0  -1.3875 0 0  -1.375 0 0  -1.3625 0 0  -1.35 0 0  -1.3375 0 0  -1.325 0 0  -1.3125 0 0  -1.3 0 0  -1.2875 0 0  -1.275 0 0  -1.2625 0 0  -1.25 0 0  -1.2375 0 0  -1.225 0 0  -1.2125 0 0  -1.2 0 0  -1.1875 0 0  -1.175 0 0  -1.1625 0 0  -1.15 0 0  -1.1375 0 0  -1.125 0 0  -1.1125 0 0  -1.1 0 0  -1.0875 0 0  -1.075 0 0  -1.0625 0 0  -1.05 0 0  -1.0375 0 0  -1.025 0 0  -1.0125 0 0  -1 0 0  -0.9874999999999998 0 0  -0.9749999999999996 0 0  -0.9625000000000004 0 0  -0.9500000000000002 0 0  -0.9375 0 0  -0.9249999999999998 0 0  -0.9124999999999996 0 0  -0.9000000000000004 0 0  -0.8875000000000002 0 0  -0.875 0 0  -0.8624999999999998 0 0  -0.8499999999999996 0 0  -0.8375000000000004 0 0  -0.8250000000000002 0 0  -0.8125 0 0  -0.7999999999999998 0 0  -0.7874999999999996 0 0  -0.7750000000000004 0 0  -0.7625000000000002 0 0  -0.75 0 0  -0.7374999999999998 0 0  -0.7249999999999996 0 0  -0.7125000000000004 0 0  -0.7000000000000002 0 0  -0.6875 0 0  -0.6749999999999998 0 0  -0.6624999999999996 0 0  -0.6500000000000004 0 0  -0.6375000000000002 0 0  -0.625 0 0  -0.6124999999999998 0 0  -0.5999999999999996 0 0  -0.5875000000000004 0 0  -0.5750000000000002 0 0  -0.5625 0 0  -0.5499999999999998 0 0  -0.5374999999999996 0 0  -0.5250000000000004 0 0  -0.5125000000000002 0 0  -0.5 0 0  -0.4874999999999998 0 0  -0.4749999999999996 0 0  -0.4625000000000004 0 0  -0.4500000000000002 0 0  -0.4375 0 0  -0.4249999999999998 0 0  -0.4124999999999996 0 0  -0.4000000000000004 0 0  -0.3875000000000002 0 0  -0.375 0 0  -0.3624999999999998 0 0  -0.3499999999999996 0 0  -0.3375000000000004 0 0  -0.3250000000000002 0 0  -0.3125 0 0  -0.2999999999999998 0 0  -0.2874999999999996 0 0  -0.2750000000000004 0 0  -0.2625000000000002 0 0  -0.25 0 0  -0.2374999999999998 0 0  -0.2249999999999996 0 0  -0.2125000000000004 0 0  -0.2000000000000002 0 0  -0.1875 0 0  -0.1749999999999998 0 0  -0.1624999999999996 0 0  -0.1500000000000004 0 0  -0.1375000000000002 0 0  -0.125 0 0  -0.1124999999999998 0 0  -0.09999999999999964 0 0  -0.08750000000000036 0 0  -0.07500000000000018 0 0  -0.0625 0 0  -0.04999999999999982 0 0  -0.03749999999999964 0 0  -0.02500000000000036 0 0  -0.01250000000000018 0 0  0 0 0  0.01250000000000018 0 0  0.02500000000000036 0 0  0.03749999999999964 0 0  0.04999999999999982 0 0  0.0625 0 0  0.07500000000000018 0 0  0.08750000000000036 0 0  0.09999999999999964 0 0  0.1124999999999998 0 0  0.125 0 0  0.1375000000000002 0 0  0.1500000000000004 0 0  0.1624999999999996 0 0  0.1749999999999998 0 0  0.1875 0 0  0.2000000000000002 0 0  0.2125000000000004 0 0  0.2249999999999996 0 0  0.2374999999999998 0 0  0.25 0 0  0.2625000000000002 0 0  0.2750000000000004 0 0  0.2874999999999996 0 0  0.2999999999999998 0 0  0.3125 0 0  0.3250000000000002 0 0  0.3375000000000004 0 0  0.3499999999999996 0 0  0.3624999999999998 0 0  0.375 0 0  0.3875000000000002 0 0  0.4000000000000004 0 0  0.4124999999999996 0 0  0.4249999999999998 0 0  0.4375 0 0  0.4500000000000002 0 0  0.4625000000000004 0 0  0.4749999999999996 0 0  0.4874999999999998 0 0  0.5 0 0  0.5125000000000002 0 0  0.5250000000000004 0 0  0.5374999999999996 0 0  0.5499999999999998 0 0  0.5625 0 0  0.5750000000000002 0 0  0.5875000000000004 0 0  0.5999999999999996 0 0  0.6124999999999998 0 0  0.625 0 0  0.6375000000000002 0 0  0.6500000000000004 0 0  0.6624999999999996 0 0  0.6749999999999998 0 0  0.6875 0 0  0.7000000000000002 0 0  0.7125000000000004 0 0  0.7249999999999996 0 0  0.7374999999999998 0 0  0.75 0 0  0.7625000000000002 0 0  0.7750000000000004 0 0  0.7874999999999996 0 0  0.7999999999999998 0 0  0.8125 0 0  0.8250000000000002 0 0  0.8375000000000004 0 0  0.8499999999999996 0 0  0.8624999999999998 0 0  0.875 0 0  0.8875000000000002 0 0  0.9000000000000004 0 0  0.9124999999999996 0 0  0.9249999999999998 0 0  0.9375 0 0  0.9500000000000002 0 0  0.9625000000000004 0 0  0.9749999999999996 0 0  0.9874999999999998 0 0  1 0 0  1.0125 0 0  1.025 0 0  1.0375 0 0  1.05 0 0  1.0625 0 0  1.075 0 0  1.0875 0 0  1.1 0 0  1.1125 0 0  1.125 0 0  1.1375 0 0  1.15 0 0  1.1625 0 0  1.175 0 0  1.1875 0 0  1.2 0 0  1.2125 0 0  1.225 0 0  1.2375 0 0  1.25 0 0  1.2625 0 0  1.275 0 0  1.2875 0 0  1.3 0 0  1.3125 0 0  1.325 0 0  1.3375 0 0  1.35 0 0  1.3625 0 0  1.375 0 0  1.3875 0 0  1.4 0 0  1.4125 0 0  1.425 0 0  1.4375 0 0  1.45 0 0  1.4625 0 0  1.475 0 0  1.4875 0 0  1.5 0 0  1.5125 0 0  1.525 0 0  1.5375 0 0  1.55 0 0  1.5625 0 0  1.575 0 0  1.5875 0 0  1.6 0 0  1.6125 0 0  1.625 0 0  1.6375 0 0  1.65 0 0  1.6625 0 0  1.675 0 0  1.6875 0 0  1.7 0 0  1.7125 0 0  1.725 0 0  1.7375 0 0  1.75 0 0  1.7625 0 0  1.775 0 0  1.7875 0 0  1.8 0 0  1.8125 0 0  1.825 0 0  1.8375 0 0  1.85 0 0  1.8625 0 0  1.875 0 0  1.8875 0 0  1.9 0 0  1.9125 0 0  1.925 0 0  1.9375 0 0  1.95 0 0  1.9625 0 0  1.975 0 0  1.9875 0 0  2 0 0  2.0125 0 0  2.025 0 0  2.0375 0 0  2.05 0 0  2.0625 0 0  2.075 0 0  2.0875 0 0  2.1 0 0  2.1125 0 0  2.125 0 0  2.1375 0 0  2.15 0 0  2.1625 0 0  2.175 0 0  2.1875 0 0  2.2 0 0  2.2125 0 0  2.225 0 0  2.2375 0 0  2.25 0 0  2.2625 0 0  2.275 0 0  2.2875 0 0  2.3 0 0  2.3125 0 0  2.325 0 0  2.3375 0 0  2.35 0 0  2.3625 0 0  2.375 0 0  2.3875 0 0  2.4 0 0  2.4125 0 0  2.425 0 0  2.4375 0 0  2.45 0 0  2.4625 0 0  2.475 0 0  2.4875 0 0  2.5 0 0  2.5125 0 0  2.525 0 0  2.5375 0 0  2.55 0 0  2.5625 0 0  2.575 0 0  2.5875 0 0  2.6 0 0  2.6125 0 0  2.625 0 0  2.6375 0 0  2.65 0 0  2.6625 0 0  2.675 0 0  2.6875 0 0  2.7 0 0  2.7125 0 0  2.725 0 0  2.7375 0 0  2.75 0 0  2.7625 0 0  2.775 0 0  2.7875 0 0  2.8 0 0  2.8125 0 0  2.825 0 0  2.8375 0 0  2.85 0 0  2.8625 0 0  2.875 0 0  2.8875 0 0  2.9 0 0  2.9125 0 0  2.925 0 0  2.9375 0 0  2.95 0 0  2.9625 0 0  2.975 0 0  2.9875 0 0  3 0 0  3.012499999999999 0 0  3.025 0 0  3.0375 0 0  3.050000000000001 0 0  3.0625 0 0  3.074999999999999 0 0  3.0875 0 0  3.1 0 0  3.112500000000001 0 0  3.125 0 0  3.137499999999999 0 0  3.15 0 0  3.1625 0 0  3.175000000000001 0 0  3.1875 0 0  3.199999999999999 0 0  3.2125 0 0  3.225 0 0  3.237500000000001 0 0  3.25 0 0  3.262499999999999 0 0  3.275 0 0  3.2875 0 0  3.300000000000001 0 0  3.3125 0 0  3.324999999999999 0 0  3.3375 0 0  3.35 0 0  3.362500000000001 0 0  3.375 0 0  3.387499999999999 0 0  3.4 0 0  3.4125 0 0  3.425000000000001 0 0  3.4375 0 0  3.449999999999999 0 0  3.4625 0 0  3.475 0 0  3.4875
[...]
<PointData  Vectors="(h, u)"> 
<DataArray  type="Float64"  Name="(h, u)"  NumberOfComponents="3" format="ascii">5.5000000000000063e-02 0.0000000000000000e+00 0.0000000000000000e+00  5.5000000000000007e-02 7.6438522672992055e-16 0.0000000000000000e+00  5.5000000000000021e-02 -6.0776598652106143e-16 0.0000000000000000e+00  5.5000000000000014e-02 2.1783664845759918e-15 0.0000000000000000e+00  5.5000000000000028e-02 -4.1962770405640728e-16 0.0000000000000000e+00  5.5000000000000000e-02 4.7193819386210607e-16 0.0000000000000000e+00  5.5000000000000035e-02 2.6410395195317096e-16 0.0000000000000000e+00  5.4999999999999986e-02 -1.6445855115183191e-17 0.0000000000000000e+00  5.5000000000000090e-02 2.1593792200901578e-16 0.0000000000000000e+00  5.5000000000000035e-02 1.2131442300957502e-15 0.0000000000000000e+00  5.5000000000000014e-02 1.2375522277747365e-15 0.0000000000000000e+00  5.5000000000000035e-02 7.5672704830725074e-16 0.0000000000000000e+00  5.4999999999999973e-02 1.0605932848032141e-15 0.0000000000000000e+00  5.5000000000000007e-02 -1.3541448512511090e-16 0.0000000000000000e+00  5.4999999999999938e-02 6.4428998462839491e-16 0.0000000000000000e+00  5.5000000000000007e-02 -3.2295680864374089e-16 0.0000000000000000e+00  5.4999999999999986e-02 1.3717821262244280e-17 0.0000000000000000e+00  5.5000000000000035e-02 -5.5131020277441619e-17 0.0000000000000000e+00  5.4999999999999931e-02 1.1358459511562021e-15 0.0000000000000000e+00  5.5000000000000000e-02 1.1290447746380048e-15 0.0000000000000000e+00  5.4999999999999973e-02 -1.4932303733601768e-17 0.0000000000000000e+00  5.5000000000000077e-02 -4.6969141014205595e-17 0.0000000000000000e+00  5.4999999999999959e-02 -6.8699350643140804e-16 0.0000000000000000e+00  5.5000000000000035e-02 -3.0555570475941484e-16 0.0000000000000000e+00  5.5000000000000007e-02 -9.6830876593106746e-17 0.0000000000000000e+00  5.4999999999999973e-02 1.3816486061279816e-17 0.0000000000000000e+00  5.5000000000000000e-02 -5.0400325544425502e-16 0.0000000000000000e+00  5.5000000000000007e-02 4.1396674455119799e-16 0.0000000000000000e+00  5.5000000000000035e-02 3.9562776875858501e-16 0.0000000000000000e+00  5.5000000000000035e-02 4.8025291448564537e-16 0.0000000000000000e+00  5.5000000000000035e-02 4.1778868537586157e-16 0.0000000000000000e+00  5.5000000000000070e-02 2.6057542383817761e-16 0.0000000000000000e+00  5.5000000000000028e-02 1.5462203235971547e-16 0.0000000000000000e+00  5.5000000000000028e-02 -1.0283108541823413e-15 0.0000000000000000e+00  5.5000000000000042e-02 -6.8733403143419067e-16 0.0000000000000000e+00  5.5000000000000000e-02 -7.5135706371030213e-16 0.0000000000000000e+00  5.5000000000000028e-02 -1.8374258917646050e-16 0.0000000000000000e+00  5.5000000000000021e-02 -1.8214753151166160e-15 0.0000000000000000e+00  5.5000000000000035e-02 -2.1770778928967147e-16 0.0000000000000000e+00  5.5000000000000063e-02 -2.1584700335464527e-16 0.0000000000000000e+00  5.5000000000000028e-02 5.3891298116679349e-16 0.0000000000000000e+00  5.5000000000000090e-02 1.1168186949211629e-16 0.0000000000000000e+00  5.5000000000000090e-02 1.6773590139510597e-16 0.0000000000000000e+00  5.4999999999999959e-02 -1.4542879874003554e-15 0.0000000000000000e+00  5.5000000000000222e-02 1.8737561512862919e-15 0.0000000000000000e+00  5.4999999999999306e-02 -8.8360826539720757e-15 0.0000000000000000e+00  5.5000000000002047e-02 2.6823711055513468e-14 0.0000000000000000e+00  5.4999999999993270e-02 -8.9073596286149678e-14 0.0000000000000000e+00  5.5000000000021421e-02 2.8606029572841868e-13 0.0000000000000000e+00  5.4999999999932395e-02 -9.0376649119366384e-13 0.0000000000000000e+00  5.5000000000209805e-02 2.8036809524323126e-12 0.0000000000000000e+00  5.4999999999359610e-02 -8.5620421092974795e-12 0.0000000000000000e+00  5.5000000001919486e-02 2.5687910089347952e-11 0.0000000000000000e+00  5.4999999994361157e-02 -7.5599268932286983e-11 0.0000000000000000e+00  5.5000000016188849e-02 2.1767793282476536e-10 0.0000000000000000e+00  5.4999999954792364e-02 -6.1085812086066716e-10 0.0000000000000000e+00  5.5000000121862576e-02 1.6602568338337437e-09 0.0000000000000000e+00  5.4999999687022801e-02 -4.3244101564819250e-09 0.0000000000000000e+00  5.5000000747067970e-02 1.0584810355256022e-08 0.0000000000000000e+00  5.4999998433209615e-02 -2.3332328284833472e-08 0.0000000000000000e+00  5.5000002405838383e-02 4.0921168883228373e-08 0.0000000000000000e+00  5.5000000333733784e-02 -2.3561286686095447e-08 0.0000000000000000e+00  5.4999975109136880e-02 -2.6726616395967778e-07 0.0000000000000000e+00  5.5000146232268211e-02 1.9652371275111466e-06 0.0000000000000000e+00  5.4999365296397207e-02 -9.9978692124875422e-06 0.0000000000000000e+00  5.5002350527536374e-02 4.4986197359176866e-05 0.0000000000000000e+00  5.4992422340061645e-02 -1.9221331969445317e-04 0.0000000000000000e+00  5.5020168385488767e-02 8.0425300315180369e-04 0.0000000000000000e+00  5.4966899521362404e-02 -3.3536420638924252e-03 0.0000000000000000e+00  5.4929767931417336e-02 1.3958787606245970e-02 0.0000000000000000e+00  5.6114988675083237e-02 -5.8633081738346235e-02 0.0000000000000000e+00  4.7792688398625230e-02 2.4574370065698847e-01 0.0000000000000000e+00  1.0402710761502287e-01 -1.0173131323334559e+00 0.0000000000000000e+00  2.9600712912289662e-01 -2.6532641427890278e+00 0.0000000000000000e+00  3.2247065402914915e-01 -2.7489089882483393e+00 0.0000000000000000e+00  3.1696927170178174e-01 -2.7396467689356565e+00 0.0000000000000000e+00  3.3298065123731607e-01 -2.8235649274560974e+00 0.0000000000000000e+00  3.1964139953400944e-01 -2.7544376462172337e+00 0.0000000000000000e+00  3.2398445584247343e-01 -2.7801146007133299e+00 0.0000000000000000e+00  3.2140642161870703e-01 -2.7683991753224855e+00 0.0000000000000000e+00  3.1836661120147713e-01 -2.7537781232912057e+00 0.0000000000000000e+00  3.1864687408136366e-01 -2.7576807547704316e+00 0.0000000000000000e+00  3.1571638836313509e-01 -2.7437244849676792e+00 0.0000000000000000e+00  3.1468576116387742e-01 -2.7403146256415578e+00 0.0000000000000000e+00  3.1305790326884542e-01 -2.7335906324700638e+00 0.0000000000000000e+00  3.1125904420152639e-01 -2.7258806659985586e+00 0.0000000000000000e+00  3.0988636887189747e-01 -2.7205619344396141e+00 0.0000000000000000e+00  3.0816127231111484e-01 -2.7132520419811645e+00 0.0000000000000000e+00  3.0662451378095901e-01 -2.7069924807954870e+00 0.0000000000000000e+00  3.0504973542246711e-01 -2.7005128189398468e+00 0.0000000000000000e+00  3.0344441575116787e-01 -2.6938496269948078e+00 0.0000000000000000e+00  3.0189252987136334e-01 -2.6874825248583618e+00 0.0000000000000000e+00  3.0030744235116386e-01 -2.6809181666478921e+00 0.0000000000000000e+00  2.9874152883470145e-01 -2.6744547505411083e+00 0.0000000000000000e+00  2.9717753291016202e-01 -2.6679944904297352e+00 0.0000000000000000e+00  2.9561168161295731e-01 -2.6615152787777681e+00 0.0000000000000000e+00  2.9405451468237698e-01 -2.6550781395050080e+00 0.0000000000000000e+00  2.9249717613782800e-01 -2.6486322130170779e+00 0.0000000000000000e+00  2.9094418388545412e-01 -2.6422036291677999e+00 0.0000000000000000e+00  2.8939460608082052e-01 -2.6357871033445575e+00 0.0000000000000000e+00  2.8784760741781318e-01 -2.6293778026800667e+00 0.0000000000000000e+00  2.8630436143881305e-01 -2.6229827866167876e+00 0.0000000000000000e+00  2.8476404618703127e-01 -2.6165975006577042e+00 0.0000000000000000e+00  2.8322699448339506e-01 -2.6102239956597866e+00 0.0000000000000000e+00  2.8169321229156596e-01 -2.6038623239933241e+00 0.0000000000000000e+00  2.8016258244620368e-01 -2.5975119023454480e+00 0.0000000000000000e+00  2.7863521130829416e-01 -2.5911736265898404e+00 0.0000000000000000e+00  2.7711102797881881e-01 -2.5848472915102909e+00 0.0000000000000000e+00  2.7559006003127562e-01 -2.5785330970919174e+00 0.0000000000000000e+00  2.7407232227761213e-01 -2.5722311922487093e+00 0.0000000000000000e+00  2.7255779269171443e-01 -2.5659416966411017e+00 0.0000000000000000e+00  2.7104647279738353e-01 -2.5596648738326877e+00 0.0000000000000000e+00  2.6953836557787042e-01 -2.5534008071914061e+00 0.0000000000000000e+00  2.6803347877844619e-01 -2.5471496088455585e+00 0.0000000000000000e+00  2.6653180490028561e-01 -2.5409114943949445e+00 0.0000000000000000e+00  2.6503333494603876e-01 -2.5346866601042453e+00 0.0000000000000000e+00  2.6353807734944074e-01 -2.5284752221394755e+00 0.0000000000000000e+00  2.6204603572949270e-01 -2.5222773150889113e+00 0.0000000000000000e+00  2.6055719930474308e-01 -2.5160931647552518e+00 0.0000000000000000e+00  2.5907156455112079e-01 -2.5099229571077593e+00 0.0000000000000000e+00  2.5758913947153450e-01 -2.5037668055738265e+00 0.0000000000000000e+00  2.5610992125090959e-01 -2.4976248929113805e+00 0.0000000000000000e+00  2.5463389927355556e-01 -2.4914974515520161e+00 0.0000000000000000e+00  2.5316107619374761e-01 -2.4853846335594305e+00 0.0000000000000000e+00  2.5169145611706023e-01 -2.4792865832880855e+00 0.0000000000000000e+00  2.5022502933490243e-01 -2.4732035325891406e+00 0.0000000000000000e+00  2.4876179119600172e-01 -2.4671356841609358e+00 0.0000000000000000e+00  2.4730174728870530e-01 -2.4610831780187277e+00 0.0000000000000000e+00  2.4584489229489456e-01 -2.4550462240975994e+00 0.0000000000000000e+00  2.4439121700097952e-01 -2.4490250593171874e+00 0.0000000000000000e+00  2.4294072464797631e-01 -2.4430198438698887e+00 0.0000000000000000e+00  2.4149341387507692e-01 -2.4370307685382970e+00 0.0000000000000000e+00  2.4004927396308728e-01 -2.4310580859427673e+00 0.0000000000000000e+00  2.3860830464049254e-01 -2.4251019844945292e+00 0.0000000000000000e+00  2.3717050674962914e-01 -2.4191626470846397e+00 0.0000000000000000e+00  2.3573586978089661e-01 -2.4132403316986535e+00 0.0000000000000000e+00  2.3430439033951309e-01 -2.4073352532489798e+00 0.0000000000000000e+00  2.3287606994052570e-01 -2.4014475968290205e+00 0.0000000000000000e+00  2.3145089877193481e-01 -2.3955776231344679e+00 0.0000000000000000e+00  2.3002887117299819e-01 -2.3897255688292152e+00 0.0000000000000000e+00  2.2860998842782923e-01 -2.3838916274890636e+00 0.0000000000000000e+00  2.2719424123073736e-01 -2.3780760642341043e+00 0.0000000000000000e+00  2.2578162245606720e-01 -2.3722791330120301e+00 0.0000000000000000e+00  2.2437213275709750e-01 -2.3665010390344468e+00 0.0000000000000000e+00  2.2296576288626396e-01 -2.3607420553093057e+00 0.0000000000000000e+00  2.2156250487137755e-01 -2.3550024497154034e+00 0.0000000000000000e+00  2.2016235860654768e-01 -2.3492824405619754e+00 0.0000000000000000e+00  2.1876531441771591e-01 -2.3435823125619657e+00 0.0000000000000000e+00  2.1737136396950130e-01 -2.3379023450045437e+00 0.0000000000000000e+00  2.1598050634137614e-01 -2.3322427703369009e+00 0.0000000000000000e+00  2.1459273101631474e-01 -2.3266038884670359e+00 0.0000000000000000e+00  2.1320802972091982e-01 -2.3209859879134926e+00 0.0000000000000000e+00  2.1182640059936481e-01 -2.3153893168010735e+00 0.0000000000000000e+00  2.1044783200759376e-01 -2.3098141929523210e+00 0.0000000000000000e+00  2.0907231614870816e-01 -2.3042609119608652e+00 0.0000000000000000e+00  2.0769984995133539e-01 -2.2987297403346920e+00 0.0000000000000000e+00  2.0633042057437434e-01 -2.2932210151740566e+00 0.0000000000000000e+00  2.0496402107503248e-01 -2.2877350371977236e+00 0.0000000000000000e+00  2.0360064669334385e-01 -2.2822720954494886e+00 0.0000000000000000e+00  2.0224028363217261e-01 -2.2768325455874492e+00 0.0000000000000000e+00  2.0088292603557373e-01 -2.2714166924657762e+00 0.0000000000000000e+00  1.9952856683895689e-01 -2.2660248529818277e+00 0.0000000000000000e+00  1.9817719193022676e-01 -2.2606573978349052e+00 0.0000000000000000e+00  1.9682879643196483e-01 -2.2553146374013266e+00 0.0000000000000000e+00  1.9548337041137820e-01 -2.2499969215937115e+00 0.0000000000000000e+00  1.9414090046305613e-01 -2.2447046298472619e+00 0.0000000000000000e+00  1.9280138203600719e-01 -2.2394380833671015e+00 0.0000000000000000e+00  1.9146480215801964e-01 -2.2341976676622375e+00 0.0000000000000000e+00  1.9013114931251499e-01 -2.2289837632457199e+00 0.0000000000000000e+00  1.8880041799761474e-01 -2.2237967121421724e+00 0.0000000000000000e+00  1.8747259285006787e-01 -2.2186369322634527e+00 0.0000000000000000e+00  1.8614766507333161e-01 -2.2135047998048427e+00 0.0000000000000000e+00  1.8482562658817661e-01 -2.2084006905096376e+00 0.0000000000000000e+00  1.8350646135450602e-01 -2.2033250436482681e+00 0.0000000000000000e+00  1.8219016311046210e-01 -2.1982782329189638e+00 0.0000000000000000e+00  1.8087671996946661e-01 -2.1932606782694646e+00 0.0000000000000000e+00  1.7956611773190351e-01 -2.1882728229655131e+00 0.0000000000000000e+00  1.7825835100521714e-01 -2.1833150510032491e+00 0.0000000000000000e+00  1.7695340436373982e-01 -2.1783878263260132e+00 0.0000000000000000e+00  1.7565126769654110e-01 -2.1734915801338510e+00 0.0000000000000000e+00  1.7435193373476346e-01 -2.1686267280518781e+00 0.0000000000000000e+00  1.7305538603853762e-01 -2.1637937608680415e+00 0.0000000000000000e+00  1.7176161900181569e-01 -2.1589930947424936e+00 0.0000000000000000e+00  1.7047062127263560e-01 -2.1542251949968025e+00 0.0000000000000000e+00  1.6918237965609753e-01 -2.1494905482123681e+00 0.0000000000000000e+00  1.6789689062196611e-01 -2.1447895739648173e+00 0.0000000000000000e+00  1.6661413945551137e-01 -2.1401227836481032e+00 0.0000000000000000e+00  1.6533411977528523e-01 -2.1354906324567224e+00 0.0000000000000000e+00  1.6405682604404090e-01 -2.1308935752149538e+00 0.0000000000000000e+00  1.6278224501805930e-01 -2.1263321336609105e+00 0.0000000000000000e+00  1.6151037691689396e-01 -2.1218067323993672e+00 0.0000000000000000e+00  1.6024121226394178e-01 -2.1173178777534978e+00 0.0000000000000000e+00  1.5897474605576525e-01 -2.1128660491222875e+00 0.0000000000000000e+00  1.5771098042680959e-01 -2.1084516761902323e+00 0.0000000000000000e+00  1.5644990627846614e-01 -2.1040752841618224e+00 0.0000000000000000e+00  1.5519153001735120e-01 -2.0997372831273093e+00 0.0000000000000000e+00  1.5393585126438383e-01 -2.0954381426951687e+00 0.0000000000000000e+00  1.5268287106514128e-01 -2.0911783288066181e+00 0.0000000000000000e+00  1.5143260311704415e-01 -2.0869582118997232e+00 0.0000000000000000e+00  1.5018504807806438e-01 -2.0827782731152400e+00 0.0000000000000000e+00  1.4894022447811658e-01 -2.0786388561298583e+00 0.0000000000000000e+00  1.4769814682427163e-01 -2.0745403411799099e+00 0.0000000000000000e+00  1.4645883020384975e-01 -2.0704831099599494e+00 0.0000000000000000e+00  1.4522230751481366e-01 -2.0664674023270302e+00 0.0000000000000000e+00  1.4398859791216478e-01 -2.0624935741887995e+00 0.0000000000000000e+00  1.4275774301555441e-01 -2.0585618004305872e+00 0.0000000000000000e+00  1.4152978223911583e-01 -2.0546722743130799e+00 0.0000000000000000e+00  1.4030475825286046e-01 -2.0508251644473408e+00 0.0000000000000000e+00  1.3908273694636386e-01 -2.0470204442800028e+00 0.0000000000000000e+00  1.3786377095069005e-01 -2.0432581961285567e+00 0.0000000000000000e+00  1.3664794411871112e-01 -2.0395382371998201e+00 0.0000000000000000e+00  1.3543533837257291e-01 -2.0358603931405650e+00 0.0000000000000000e+00  1.3422604767982776e-01 -2.0322243816239141e+00 0.0000000000000000e+00  1.3302019443488947e-01 -2.0286296656654947e+00 0.0000000000000000e+00  1.3181789172909081e-01 -2.0250757747520263e+00 0.0000000000000000e+00  1.3061929781092066e-01 -2.0215618339215613e+00 0.0000000000000000e+00  1.2942456832119523e-01 -2.0180869674253761e+00 0.0000000000000000e+00  1.2823388951994988e-01 -2.0146500113540591e+00 0.0000000000000000e+00  1.2704747967443353e-01 -2.0112494893933941e+00 0.0000000000000000e+00  1.2586556045513364e-01 -2.0078838609873095e+00 0.0000000000000000e+00  1.2468841687879949e-01 -2.0045509854071217e+00 0.0000000000000000e+00  1.2351633276615401e-01 -2.0012486806529362e+00 0.0000000000000000e+00  1.2234965452902151e-01 -1.9979741540720586e+00 0.0000000000000000e+00  1.2118875990928002e-01 -1.9947242617677539e+00 0.0000000000000000e+00  1.2003406068557537e-01 -1.9914954810466887e+00 0.0000000000000000e+00  1.1888604757615109e-01 -1.9882834863740162e+00 0.0000000000000000e+00  1.1774522314829962e-01 -1.9850837437371160e+00 0.0000000000000000e+00  1.1661219378520349e-01 -1.9818906614265741e+00 0.0000000000000000e+00  1.1548759341430510e-01 -1.9786982608271406e+00 0.0000000000000000e+00  1.1437214414426793e-01 -1.9754996119803347e+00 0.0000000000000000e+00  1.1326664822574868e-01 -1.9722868741238202e+00 0.0000000000000000e+00  1.1217195915893904e-01 -1.9690515513945406e+00 0.0000000000000000e+00  1.1108906616527260e-01 -1.9657836760004983e+00 0.0000000000000000e+00  1.1001899198276149e-01 -1.9624727382544720e+00 0.0000000000000000e+00  1.0896291602984280e-01 -1.9591065090680726e+00 0.0000000000000000e+00  1.0792208241356431e-01 -1.9556718664383392e+00 0.0000000000000000e+00  1.0689786932457312e-01 -1.9521541245147775e+00 0.0000000000000000e+00  1.0589179204774120e-01 -1.9485369549221503e+00 0.0000000000000000e+00  1.0490545555016212e-01 -1.9448028245715043e+00 0.0000000000000000e+00  1.0394066678590380e-01 -1.9409318735842365e+00 0.0000000000000000e+00  1.0299928639486568e-01 -1.9369033206523936e+00 0.0000000000000000e+00  1.0208337591548293e-01 -1.9326940171396059e+00 0.0000000000000000e+00  1.0119503382580196e-01 -1.9282800121574797e+00 0.0000000000000000e+00  1.0033645269157156e-01 -1.9236360116365527e+00 0.0000000000000000e+00  9.9509829105477038e-02 -1.9187362491532733e+00 0.0000000000000000e+00  9.8717238622196932e-02 -1.9135557794241811e+00 0.0000000000000000e+00  9.7960663104619969e-02 -1.9080702442386772e+00 0.0000000000000000e+00  9.7241708916306888e-02 -1.9022587687393142e+00 0.0000000000000000e+00  9.6561731115891225e-02 -1.8961028243683873e+00 0.0000000000000000e+00  9.5921539005103931e-02 -1.8895892819093170e+00 0.0000000000000000e+00  9.5321536582386776e-02 -1.8827091463195160e+00 0.0000000000000000e+00  9.4761589974321922e-02 -1.8754589744360872e+00 0.0000000000000000e+00  9.4241078047596433e-02 -1.8678405056941283e+00 0.0000000000000000e+00  9.3759016040531259e-02 -1.8598594497385716e+00 0.0000000000000000e+00  9.3313949610961136e-02 -1.8515266575336673e+00 0.0000000000000000e+00  9.2904293532300536e-02 -1.8428546806027619e+00 0.0000000000000000e+00  9.2528102525847603e-02 -1.8338601355967248e+00 0.0000000000000000e+00  9.2183468450452000e-02 -1.8245596445403136e+00 0.0000000000000000e+00  9.1868303009779204e-02 -1.8149720212149067e+00 0.0000000000000000e+00  9.1580594706663854e-02 -1.8051156495704552e+00 0.0000000000000000e+00  9.1318369345299938e-02 -1.7950088068102399e+00 0.0000000000000000e+00  9.1079659533671892e-02 -1.7846700053696303e+00 0.0000000000000000e+00  9.0862737293210177e-02 -1.7741155040514471e+00 0.0000000000000000e+00  9.0665779914877315e-02 -1.7633627764746085e+00 0.0000000000000000e+00  9.0487324478577019e-02 -1.7524257527834786e+00 0.0000000000000000e+00  9.0325771427677365e-02 -1.7413199393548147e+00 0.0000000000000000e+00  9.0179866860512728e-02 -1.7300574190614826e+00 0.0000000000000000e+00  9.0048294827569028e-02 -1.7186510117695946e+00 0.0000000000000000e+00  8.9929930154880378e-02 -1.7071117042025818e+00 0.0000000000000000e+00  8.9823767739735480e-02 -1.6954492803756538e+00 0.0000000000000000e+00  8.9728754256698906e-02 -1.6836741542804228e+00 0.0000000000000000e+00  8.9644170412308960e-02 -1.6717932900620218e+00 0.0000000000000000e+00  8.9569031704558488e-02 -1.6598165057024281e+00 0.0000000000000000e+00  8.9502821666944177e-02 -1.6477487795421177e+00 0.0000000000000000e+00  8.9444676976473500e-02 -1.6355987473192966e+00 0.0000000000000000e+00  8.9394161890935409e-02 -1.6233706501441580e+00 0.0000000000000000e+00  8.9350614702283129e-02 -1.6110710775463708e+00 0.0000000000000000e+00  8.9313559529183018e-02 -1.5987047694924825e+00 0.0000000000000000e+00  8.9282598192147636e-02 -1.5862756133179221e+00 0.0000000000000000e+00  8.9257143244753548e-02 -1.5737895659476151e+00 0.0000000000000000e+00  8.9237060093115717e-02 -1.5612478134051790e+00