<?xml version="1.0"?>
<VTKFile type="UnstructuredGrid"  version="0.1"  >
<UnstructuredGrid>
<Piece  NumberOfPoints="801" NumberOfCells="800">
<Points>
<DataArray  type="Float64"  NumberOfComponents="3"  format="ascii">-5 0 0  -4.9875 0 0  -4.975 0 0  -4.9625 0 0  -4.95 0 0  -4.9375 0 0  -4.925 0 0  -4.9125 0 0  -4.9 0 0  -4.8875 0 0  -4.875 0 0  -4.8625 0 0  -4.85 0 0  -4.8375 0 0  -4.825 0 0  -4.8125 0 0  -4.8 0 0  -4.7875 0 0  -4.775 0 0  -4.7625 0 0  -4.75 0 0  -4.7375 0 0  -4.725 0 0  -4.7125 0 0  -4.7 0 0  -4.6875 0 0  -4.675 0 0  -4.6625 0 0  -4.65 0 0  -4.6375 0 0  -4.625 0 0  -4.6125 0 0  -4.6 0 0  -4.5875 0 0  -4.575 0 0  -4.5625 0 0  -4.55 0 0  -4.5375 0 0  -4.525 0 0  -4.5125 0 0  -4.5 0 0  -4.4875 0 0  -4.475 0 0  -4.4625 0 0  -4.45 0 0  -4.4375 0 0  -4.425 0 0  -4.4125 0 0  -4.4 0 0  -4.3875 0 0  -4.375 0 0  -4.3625 0 0  -4.35 0 0  -4.3375 0 0  -4.325 0 0  -4.3125 0 0  -4.3 0 0  -4.2875 0 0  -4.275 0 0  -4.2625 0 0  -4.25 0 0  -4.2375 0 0  -4.225 0 0  -4.2125 0 0  -4.2 0 0  -4.1875 0 0  -4.175 0 0  -4.1625 0 0  -4.15 0 0  -4.1375 0 0  -4.125 0 0  -4.1125 0 0  -4.1 0 0  -4.0875 0 0  -4.075 0 0  -4.0625 0 0  -4.05 0 0  -4.0375 0 0  -4.025 0 0  -4.0125 0 0  -4 0 0  -3.9875 0 0  -3.975 0 0  -3.9625 0 0  -3.95 0 0  -3.9375 0 0  -3.925 0 0  -3.9125 0 0  -3.9 0 0  -3.8875 0 0  -3.875 0 0  -3.8625 0 0  -3.85 0 0  -3.8375 0 0  -3.825 0 0  -3.8125 0 0  -3.8 0 0  -3.7875 0 0  -3.775 0 0  -3.7625 0 0  -3.75 0 0  -3.7375 0 0  -3.725 0 0  -3.7125 0 0  -3.7 0 0  -3.6875 0 0  -3.675 0 0  -3.6625 0 0  -3.65 0 0  -3.6375 0 0  -3.625 0 0  -3.6125 0 0  -3.6 0 0  -3.5875 0 0  -3.575 0 0  -3.5625 0 0  -3.55 0 0  -3.5375 0 0  -3.525 0 0  -3.5125 0 0  -3.5 0 0  -3.4875 0 0  -3.475 0 0  -3.4625 0 0  -3.45 0 0  -3.4375 0 0  -3.425 0 0  -3.4125 0 0  -3.4 0 0  -3.3875 0 0  -3.375 0 0  -3.3625 0 0  -3.35 0 0  -3.3375 0 0  -3.325 0 0  -3.3125 0 0  -3.3 0 0  -3.2875 0 0  -3.275 0 0  -3.2625 0 0  -3.25 0 0  -3.2375 0 0  -3.225 0 0  -3.2125 0 0  -3.2 0 0  -3.1875 0 0  -3.175 0 0  -3.1625 0 0  -3.15 0 0  -3.1375 0 0  -3.125 0 0  -3.1125 0 0  -3.1 0 0  -3.0875 0 0  -3.075 0 0  -3.0625 0 0  -3.05 0 0  -3.0375 0 0  -3.025 0 0  -3.0125 0 0  -3 0 0  -2.9875 0 0  -2.975 0 0  -2.9625 0 0  -2.95 0 0  -2.9375 0 0  -2.925 0 0  -2.9125 0 0  -2.9 0 0  -2.8875 0 0  -2.875 0 0  -2.8625 0 0  -2.85 0 0  -2.8375 0 0  -2.825 0 0  -2.8125 0 0  -2.8 0 0  -2.7875 0 0  -2.775 0 0  -2.7625 0 0  -2.75 0 0  -2.7375 0 0  -2.725 0 0  -2.7125 0 0  -2.7 0 0  -2.6875 0 0  -2.675 0 0  -2.6625 0 0  -2.65 0 0  -2.6375 0 0  -2.625 0 0  -2.6125 0 0  -2.6 0 0  -2.5875 0 0  -2.575 0 0  -2.5625 0 0  -2.55 0 0  -2.5375 0 0  -2.525 0 0  -2.5125 0 0  -2.5 0 0  -2.4875 0 0  -2.475 0 0  -2.4625 0 0  -2.45 0 0  -2.4375 0 0  -2.425 0 0  -2.4125 0 0  -2.4 0 0  -2.3875 0 0  -2.375 0 0  -2.3625 0 0  -2.35 0 0  -2.3375 0 0  -2.325 0 0  -2.3125 0 0  -2.3 0 0  -2.2875 0 0  -2.275 0 0  -2.2625 0 0  -2.25 0 0  -2.2375 0 0  -2.225 0 0  -2.2125 0 0  -2.2 0 0  -2.1875 0 0  -2.175 0 0  -2.1625 0 0  -2.15 0 0  -2.1375 0 0  -2.125 0 0  -2.1125 0 0  -2.1 0 0  -2.0875 0 0  -2.075 0 0  -2.0625 0 0  -2.05 0 0  -2.0375 0 0  -2.025 0 0  -2.0125 0 0  -2 0 0  -1.9875 0 0  -1.975 0 0  -1.9625 0 0  -1.95 0 0  -1.9375 0 0  -1.925 0 0  -1.9125 0 0  -1.9 0 0  -1.8875 0 0  -1.875 0 0  -1.8625 0 0  -1.85 0 0  -1.8375 0 0  -1.825 0 0  -1.8125 0 0  -1.8 0 0  -1.7875 0 0  -1.775 0 0  -1.7625 0 0  -1.75 0 0  -1.7375 0 0  -1.725 0 0  -1.7125 0 0  -1.7 0 0  -1.6875 0 0  -1.675 0 0  -1.6625 0 0  -1.65 0 0  -1.6375 0 0  -1.625 0 0  -1.6125 0 0  -1.6 0 0  -1.5875 0 0  -1.575 0 0  -1.5625 0 0  -1.55 0 0  -1.5375 0 0  -1.525 0 0  -1.5125 0 0  -1.5 0 0  -1.4875 0 0  -1.475 0 0  -1.4625 0 0  -1.45 0 0  -1.4375 0 0  -1.425 0 0  -1.4125 0 0  -1.4 0 0  -1.3875 0 0  -1.375 0 0  -1.3625 0 0  -1.35 0 0  -1.3375 0 0  -1.325 0 0  -1.3125 0 0  -1.3 0 0  -1.2875 0 0  -1.275 0 0  -1.2625 0 0  -1.25 0 0  -1.2375 0 0  -1.225 0 0  -1.2125 0 0  -1.2 0 0  -1.1875 0 0  -1.175 0 0  -1.1625 0 0  -1.15 0 0  -1.1375 0 0  -1.125 0 0  -1.1125 0 0  -1.1 0 0  -1.0875 0 0  -1.075 0 0  -1.0625 0 0  -1.05 0 0  -1.0375 0 0  -1.025 0 0  -1.0125 0 0  -1 0 0  -0.9874999999999998 0 0  -0.9749999999999996 0 0  -0.9625000000000004 0 0  -0.9500000000000002 0 0  -0.9375 0 0  -0.9249999999999998 0 0  -0.9124999999999996 0 0  -0.9000000000000004 0 0  -0.8875000000000002 0 0  -0.875 0 0  -0.8624999999999998 0 0  -0.8499999999999996 0 0  -0.8375000000000004 0 0  -0.8250000000000002 0 0  -0.8125 0 0  -0.7999999999999998 0 0  -0.7874999999999996 0 0  -0.7750000000000004 0 0  -0.7625000000000002 0 0  -0.75 0 0  -0.7374999999999998 0 0  -0.7249999999999996 0 0  -0.7125000000000004 0 0  -0.7000000000000002 0 0  -0.6875 0 0  -0.6749999999999998 0 0  -0.6624999999999996 0 0  -0.6500000000000004 0 0  -0.6375000000000002 0 0  -0.625 0 0  -0.6124999999999998 0 0  -0.5999999999999996 0 0  -0.5875000000000004 0 0  -0.5750000000000002 0 0  -0.5625 0 0  -0.5499999999999998 0 0  -0.5374999999999996 0 0  -0.5250000000000004 0 0  -0.5125000000000002 0 0  -0.5 0 0  -0.4874999999999998 0 0  -0.4749999999999996 0 0  -0.4625000000000004 0 0  -0.4500000000000002 0 0  -0.4375 0 0  -0.4249999999999998 0 0  -0.4124999999999996 0 0  -0.4000000000000004 0 0  -0.3875000000000002 0 0  -0.375 0 0  -0.3624999999999998 0 0  -0.3499999999999996 0 0  -0.3375000000000004 0 0  -0.3250000000000002 0 0  -0.3125 0 0  -0.2999999999999998 0 0  -0.2874999999999996 0 0  -0.2750000000000004 0 0  -0.2625000000000002 0 0  -0.25 0 0  -0.2374999999999998 0 0  -0.2249999999999996 0 0  -0.2125000000000004 0 0  -0.2000000000000002 0 0  -0.1875 0 0  -0.1749999999999998 0 0  -0.1624999999999996 0 0  -0.1500000000000004 0 0  -0.1375000000000002 0 0  -0.125 0 0  -0.1124999999999998 0 0  -0.09999999999999964 0 0  -0.08750000000000036 0 0  -0.07500000000000018 0 0  -0.0625 0 0  -0.04999999999999982 0 0  -0.03749999999999964 0 0  -0.02500000000000036 0 0  -0.01250000000000018 0 0  0 0 0  0.01250000000000018 0 0  0.02500000000000036 0 0  0.03749999999999964 0 0  0.04999999999999982 0 0  0.0625 0 0  0.07500000000000018 0 0  0.08750000000000036 0 0  0.09999999999999964 0 0  0.1124999999999998 0 0  0.125 0 0  0.1375000000000002 0 0  0.1500000000000004 0 0  0.1624999999999996 0 0  0.1749999999999998 0 0  0.1875 0 0  0.2000000000000002 0 0  0.2125000000000004 0 0  0.2249999999999996 0 0  0.2374999999999998 0 0  0.25 0 0  0.2625000000000002 0 0  0.2750000000000004 0 0  0.2874999999999996 0 0  0.2999999999999998 0 0  0.3125 0 0  0.3250000000000002 0 0  0.3375000000000004 0 0  0.3499999999999996 0 0  0.3624999999999998 0 0  0.375 0 0  0.3875000000000002 0 0  0.4000000000000004 0 0  0.4124999999999996 0 0  0.4249999999999998 0 0  0.4375 0 0  0.4500000000000002 0 0  0.4625000000000004 0 0  0.4749999999999996 0 0  0.4874999999999998 0 0  0.5 0 0  0.5125000000000002 0 0  0.5250000000000004 0 0  0.5374999999999996 0 0  0.5499999999999998 0 0  0.5625 0 0  0.5750000000000002 0 0  0.5875000000000004 0 0  0.5999999999999996 0 0  0.6124999999999998 0 0  0.625 0 0  0.6375000000000002 0 0  0.6500000000000004 0 0  0.6624999999999996 0 0  0.6749999999999998 0 0  0.6875 0 0  0.7000000000000002 0 0  0.7125000000000004 0 0  0.7249999999999996 0 0  0.7374999999999998 0 0  0.75 0 0  0.7625000000000002 0 0  0.7750000000000004 0 0  0.7874999999999996 0 0  0.7999999999999998 0 0  0.8125 0 0  0.8250000000000002 0 0  0.8375000000000004 0 0  0.8499999999999996 0 0  0.8624999999999998 0 0  0.875 0 0  0.8875000000000002 0 0  0.9000000000000004 0 0  0.9124999999999996 0 0  0.9249999999999998 0 0  0.9375 0 0  0.9500000000000002 0 0  0.9625000000000004 0 0  0.9749999999999996 0 0  0.9874999999999998 0 0  1 0 0  1.0125 0 0  1.025 0 0  1.0375 0 0  1.05 0 0  1.0625 0 0  1.075 0 0  1.0875 0 0  1.1 0 0  1.1125 0 0  1.125 0 0  1.1375 0 0  1.15 0 0  1.1625 0 0  1.175 0 0  1.1875 0 0  1.2 0 0  1.2125 0 0  1.225 0 0  1.2375 0 0  1.25 0 0  1.2625 0 0  1.275 0 0  1.2875 0 0  1.3 0 0  1.3125 0 0  1.325 0 0  1.3375 0 0  1.35 0 0  1.3625 0 0  1.375 0 0  1.3875 0 0  1.4 0 0  1.4125 0 0  1.425 0 0  1.4375 0 0  1.45 0 0  1.4625 0 0  1.475 0 0  1.4875 0 0  1.5 0 0  1.5125 0 0  1.525 0 0  1.5375 0 0  1.55 0 0  1.5625 0 0  1.575 0 0  1.5875 0 0  1.6 0 0  1.6125 0 0  1.625 0 0  1.6375 0 0  1.65 0 0  1.6625 0 0  1.675 0 0  1.6875 0 0  1.7 0 0  1.7125 0 0  1.725 0 0  1.7375 0 0  1.75 0 0  1.7625 0 0  1.775 0 0  1.7875 0 0  1.8 0 0  1.8125 0 0  1.825 0 0  1.8375 0 0  1.85 0 0  1.8625 0 0  1.875 0 0  1.8875 0 0  1.9 0 0  1.9125 0 0  1.925 0 0  1.9375 0 0  1.95 0 0  1.9625 0 0  1.975 0 0  1.9875 0 0  2 0 0  2.0125 0 0  2.025 0 0  2.0375 0 0  2.05 0 0  2.0625 0 0  2.075 0 0  2.0875 0 0  2.1 0 0  2.1125 0 0  2.125 0 0  2.1375 0 0  2.15 0 0  2.1625 0 0  2.175 0 0  2.1875 0 0  2.2 0 0  2.2125 0 0  2.225 0 0  2.2375 0 0  2.25 0 0  2.2625 0 0  2.275 0 0  2.2875 0 0  2.3 0 0  2.3125 0 0  2.325 0 0  2.3375 0 0  2.35 0 0  2.3625 0 0  2.375 0 0  2.3875 0 0  2.4 0 0  2.4125 0 0  2.425 0 0  2.4375 0 0  2.45 0 0  2.4625 0 0  2.475 0 0  2.4875 0 0  2.5 0 0  2.5125 0 0  2.525 0 0  2.5375 0 0  2.55 0 0  2.5625 0 0  2.575 0 0  2.5875 0 0  2.6 0 0  2.6125 0 0  2.625 0 0  2.6375 0 0  2.65 0 0  2.6625 0 0  2.675 0 0  2.6875 0 0  2.7 0 0  2.7125 0 0  2.725 0 0  2.7375 0 0  2.75 0 0  2.7625 0 0  2.775 0 0  2.7875 0 0  2.8 0 0  2.8125 0 0  2.825 0 0  2.8375 0 0  2.85 0 0  2.8625 0 0  2.875 0 0  2.8875 0 0  2.9 0 0  2.9125 0 0  2.925 0 0  2.9375 0 0  2.95 0 0  2.9625 0 0  2.975 0 0  2.9875 0 0  3 0 0  3.012499999999999 0 0  3.025 0 0  3.0375 0 0  3.050000000000001 0 0  3.0625 0 0  3.074999999999999 0 0  3.0875 0 0  3.1 0 0  3.112500000000001 0 0  3.125 0 0  3.137499999999999 0 0  3.15 0 0  3.1625 0 0  3.175000000000001 0 0  3.1875 0 0  3.199999999999999 0 0  3.2125 0 0  3.225 0 0  3.237500000000001 0 0  3.25 0 0  3.262499999999999 0 0  3.275 0 0  3.2875 0 0  3.300000000000001 0 0  3.3125 0 0  3.324999999999999 0 0  3.3375 0 0  3.35 0 0  3.362500000000001 0 0  3.375 0 0  3.387499999999999 0 0  3.4 0 0  3.4125 0 0  3.425000000000001 0 0  3.4375 0 0  3.449999999999999 0 0  3.4625 0 0  3.475 0 0  3.4875
[...]
<PointData  Vectors="(h, u)"> 
<DataArray  type="Float64"  Name="(h, u)"  NumberOfComponents="3" format="ascii">5.5000000000000000e-02 0.0000000000000000e+00 0.0000000000000000e+00  5.5000000000000028e-02 2.6299735247078775e-17 0.0000000000000000e+00  5.5000000000000007e-02 -2.9704029462857459e-16 0.0000000000000000e+00  5.5000000000000028e-02 -9.7272791553525269e-17 0.0000000000000000e+00  5.5000000000000028e-02 -6.9908365115758824e-16 0.0000000000000000e+00  5.5000000000000028e-02 -2.5624431228300060e-16 0.0000000000000000e+00  5.5000000000000028e-02 -5.8068425380262503e-16 0.0000000000000000e+00  5.5000000000000028e-02 -1.4833740720383404e-16 0.0000000000000000e+00  5.5000000000000028e-02 -7.1801626890834841e-16 0.0000000000000000e+00  5.5000000000000028e-02 -1.0872303324487353e-16 0.0000000000000000e+00  5.5000000000000028e-02 -3.9168578294773904e-16 0.0000000000000000e+00  5.5000000000000021e-02 -1.4281154885774562e-16 0.0000000000000000e+00  5.5000000000000028e-02 -5.5183424814531264e-16 0.0000000000000000e+00  5.5000000000000021e-02 -3.0019255257345403e-16 0.0000000000000000e+00  5.5000000000000035e-02 -5.9491414297924896e-16 0.0000000000000000e+00  5.5000000000000028e-02 1.6184329573603901e-16 0.0000000000000000e+00  5.5000000000000035e-02 -4.5828087846101539e-17 0.0000000000000000e+00  5.5000000000000021e-02 4.3855245492952849e-16 0.0000000000000000e+00  5.5000000000000028e-02 -3.4182012985306921e-16 0.0000000000000000e+00  5.5000000000000021e-02 1.1109951153728691e-16 0.0000000000000000e+00  5.5000000000000028e-02 -4.0600683074869102e-16 0.0000000000000000e+00  5.5000000000000021e-02 9.0428693262255559e-17 0.0000000000000000e+00  5.5000000000000028e-02 -3.2294525980510468e-16 0.0000000000000000e+00  5.5000000000000021e-02 1.1170942047639941e-16 0.0000000000000000e+00  5.5000000000000028e-02 -2.4887849680613647e-16 0.0000000000000000e+00  5.5000000000000021e-02 1.1349898639420104e-16 0.0000000000000000e+00  5.5000000000000028e-02 -1.7540801885184797e-16 0.0000000000000000e+00  5.5000000000000021e-02 1.3187001543081376e-16 0.0000000000000000e+00  5.5000000000000028e-02 -6.7786445562409963e-17 0.0000000000000000e+00  5.5000000000000021e-02 1.6580098442274921e-16 0.0000000000000000e+00  5.5000000000000028e-02 2.9303639867019598e-17 0.0000000000000000e+00  5.5000000000000021e-02 1.4011696284212550e-16 0.0000000000000000e+00  5.5000000000000028e-02 4.5121773439626505e-17 0.0000000000000000e+00  5.5000000000000021e-02 2.7304568178392828e-17 0.0000000000000000e+00  5.5000000000000028e-02 1.1890057109109314e-17 0.0000000000000000e+00  5.5000000000000021e-02 -8.7773483051059040e-17 0.0000000000000000e+00  5.5000000000000028e-02 2.8142349210479455e-17 0.0000000000000000e+00  5.5000000000000021e-02 -1.3124141214156754e-16 0.0000000000000000e+00  5.5000000000000028e-02 1.0948822178968319e-16 0.0000000000000000e+00  5.5000000000000021e-02 -1.3586062539555526e-16 0.0000000000000000e+00  5.5000000000000028e-02 1.9631740711993567e-16 0.0000000000000000e+00  5.5000000000000021e-02 -1.2707320868837584e-16 0.0000000000000000e+00  5.5000000000000028e-02 2.9912333076889726e-16 0.0000000000000000e+00  5.5000000000000021e-02 -3.9022241428825400e-17 0.0000000000000000e+00  5.5000000000000028e-02 4.1253288644153148e-16 0.0000000000000000e+00  5.5000000000000021e-02 1.2499330685516389e-17 0.0000000000000000e+00  5.5000000000000028e-02 3.0342363889405748e-16 0.0000000000000000e+00  5.5000000000000021e-02 -3.0965723733198274e-17 0.0000000000000000e+00  5.5000000000000028e-02 1.9068303894305960e-16 0.0000000000000000e+00  5.5000000000000021e-02 -2.0770257995070957e-17 0.0000000000000000e+00  5.5000000000000028e-02 1.7882882268800755e-16 0.0000000000000000e+00  5.5000000000000021e-02 -2.5515401647806252e-17 0.0000000000000000e+00  5.5000000000000028e-02 1.2937165821599221e-16 0.0000000000000000e+00  5.5000000000000021e-02 -1.2504465829280514e-16 0.0000000000000000e+00  5.5000000000000028e-02 9.3561205689538242e-17 0.0000000000000000e+00  5.5000000000000021e-02 -1.5709040661502964e-16 0.0000000000000000e+00  5.5000000000000028e-02 3.0851841737543262e-16 0.0000000000000000e+00  5.5000000000000014e-02 -1.2472043029505886e-16 0.0000000000000000e+00  5.5000000000000028e-02 9.4532447683871960e-18 0.0000000000000000e+00  5.5000000000000014e-02 -7.7357877293198907e-17 0.0000000000000000e+00  5.5000000000000028e-02 -1.1189694223579477e-16 0.0000000000000000e+00  5.5000000000000014e-02 1.6402011322289263e-17 0.0000000000000000e+00  5.5000000000000028e-02 -2.5544024183649542e-16 0.0000000000000000e+00  5.5000000000000014e-02 2.7039115903652186e-18 0.0000000000000000e+00  5.5000000000000028e-02 -5.5041101394190375e-16 0.0000000000000000e+00  5.5000000000000021e-02 3.8242147700268767e-17 0.0000000000000000e+00  5.5000000000000028e-02 -1.8574463617541009e-16 0.0000000000000000e+00  5.5000000000000021e-02 1.3938096711479753e-16 0.0000000000000000e+00  5.5000000000000028e-02 -2.9742735572706268e-19 0.0000000000000000e+00  5.5000000000000021e-02 1.2387141113039567e-16 0.0000000000000000e+00  5.5000000000000028e-02 5.0664092381351865e-17 0.0000000000000000e+00  5.5000000000000021e-02 1.2190512204205735e-16 0.0000000000000000e+00  5.5000000000000028e-02 1.6597184977906311e-16 0.0000000000000000e+00  5.5000000000000021e-02 3.8475425706776912e-16 0.0000000000000000e+00  5.5000000000000028e-02 3.0827917493479523e-16 0.0000000000000000e+00  5.5000000000000021e-02 2.2395562321992417e-17 0.0000000000000000e+00  5.5000000000000028e-02 1.2675275639775376e-16 0.0000000000000000e+00  5.5000000000000021e-02 -3.5562186902605805e-17 0.0000000000000000e+00  5.5000000000000028e-02 -1.1050196508778153e-16 0.0000000000000000e+00  5.5000000000000021e-02 -3.8414103744147606e-16 0.0000000000000000e+00  5.5000000000000028e-02 -5.0680188981691210e-17 0.0000000000000000e+00  5.5000000000000021e-02 -1.6126832234886242e-16 0.0000000000000000e+00  5.5000000000000028e-02 7.5254246875117222e-17 0.0000000000000000e+00  5.5000000000000021e-02 -5.6224455603098575e-17 0.0000000000000000e+00  5.5000000000000028e-02 1.3048616702547815e-16 0.0000000000000000e+00  5.5000000000000021e-02 2.3746691863218651e-17 0.0000000000000000e+00  5.5000000000000028e-02 1.1075806732649936e-16 0.0000000000000000e+00  5.5000000000000021e-02 6.5837652889009615e-17 0.0000000000000000e+00  5.5000000000000028e-02 -5.2316124601684013e-17 0.0000000000000000e+00  5.5000000000000021e-02 1.1177963357981579e-16 0.0000000000000000e+00  5.5000000000000028e-02 -2.6701845452658005e-16 0.0000000000000000e+00  5.5000000000000021e-02 3.3704813841211304e-16 0.0000000000000000e+00  5.5000000000000021e-02 -4.3666652893035238e-16 0.0000000000000000e+00  5.5000000000000021e-02 3.4851253534209491e-16 0.0000000000000000e+00  5.5000000000000021e-02 -1.8544618199698951e-16 0.0000000000000000e+00  5.5000000000000028e-02 3.4306335849874611e-16 0.0000000000000000e+00  5.5000000000000028e-02 -1.3541134266708825e-16 0.0000000000000000e+00  5.5000000000000028e-02 2.6086860092563755e-16 0.0000000000000000e+00  5.5000000000000028e-02 -2.6117538090764978e-16 0.0000000000000000e+00  5.5000000000000028e-02 2.7185537177864566e-16 0.0000000000000000e+00  5.5000000000000028e-02 -2.0806466678418233e-16 0.0000000000000000e+00  5.5000000000000028e-02 2.6527977918536463e-16 0.0000000000000000e+00  5.5000000000000028e-02 -1.9872419988408777e-16 0.0000000000000000e+00  5.5000000000000028e-02 5.0203012473709751e-17 0.0000000000000000e+00  5.5000000000000035e-02 -5.1032006823152202e-16 0.0000000000000000e+00  5.5000000000000035e-02 3.5634318838631013e-16 0.0000000000000000e+00  5.5000000000000028e-02 -1.7653151542269036e-16 0.0000000000000000e+00  5.5000000000000028e-02 2.4741860517379004e-16 0.0000000000000000e+00  5.5000000000000028e-02 -2.7282417444210090e-16 0.0000000000000000e+00  5.5000000000000028e-02 -3.7186838091043762e-17 0.0000000000000000e+00  5.5000000000000021e-02 -1.1109936010864595e-16 0.0000000000000000e+00  5.5000000000000028e-02 2.0415710394214904e-16 0.0000000000000000e+00  5.5000000000000021e-02 -3.9369848533616398e-17 0.0000000000000000e+00  5.5000000000000021e-02 1.4516548320219068e-16 0.0000000000000000e+00  5.5000000000000021e-02 -6.9231928604943668e-17 0.0000000000000000e+00  5.5000000000000035e-02 5.8394692276758124e-17 0.0000000000000000e+00  5.5000000000000000e-02 -2.0249545368660245e-16 0.0000000000000000e+00  5.5000000000000084e-02 5.7191928944336590e-16 0.0000000000000000e+00  5.4999999999999875e-02 -2.0073290944733923e-15 0.0000000000000000e+00  5.5000000000000486e-02 5.8095553896340921e-15 0.0000000000000000e+00  5.4999999999998633e-02 -1.8714356700852690e-14 0.0000000000000000e+00  5.5000000000004302e-02 5.6592085350937470e-14 0.0000000000000000e+00  5.4999999999987149e-02 -1.7211640741857295e-13 0.0000000000000000e+00  5.5000000000038712e-02 5.1625586236660400e-13 0.0000000000000000e+00  5.4999999999884863e-02 -1.5378957570858255e-12 0.0000000000000000e+00  5.5000000000340471e-02 4.5461543419784060e-12 0.0000000000000000e+00  5.4999999998999891e-02 -1.3354339541261185e-11 0.0000000000000000e+00  5.5000000002921524e-02 3.9010953009736042e-11 0.0000000000000000e+00  5.4999999991508043e-02 -1.1339269922779830e-10 0.0000000000000000e+00  5.5000000024572379e-02 3.2811156387758943e-10 0.0000000000000000e+00  5.4999999929190968e-02 -9.4549340208509222e-10 0.0000000000000000e+00  5.5000000203263198e-02 2.7140514781000155e-09 0.0000000000000000e+00  5.4999999418632387e-02 -7.7622651773039313e-09 0.0000000000000000e+00  5.5000001657045945e-02 2.2122155183814528e-08 0.0000000000000000e+00  5.4999995292816163e-02 -6.2829348447858035e-08 0.0000000000000000e+00  5.5000013328226627e-02 1.7782317139196783e-07 0.0000000000000000e+00  5.4999962380492040e-02 -5.0148512572866435e-07 0.0000000000000000e+00  5.5000105865173281e-02 1.4088432206534832e-06 0.0000000000000000e+00  5.4999702886075058e-02 -3.9409473664778103e-06 0.0000000000000000e+00  5.5000832099497812e-02 1.0967252737767853e-05 0.0000000000000000e+00  5.4997672052780479e-02 -3.0321261325517093e-05 0.0000000000000000e+00  5.5006517907543892e-02 8.3067002244930136e-05 0.0000000000000000e+00  5.4981687724908669e-02 -2.2474221156635905e-04 0.0000000000000000e+00  5.5051784405986334e-02 5.9670260699294208e-04 0.0000000000000000e+00  5.4852561698308266e-02 -1.5538349155843785e-03 0.0000000000000000e+00  5.5418326773618590e-02 3.9664356072744806e-03 0.0000000000000000e+00  5.3876098551588723e-02 -1.0954434012574382e-02 0.0000000000000000e+00  5.7426619650967126e-02 3.5942427702759093e-02 0.0000000000000000e+00  1.2956015646097138e-01 -1.2565917145773857e+00 0.0000000000000000e+00  2.3886622421874346e-01 -2.3323830405952815e+00 0.0000000000000000e+00  2.9701644819217504e-01 -2.7311548087388759e+00 0.0000000000000000e+00  3.3062107503839433e-01 -2.9330472979584941e+00 0.0000000000000000e+00  3.4373712340443380e-01 -3.0080596882129584e+00 0.0000000000000000e+00  3.4972198818471001e-01 -3.0432901634362266e+00 0.0000000000000000e+00  3.5101458070230823e-01 -3.0532838718539317e+00 0.0000000000000000e+00  3.5054786590275105e-01 -3.0540625892577329e+00 0.0000000000000000e+00  3.4918091567029336e-01 -3.0500099325737695e+00 0.0000000000000000e+00  3.4731106116278071e-01 -3.0435104457250155e+00 0.0000000000000000e+00  3.4532129691826363e-01 -3.0361310854190986e+00 0.0000000000000000e+00  3.4316195789251175e-01 -3.0280947877876465e+00 0.0000000000000000e+00  3.4101181608667802e-01 -3.0198936427021805e+00 0.0000000000000000e+00  3.3880759738301630e-01 -3.0115081959581813e+00 0.0000000000000000e+00  3.3661146042202239e-01 -3.0031407620366157e+00 0.0000000000000000e+00  3.3441324760379976e-01 -2.9946585568538651e+00 0.0000000000000000e+00  3.3220713020435605e-01 -2.9862833044179538e+00 0.0000000000000000e+00  3.3001904825575368e-01 -2.9777949312558523e+00 0.0000000000000000e+00  3.2782074723764093e-01 -2.9694178999158458e+00 0.0000000000000000e+00  3.2563722505016213e-01 -2.9609817828624911e+00 0.0000000000000000e+00  3.2345559118548739e-01 -2.9525852836241553e+00 0.0000000000000000e+00  3.2127483809209506e-01 -2.9442210707263650e+00 0.0000000000000000e+00  3.1910947704518006e-01 -2.9358173854356093e+00 0.0000000000000000e+00  3.1693650990238381e-01 -2.9275022038579426e+00 0.0000000000000000e+00  3.1478113989706952e-01 -2.9191308210393223e+00 0.0000000000000000e+00  3.1262295210419511e-01 -2.9108285385655930e+00 0.0000000000000000e+00  3.1047265547940411e-01 -2.9025204478147133e+00 0.0000000000000000e+00  3.0833157747288259e-01 -2.8942196630233115e+00 0.0000000000000000e+00  3.0618767563243332e-01 -2.8859708699740643e+00 0.0000000000000000e+00  3.0405985775548844e-01 -2.8776944231479877e+00 0.0000000000000000e+00  3.0192794197789635e-01 -2.8694766250485784e+00 0.0000000000000000e+00  2.9980821423534015e-01 -2.8612549404270120e+00 0.0000000000000000e+00  2.9769198463202151e-01 -2.8530501227035163e+00 0.0000000000000000e+00  2.9557946943481606e-01 -2.8448894698213856e+00 0.0000000000000000e+00  2.9347735920962970e-01 -2.8367093631832208e+00 0.0000000000000000e+00  2.9137569965256244e-01 -2.8285902387524864e+00 0.0000000000000000e+00  2.8928370244274204e-01 -2.8204604608776895e+00 0.0000000000000000e+00  2.8719626584229085e-01 -2.8123649968290629e+00 0.0000000000000000e+00  2.8511302466177918e-01 -2.8042956765079232e+00 0.0000000000000000e+00  2.8303922954513622e-01 -2.7962291314014127e+00 0.0000000000000000e+00  2.8096715575122072e-01 -2.7882080899669801e+00 0.0000000000000000e+00  2.7890410713803926e-01 -2.7801896265034998e+00 0.0000000000000000e+00  2.7684577897075491e-01 -2.7722032837720900e+00 0.0000000000000000e+00  2.7479239285717816e-01 -2.7642417279328004e+00 0.0000000000000000e+00  2.7274745497675085e-01 -2.7562935957643875e+00 0.0000000000000000e+00  2.7070547951991175e-01 -2.7483810657693972e+00 0.0000000000000000e+00  2.6867189343829506e-01 -2.7404846747844269e+00 0.0000000000000000e+00  2.6664309347966109e-01 -2.7326131025059675e+00 0.0000000000000000e+00  2.6462025584686227e-01 -2.7247734720901851e+00 0.0000000000000000e+00  2.6260426995579428e-01 -2.7169474905254809e+00 0.0000000000000000e+00  2.6059342441389116e-01 -2.7091585518192698e+00 0.0000000000000000e+00  2.5858904611060407e-01 -2.7013878461025835e+00 0.0000000000000000e+00  2.5659106981384905e-01 -2.6936458514605888e+00 0.0000000000000000e+00  2.5459831410271594e-01 -2.6859325103930218e+00 0.0000000000000000e+00  2.5261269265549169e-01 -2.6782424276624468e+00 0.0000000000000000e+00  2.5063247042143066e-01 -2.6705828158969047e+00 0.0000000000000000e+00  2.4865862346004539e-01 -2.6629502388820576e+00 0.0000000000000000e+00  2.4669119833531639e-01 -2.6553445497726020e+00 0.0000000000000000e+00  2.4472946707521523e-01 -2.6477694868701143e+00 0.0000000000000000e+00  2.4277441559237270e-01 -2.6402221109778776e+00 0.0000000000000000e+00  2.4082530648096559e-01 -2.6327036072498040e+00 0.0000000000000000e+00  2.3888254016462587e-01 -2.6252167883397490e+00 0.0000000000000000e+00  2.3694602463895623e-01 -2.6177573056774603e+00 0.0000000000000000e+00  2.3501586570729363e-01 -2.6103306780469735e+00 0.0000000000000000e+00  2.3309183896953595e-01 -2.6029331587006985e+00 0.0000000000000000e+00  2.3117440985937310e-01 -2.5955676820352114e+00 0.0000000000000000e+00  2.2926306958998163e-01 -2.5882330664468096e+00 0.0000000000000000e+00  2.2735831942346219e-01 -2.5809309105601548e+00 0.0000000000000000e+00  2.2545985710398977e-01 -2.5736600896934481e+00 0.0000000000000000e+00  2.2356789228288768e-01 -2.5664225053925471e+00 0.0000000000000000e+00  2.2168236385371395e-01 -2.5592171646887105e+00 0.0000000000000000e+00  2.1980335590308070e-01 -2.5520450683466391e+00 0.0000000000000000e+00  2.1793087298006589e-01 -2.5449064477396806e+00 0.0000000000000000e+00  2.1606494093153536e-01 -2.5378011730920038e+00 0.0000000000000000e+00  2.1420566272012154e-01 -2.5307301381290945e+00 0.0000000000000000e+00  2.1235296457401365e-01 -2.5236927957995547e+00 0.0000000000000000e+00  2.1050703651850308e-01 -2.5166902722764206e+00 0.0000000000000000e+00  2.0866776889123939e-01 -2.5097217116928316e+00 0.0000000000000000e+00  2.0683537331659899e-01 -2.5027883679791283e+00 0.0000000000000000e+00  2.0500974701075153e-01 -2.4958893048756710e+00 0.0000000000000000e+00  2.0319110136765314e-01 -2.4890255763606888e+00 0.0000000000000000e+00  2.0137936868445375e-01 -2.4821963756882468e+00 0.0000000000000000e+00  1.9957472973548965e-01 -2.4754024349525938e+00 0.0000000000000000e+00  1.9777717842228126e-01 -2.4686431290612050e+00 0.0000000000000000e+00  1.9598685951147721e-01 -2.4619187507109923e+00 0.0000000000000000e+00  1.9420383053901280e-01 -2.4552288984008119e+00 0.0000000000000000e+00  1.9242820276760428e-01 -2.4485734204310039e+00 0.0000000000000000e+00  1.9066009955401189e-01 -2.4419520277337101e+00 0.0000000000000000e+00  1.8889961348698733e-01 -2.4353641560895105e+00 0.0000000000000000e+00  1.8714691917619397e-01 -2.4288095362765523e+00 0.0000000000000000e+00  1.8540211149338073e-01 -2.4222872452626163e+00 0.0000000000000000e+00  1.8366540874162549e-01 -2.4157968520017867e+00 0.0000000000000000e+00  1.8193693060920851e-01 -2.4093371202765743e+00 0.0000000000000000e+00  1.8021692505726278e-01 -2.4029073382310053e+00 0.0000000000000000e+00  1.7850555719516209e-01 -2.3965059718416679e+00 0.0000000000000000e+00  1.7680310599353477e-01 -2.3901318513287633e+00 0.0000000000000000e+00  1.7510980149668512e-01 -2.3837830928291170e+00 0.0000000000000000e+00  1.7342595231365487e-01 -2.3774579814363848e+00 0.0000000000000000e+00  1.7175186256371375e-01 -2.3711542273112052e+00 0.0000000000000000e+00  1.7008788681897258e-01 -2.3648694182490342e+00 0.0000000000000000e+00  1.6843442487206148e-01 -2.3586006361075040e+00 0.0000000000000000e+00  1.6679189902415878e-01 -2.3523446207221448e+00 0.0000000000000000e+00  1.6516080633075039e-01 -2.3460977033833728e+00 0.0000000000000000e+00  1.6354164951460445e-01 -2.3398557143130332e+00 0.0000000000000000e+00  1.6193503963251821e-01 -2.3336139746427449e+00 0.0000000000000000e+00  1.6034161308014117e-01 -2.3273670200644272e+00 0.0000000000000000e+00  1.5876214729798027e-01 -2.3211086131649852e+00 0.0000000000000000e+00  1.5719746935413412e-01 -2.3148315341965282e+00 0.0000000000000000e+00  1.5564855269997405e-01 -2.3085276118397213e+00 0.0000000000000000e+00  1.5411644456191612e-01 -2.3021875749204850e+00 0.0000000000000000e+00  1.5260235037532724e-01 -2.2958009030417776e+00 0.0000000000000000e+00  1.5110761051659774e-01 -2.2893555814881830e+00 0.0000000000000000e+00  1.4963377025499447e-01 -2.2828377435972400e+00 0.0000000000000000e+00  1.4818259590204114e-01 -2.2762313867285791e+00 0.0000000000000000e+00  1.4675610429962466e-01 -2.2695180629324940e+00 0.0000000000000000e+00  1.4535658896099707e-01 -2.2626767180241822e+00 0.0000000000000000e+00  1.4398659086006238e-01 -2.2556836912788332e+00 0.0000000000000000e+00  1.4264891577774422e-01 -2.2485127429306395e+00 0.0000000000000000e+00  1.4134654332627938e-01 -2.2411355199241898e+00 0.0000000000000000e+00  1.4008262451087772e-01 -2.2335217892113408e+00 0.0000000000000000e+00  1.3886032981870811e-01 -2.2256404761388704e+00 0.0000000000000000e+00  1.3768282257239944e-01 -2.2174600981681687e+00 0.0000000000000000e+00  1.3655305756388653e-01 -2.2089503522310068e+00 0.0000000000000000e+00  1.3547374767960149e-01 -2.2000825879641082e+00 0.0000000000000000e+00  1.3444714782565298e-01 -2.1908316673332311e+00 0.0000000000000000e+00  1.3347505641850796e-01 -2.1811761194189048e+00 0.0000000000000000e+00  1.3255863050910052e-01 -2.1710998412663236e+00 0.0000000000000000e+00  1.3169846182928377e-01 -2.1605915838360330e+00 0.0000000000000000e+00  1.3089444968577291e-01 -2.1496461919524950e+00 0.0000000000000000e+00  1.3014596098263637e-01 -2.1382633276662162e+00 0.0000000000000000e+00  1.2945175245906035e-01 -2.1264482512055269e+00 0.0000000000000000e+00  1.2881019169541597e-01 -2.1142099789289177e+00 0.0000000000000000e+00  1.2821919772200799e-01 -2.1015618337214397e+00 0.0000000000000000e+00  1.276764877