<?xml version="1.0"?>
<VTKFile type="UnstructuredGrid"  version="0.1"  >
<UnstructuredGrid>
<Piece  NumberOfPoints="801" NumberOfCells="800">
<Points>
<DataArray  type="Float64"  NumberOfComponents="3"  format="ascii">-5 0 0  -4.9875 0 0  -4.975 0 0  -4.9625 0 0  -4.95 0 0  -4.9375 0 0  -4.925 0 0  -4.9125 0 0  -4.9 0 0  -4.8875 0 0  -4.875 0 0  -4.8625 0 0  -4.85 0 0  -4.8375 0 0  -4.825 0 0  -4.8125 0 0  -4.8 0 0  -4.7875 0 0  -4.775 0 0  -4.7625 0 0  -4.75 0 0  -4.7375 0 0  -4.725 0 0  -4.7125 0 0  -4.7 0 0  -4.6875 0 0  -4.675 0 0  -4.6625 0 0  -4.65 0 0  -4.6375 0 0  -4.625 0 0  -4.6125 0 0  -4.6 0 0  -4.5875 0 0  -4.575 0 0  -4.5625 0 0  -4.55 0 0  -4.5375 0 0  -4.525 0 0  -4.5125 0 0  -4.5 0 0  -4.4875 0 0  -4.475 0 0  -4.4625 0 0  -4.45 0 0  -4.4375 0 0  -4.425 0 0  -4.4125 0 0  -4.4 0 0  -4.3875 0 0  -4.375 0 0  -4.3625 0 0  -4.35 0 0  -4.3375 0 0  -4.325 0 0  -4.3125 0 0  -4.3 0 0  -4.2875 0 0  -4.275 0 0  -4.2625 0 0  -4.25 0 0  -4.2375 0 0  -4.225 0 0  -4.2125 0 0  -4.2 0 0  -4.1875 0 0  -4.175 0 0  -4.1625 0 0  -4.15 0 0  -4.1375 0 0  -4.125 0 0  -4.1125 0 0  -4.1 0 0  -4.0875 0 0  -4.075 0 0  -4.0625 0 0  -4.05 0 0  -4.0375 0 0  -4.025 0 0  -4.0125 0 0  -4 0 0  -3.9875 0 0  -3.975 0 0  -3.9625 0 0  -3.95 0 0  -3.9375 0 0  -3.925 0 0  -3.9125 0 0  -3.9 0 0  -3.8875 0 0  -3.875 0 0  -3.8625 0 0  -3.85 0 0  -3.8375 0 0  -3.825 0 0  -3.8125 0 0  -3.8 0 0  -3.7875 0 0  -3.775 0 0  -3.7625 0 0  -3.75 0 0  -3.7375 0 0  -3.725 0 0  -3.7125 0 0  -3.7 0 0  -3.6875 0 0  -3.675 0 0  -3.6625 0 0  -3.65 0 0  -3.6375 0 0  -3.625 0 0  -3.6125 0 0  -3.6 0 0  -3.5875 0 0  -3.575 0 0  -3.5625 0 0  -3.55 0 0  -3.5375 0 0  -3.525 0 0  -3.5125 0 0  -3.5 0 0  -3.4875 0 0  -3.475 0 0  -3.4625 0 0  -3.45 0 0  -3.4375 0 0  -3.425 0 0  -3.4125 0 0  -3.4 0 0  -3.3875 0 0  -3.375 0 0  -3.3625 0 0  -3.35 0 0  -3.3375 0 0  -3.325 0 0  -3.3125 0 0  -3.3 0 0  -3.2875 0 0  -3.275 0 0  -3.2625 0 0  -3.25 0 0  -3.2375 0 0  -3.225 0 0  -3.2125 0 0  -3.2 0 0  -3.1875 0 0  -3.175 0 0  -3.1625 0 0  -3.15 0 0  -3.1375 0 0  -3.125 0 0  -3.1125 0 0  -3.1 0 0  -3.0875 0 0  -3.075 0 0  -3.0625 0 0  -3.05 0 0  -3.0375 0 0  -3.025 0 0  -3.0125 0 0  -3 0 0  -2.9875 0 0  -2.975 0 0  -2.9625 0 0  -2.95 0 0  -2.9375 0 0  -2.925 0 0  -2.9125 0 0  -2.9 0 0  -2.8875 0 0  -2.875 0 0  -2.8625 0 0  -2.85 0 0  -2.8375 0 0  -2.825 0 0  -2.8125 0 0  -2.8 0 0  -2.7875 0 0  -2.775 0 0  -2.7625 0 0  -2.75 0 0  -2.7375 0 0  -2.725 0 0  -2.7125 0 0  -2.7 0 0  -2.6875 0 0  -2.675 0 0  -2.6625 0 0  -2.65 0 0  -2.6375 0 0  -2.625 0 0  -2.6125 0 0  -2.6 0 0  -2.5875 0 0  -2.575 0 0  -2.5625 0 0  -2.55 0 0  -2.5375 0 0  -2.525 0 0  -2.5125 0 0  -2.5 0 0  -2.4875 0 0  -2.475 0 0  -2.4625 0 0  -2.45 0 0  -2.4375 0 0  -2.425 0 0  -2.4125 0 0  -2.4 0 0  -2.3875 0 0  -2.375 0 0  -2.3625 0 0  -2.35 0 0  -2.3375 0 0  -2.325 0 0  -2.3125 0 0  -2.3 0 0  -2.2875 0 0  -2.275 0 0  -2.2625 0 0  -2.25 0 0  -2.2375 0 0  -2.225 0 0  -2.2125 0 0  -2.2 0 0  -2.1875 0 0  -2.175 0 0  -2.1625 0 0  -2.15 0 0  -2.1375 0 0  -2.125 0 0  -2.1125 0 0  -2.1 0 0  -2.0875 0 0  -2.075 0 0  -2.0625 0 0  -2.05 0 0  -2.0375 0 0  -2.025 0 0  -2.0125 0 0  -2 0 0  -1.9875 0 0  -1.975 0 0  -1.9625 0 0  -1.95 0 0  -1.9375 0 0  -1.925 0 0  -1.9125 0 0  -1.9 0 0  -1.8875 0 0  -1.875 0 0  -1.8625 0 0  -1.85 0 0  -1.8375 0 0  -1.825 0 0  -1.8125 0 0  -1.8 0 0  -1.7875 0 0  -1.775 0 0  -1.7625 0 0  -1.75 0 0  -1.7375 0 0  -1.725 0 0  -1.7125 0 0  -1.7 0 0  -1.6875 0 0  -1.675 0 0  -1.6625 0 0  -1.65 0 0  -1.6375 0 0  -1.625 0 0  -1.6125 0 0  -1.6 0 0  -1.5875 0 0  -1.575 0 0  -1.5625 0 0  -1.55 0 0  -1.5375 0 0  -1.525 0 0  -1.5125 0 0  -1.5 0 0  -1.4875 0 0  -1.475 0 0  -1.4625 0 0  -1.45 0 0  -1.4375 0 0  -1.425 0 0  -1.4125 0 0  -1.4 0 0  -1.3875 0 0  -1.375 0 0  -1.3625 0 0  -1.35 0 0  -1.3375 0 0  -1.325 0 0  -1.3125 0 0  -1.3 0 0  -1.2875 0 0  -1.275 0 0  -1.2625 0 0  -1.25 0 0  -1.2375 0 0  -1.225 0 0  -1.2125 0 0  -1.2 0 0  -1.1875 0 0  -1.175 0 0  -1.1625 0 0  -1.15 0 0  -1.1375 0 0  -1.125 0 0  -1.1125 0 0  -1.1 0 0  -1.0875 0 0  -1.075 0 0  -1.0625 0 0  -1.05 0 0  -1.0375 0 0  -1.025 0 0  -1.0125 0 0  -1 0 0  -0.9874999999999998 0 0  -0.9749999999999996 0 0  -0.9625000000000004 0 0  -0.9500000000000002 0 0  -0.9375 0 0  -0.9249999999999998 0 0  -0.9124999999999996 0 0  -0.9000000000000004 0 0  -0.8875000000000002 0 0  -0.875 0 0  -0.8624999999999998 0 0  -0.8499999999999996 0 0  -0.8375000000000004 0 0  -0.8250000000000002 0 0  -0.8125 0 0  -0.7999999999999998 0 0  -0.7874999999999996 0 0  -0.7750000000000004 0 0  -0.7625000000000002 0 0  -0.75 0 0  -0.7374999999999998 0 0  -0.7249999999999996 0 0  -0.7125000000000004 0 0  -0.7000000000000002 0 0  -0.6875 0 0  -0.6749999999999998 0 0  -0.6624999999999996 0 0  -0.6500000000000004 0 0  -0.6375000000000002 0 0  -0.625 0 0  -0.6124999999999998 0 0  -0.5999999999999996 0 0  -0.5875000000000004 0 0  -0.5750000000000002 0 0  -0.5625 0 0  -0.5499999999999998 0 0  -0.5374999999999996 0 0  -0.5250000000000004 0 0  -0.5125000000000002 0 0  -0.5 0 0  -0.4874999999999998 0 0  -0.4749999999999996 0 0  -0.4625000000000004 0 0  -0.4500000000000002 0 0  -0.4375 0 0  -0.4249999999999998 0 0  -0.4124999999999996 0 0  -0.4000000000000004 0 0  -0.3875000000000002 0 0  -0.375 0 0  -0.3624999999999998 0 0  -0.3499999999999996 0 0  -0.3375000000000004 0 0  -0.3250000000000002 0 0  -0.3125 0 0  -0.2999999999999998 0 0  -0.2874999999999996 0 0  -0.2750000000000004 0 0  -0.2625000000000002 0 0  -0.25 0 0  -0.2374999999999998 0 0  -0.2249999999999996 0 0  -0.2125000000000004 0 0  -0.2000000000000002 0 0  -0.1875 0 0  -0.1749999999999998 0 0  -0.1624999999999996 0 0  -0.1500000000000004 0 0  -0.1375000000000002 0 0  -0.125 0 0  -0.1124999999999998 0 0  -0.09999999999999964 0 0  -0.08750000000000036 0 0  -0.07500000000000018 0 0  -0.0625 0 0  -0.04999999999999982 0 0  -0.03749999999999964 0 0  -0.02500000000000036 0 0  -0.01250000000000018 0 0  0 0 0  0.01250000000000018 0 0  0.02500000000000036 0 0  0.03749999999999964 0 0  0.04999999999999982 0 0  0.0625 0 0  0.07500000000000018 0 0  0.08750000000000036 0 0  0.09999999999999964 0 0  0.1124999999999998 0 0  0.125 0 0  0.1375000000000002 0 0  0.1500000000000004 0 0  0.1624999999999996 0 0  0.1749999999999998 0 0  0.1875 0 0  0.2000000000000002 0 0  0.2125000000000004 0 0  0.2249999999999996 0 0  0.2374999999999998 0 0  0.25 0 0  0.2625000000000002 0 0  0.2750000000000004 0 0  0.2874999999999996 0 0  0.2999999999999998 0 0  0.3125 0 0  0.3250000000000002 0 0  0.3375000000000004 0 0  0.3499999999999996 0 0  0.3624999999999998 0 0  0.375 0 0  0.3875000000000002 0 0  0.4000000000000004 0 0  0.4124999999999996 0 0  0.4249999999999998 0 0  0.4375 0 0  0.4500000000000002 0 0  0.4625000000000004 0 0  0.4749999999999996 0 0  0.4874999999999998 0 0  0.5 0 0  0.5125000000000002 0 0  0.5250000000000004 0 0  0.5374999999999996 0 0  0.5499999999999998 0 0  0.5625 0 0  0.5750000000000002 0 0  0.5875000000000004 0 0  0.5999999999999996 0 0  0.6124999999999998 0 0  0.625 0 0  0.6375000000000002 0 0  0.6500000000000004 0 0  0.6624999999999996 0 0  0.6749999999999998 0 0  0.6875 0 0  0.7000000000000002 0 0  0.7125000000000004 0 0  0.7249999999999996 0 0  0.7374999999999998 0 0  0.75 0 0  0.7625000000000002 0 0  0.7750000000000004 0 0  0.7874999999999996 0 0  0.7999999999999998 0 0  0.8125 0 0  0.8250000000000002 0 0  0.8375000000000004 0 0  0.8499999999999996 0 0  0.8624999999999998 0 0  0.875 0 0  0.8875000000000002 0 0  0.9000000000000004 0 0  0.9124999999999996 0 0  0.9249999999999998 0 0  0.9375 0 0  0.9500000000000002 0 0  0.9625000000000004 0 0  0.9749999999999996 0 0  0.9874999999999998 0 0  1 0 0  1.0125 0 0  1.025 0 0  1.0375 0 0  1.05 0 0  1.0625 0 0  1.075 0 0  1.0875 0 0  1.1 0 0  1.1125 0 0  1.125 0 0  1.1375 0 0  1.15 0 0  1.1625 0 0  1.175 0 0  1.1875 0 0  1.2 0 0  1.2125 0 0  1.225 0 0  1.2375 0 0  1.25 0 0  1.2625 0 0  1.275 0 0  1.2875 0 0  1.3 0 0  1.3125 0 0  1.325 0 0  1.3375 0 0  1.35 0 0  1.3625 0 0  1.375 0 0  1.3875 0 0  1.4 0 0  1.4125 0 0  1.425 0 0  1.4375 0 0  1.45 0 0  1.4625 0 0  1.475 0 0  1.4875 0 0  1.5 0 0  1.5125 0 0  1.525 0 0  1.5375 0 0  1.55 0 0  1.5625 0 0  1.575 0 0  1.5875 0 0  1.6 0 0  1.6125 0 0  1.625 0 0  1.6375 0 0  1.65 0 0  1.6625 0 0  1.675 0 0  1.6875 0 0  1.7 0 0  1.7125 0 0  1.725 0 0  1.7375 0 0  1.75 0 0  1.7625 0 0  1.775 0 0  1.7875 0 0  1.8 0 0  1.8125 0 0  1.825 0 0  1.8375 0 0  1.85 0 0  1.8625 0 0  1.875 0 0  1.8875 0 0  1.9 0 0  1.9125 0 0  1.925 0 0  1.9375 0 0  1.95 0 0  1.9625 0 0  1.975 0 0  1.9875 0 0  2 0 0  2.0125 0 0  2.025 0 0  2.0375 0 0  2.05 0 0  2.0625 0 0  2.075 0 0  2.0875 0 0  2.1 0 0  2.1125 0 0  2.125 0 0  2.1375 0 0  2.15 0 0  2.1625 0 0  2.175 0 0  2.1875 0 0  2.2 0 0  2.2125 0 0  2.225 0 0  2.2375 0 0  2.25 0 0  2.2625 0 0  2.275 0 0  2.2875 0 0  2.3 0 0  2.3125 0 0  2.325 0 0  2.3375 0 0  2.35 0 0  2.3625 0 0  2.375 0 0  2.3875 0 0  2.4 0 0  2.4125 0 0  2.425 0 0  2.4375 0 0  2.45 0 0  2.4625 0 0  2.475 0 0  2.4875 0 0  2.5 0 0  2.5125 0 0  2.525 0 0  2.5375 0 0  2.55 0 0  2.5625 0 0  2.575 0 0  2.5875 0 0  2.6 0 0  2.6125 0 0  2.625 0 0  2.6375 0 0  2.65 0 0  2.6625 0 0  2.675 0 0  2.6875 0 0  2.7 0 0  2.7125 0 0  2.725 0 0  2.7375 0 0  2.75 0 0  2.7625 0 0  2.775 0 0  2.7875 0 0  2.8 0 0  2.8125 0 0  2.825 0 0  2.8375 0 0  2.85 0 0  2.8625 0 0  2.875 0 0  2.8875 0 0  2.9 0 0  2.9125 0 0  2.925 0 0  2.9375 0 0  2.95 0 0  2.9625 0 0  2.975 0 0  2.9875 0 0  3 0 0  3.012499999999999 0 0  3.025 0 0  3.0375 0 0  3.050000000000001 0 0  3.0625 0 0  3.074999999999999 0 0  3.0875 0 0  3.1 0 0  3.112500000000001 0 0  3.125 0 0  3.137499999999999 0 0  3.15 0 0  3.1625 0 0  3.175000000000001 0 0  3.1875 0 0  3.199999999999999 0 0  3.2125 0 0  3.225 0 0  3.237500000000001 0 0  3.25 0 0  3.262499999999999 0 0  3.275 0 0  3.2875 0 0  3.300000000000001 0 0  3.3125 0 0  3.324999999999999 0 0  3.3375 0 0  3.35 0 0  3.362500000000001 0 0  3.375 0 0  3.387499999999999 0 0  3.4 0 0  3.4125 0 0  3.425000000000001 0 0  3.4375 0 0  3.449999999999999 0 0  3.4625 0 0  3.475 0 0  3.4875
[...]
<PointData  Vectors="(h, u)"> 
<DataArray  type="Float64"  Name="(h, u)"  NumberOfComponents="3" format="ascii">1.4302421991364409e-01 0.0000000000000000e+00 0.0000000000000000e+00  1.4222169860012163e-01 4.7821619302750810e-03 0.0000000000000000e+00  1.4302199023857071e-01 9.5368201834556705e-03 0.0000000000000000e+00  1.4221991411772078e-01 1.4343600552970161e-02 0.0000000000000000e+00  1.4301530050328509e-01 1.9080333132645191e-02 0.0000000000000000e+00  1.4221634752437839e-01 2.3896540027106984e-02 0.0000000000000000e+00  1.4300414911021136e-01 2.8636924606238109e-02 0.0000000000000000e+00  1.4221099940797058e-01 3.3435850802926423e-02 0.0000000000000000e+00  1.4298853499421926e-01 3.8212338458485137e-02 0.0000000000000000e+00  1.4220386244347938e-01 4.2957253843940314e-02 0.0000000000000000e+00  1.4296845919419310e-01 4.7811293927287613e-02 0.0000000000000000e+00  1.4219491706467263e-01 5.2457733883661893e-02 0.0000000000000000e+00  1.4294392482874649e-01 5.7437050828798818e-02 0.0000000000000000e+00  1.4218413330179683e-01 6.1935989215386116e-02 0.0000000000000000e+00  1.4291493240346845e-01 6.7090940021454992e-02 0.0000000000000000e+00  1.4217148260725432e-01 7.1392889162556039e-02 0.0000000000000000e+00  1.4288146633300144e-01 7.6771899887887476e-02 0.0000000000000000e+00  1.4215696200263825e-01 8.0831896658575653e-02 0.0000000000000000e+00  1.4284346865971209e-01 8.6476078070985854e-02 0.0000000000000000e+00  1.4214063083690254e-01 9.0259405032316956e-02 0.0000000000000000e+00  1.4280079790915068e-01 9.6196564512055563e-02 0.0000000000000000e+00  1.4212265821770981e-01 9.9684934491619623e-02 0.0000000000000000e+00  1.4275317493895920e-01 1.0592331358116887e-01 0.0000000000000000e+00  1.4210337690768640e-01 1.0912113498076072e-01 0.0000000000000000e+00  1.4270012271072063e-01 1.1564329241074675e-01 0.0000000000000000e+00  1.4208333705014653e-01 1.1858355007678703e-01 0.0000000000000000e+00  1.4264091158413603e-01 1.2534086773902139e-01 0.0000000000000000e+00  1.4206335038535164e-01 1.2809011419792027e-01 0.0000000000000000e+00  1.4257452428952327e-01 1.3499842443094454e-01 0.0000000000000000e+00  1.4204451295571621e-01 1.3766038287347954e-01 0.0000000000000000e+00  1.4249965414999155e-01 1.4459720048395916e-01 0.0000000000000000e+00  1.4202819275563644e-01 1.4731452766493111e-01 0.0000000000000000e+00  1.4241474661767631e-01 1.5411832204149711e-01 0.0000000000000000e+00  1.4201596999361521e-01 1.5707215286411058e-01 0.0000000000000000e+00  1.4231808903967066e-01 1.6354401712399078e-01 0.0000000000000000e+00  1.4200952290083027e-01 1.6695100052329331e-01 0.0000000000000000e+00  1.4220794819162899e-01 1.7285896891389446e-01 0.0000000000000000e+00  1.4201046117465141e-01 1.7696560298896205e-01 0.0000000000000000e+00  1.4208275002643131e-01 1.8205173873582786e-01 0.0000000000000000e+00  1.4202012000730888e-01 1.8712593027352784e-01 0.0000000000000000e+00  1.4194129059579008e-01 1.9111615791374539e-01 0.0000000000000000e+00  1.4203933668028210e-01 1.9743608343471220e-01 0.0000000000000000e+00  1.4178296020494316e-01 2.0005257384958280e-01 0.0000000000000000e+00  1.4206823588659825e-01 2.0789311784065573e-01 0.0000000000000000e+00  1.4160795497907444e-01 2.0886884600777789e-01 0.0000000000000000e+00  1.4210604890666440e-01 2.1848613198570721e-01 0.0000000000000000e+00  1.4141744415453661e-01 2.1758100813102077e-01 0.0000000000000000e+00  1.4215098818024877e-01 2.2919579449327912e-01 0.0000000000000000e+00  1.4121366182916267e-01 2.2621351824964736e-01 0.0000000000000000e+00  1.4220019600671785e-01 2.3999446840219307e-01 0.0000000000000000e+00  1.4099990081753114e-01 2.3479899605214113e-01 0.0000000000000000e+00  1.4224978475442993e-01 2.5084701959757710e-01 0.0000000000000000e+00  1.4078040132857780e-01 2.4337731876561294e-01 0.0000000000000000e+00  1.4229498285795766e-01 2.6171229625770664e-01 0.0000000000000000e+00  1.4056014203328043e-01 2.5199396030536525e-01 0.0000000000000000e+00  1.4233039080778281e-01 2.7254519270724364e-01 0.0000000000000000e+00  1.4034454913802386e-01 2.6069755797334798e-01 0.0000000000000000e+00  1.4235033226932961e-01 2.8329919731433784e-01 0.0000000000000000e+00  1.4013913986936555e-01 2.6953686334059362e-01 0.0000000000000000e+00  1.4234926403780343e-01 2.9392933535001986e-01 0.0000000000000000e+00  1.3994911837600060e-01 2.7855738983516432e-01 0.0000000000000000e+00  1.4232219707043192e-01 3.0439537393009714e-01 0.0000000000000000e+00  1.3977895261504938e-01 2.8779811583909992e-01 0.0000000000000000e+00  1.4226508540197100e-01 3.1466502799092777e-01 0.0000000000000000e+00  1.3963197796139276e-01 2.9728853431021429e-01 0.0000000000000000e+00  1.4217515417868215e-01 3.2471676099216823e-01 0.0000000000000000e+00  1.3951008519680089e-01 3.0704623924615176e-01 0.0000000000000000e+00  1.4205114921507936e-01 3.3454172901904039e-01 0.0000000000000000e+00  1.3941354307914411e-01 3.1707521590162457e-01 0.0000000000000000e+00  1.4189348607683694e-01 3.4414457412310678e-01 0.0000000000000000e+00  1.3934097302270956e-01 3.2736510839038324e-01 0.0000000000000000e+00  1.4170426104654915e-01 3.5354308774647564e-01 0.0000000000000000e+00  1.3928945596826495e-01 3.3789181975164118e-01 0.0000000000000000e+00  1.4148709044527732e-01 3.6276696378680579e-01 0.0000000000000000e+00  1.3925474439972668e-01 3.4861958806784910e-01 0.0000000000000000e+00  1.4124678763261780e-01 3.7185576012200189e-01 0.0000000000000000e+00  1.3923157314142340e-01 3.5950423455627400e-01 0.0000000000000000e+00  1.4098893707334034e-01 3.8085601655833928e-01 0.0000000000000000e+00  1.3921407245195191e-01 3.7049695838102958e-01 0.0000000000000000e+00  1.4071944510520057e-01 3.8981751081822963e-01 0.0000000000000000e+00  1.3919626902486479e-01 3.8154803525425746e-01 0.0000000000000000e+00  1.4044412842391493e-01 3.9878891965321706e-01 0.0000000000000000e+00  1.3917261070647796e-01 3.9261012123764116e-01 0.0000000000000000e+00  1.4016834038721768e-01 4.0781369880900276e-01 0.0000000000000000e+00  1.3913839003055040e-01 4.0364140465498927e-01 0.0000000000000000e+00  1.3989659850191552e-01 4.1692723927426706e-01 0.0000000000000000e+00  1.3908997856383346e-01 4.1460867546270075e-01 0.0000000000000000e+00  1.3963226283398308e-01 4.2615547105807883e-01 0.0000000000000000e+00  1.3902492767230848e-01 4.2548940005763558e-01 0.0000000000000000e+00  1.3937740081061356e-01 4.3551411954056540e-01 0.0000000000000000e+00  1.3894202545808615e-01 4.3627188093246022e-01 0.0000000000000000e+00  1.3913288347761432e-01 4.4500828263596381e-01 0.0000000000000000e+00  1.3884130354326024e-01 4.4695367589944102e-01 0.0000000000000000e+00  1.3889864854949974e-01 4.5463262821500555e-01 0.0000000000000000e+00  1.3872395380257088e-01 4.5753899353410976e-01 0.0000000000000000e+00  1.3867401072634217e-01 4.6437273103714355e-01 0.0000000000000000e+00  1.3859205378777653e-01 4.6803649354939980e-01 0.0000000000000000e+00  1.3845781612522692e-01 4.7420861288145066e-01 0.0000000000000000e+00  1.3844804673635078e-01 4.7845863047211257e-01 0.0000000000000000e+00  1.3824850116246754e-01 4.8411928055560788e-01 0.0000000000000000e+00  1.3829435973077142e-01 4.8881999850119034e-01 0.0000000000000000e+00  1.3804446582482302e-01 4.9408416134288813e-01 0.0000000000000000e+00  1.3813346381368866e-01 4.9913269991978260e-01 0.0000000000000000e+00  1.3784459771776916e-01 5.0408229829751916e-01 0.0000000000000000e+00  1.3796789049884781e-01 5.0940322410142103e-01 0.0000000000000000e+00  1.3764838031354573e-01 5.1409377407824663e-01 0.0000000000000000e+00  1.3779998587253911e-01 5.1963286831657840e-01 0.0000000000000000e+00  1.3745577339079432e-01 5.2410171041389586e-01 0.0000000000000000e+00  1.3763170667605096e-01 5.2981910616242911e-01 0.0000000000000000e+00  1.3726694866500497e-01 5.3409428013854354e-01 0.0000000000000000e+00  1.3746428710209280e-01 5.3995913061943568e-01 0.0000000000000000e+00  1.3708199171573796e-01 5.4406608538999601e-01 0.0000000000000000e+00  1.3729851259196793e-01 5.5004901065577338e-01 0.0000000000000000e+00  1.3690166351784183e-01 5.5401003949069838e-01 0.0000000000000000e+00  1.3713583666408760e-01 5.6007606501533580e-01 0.0000000000000000e+00  1.3672773709827454e-01 5.6391267507163778e-01 0.0000000000000000e+00  1.3697765722324098e-01 5.7002676486790116e-01 0.0000000000000000e+00  1.3656122642993021e-01 5.7376746093928122e-01 0.0000000000000000e+00  1.3682404904818604e-01 5.7989893477216381e-01 0.0000000000000000e+00  1.3640237270774594e-01 5.8357367363523460e-01 0.0000000000000000e+00  1.3667524266012560e-01 5.8969023623644767e-01 0.0000000000000000e+00  1.3625197418613919e-01 5.9332441096585287e-01 0.0000000000000000e+00  1.3653198169637726e-01 5.9939560595080399e-01 0.0000000000000000e+00  1.3611069170356116e-01 6.0301226214653336e-01 0.0000000000000000e+00  1.3639527193193854e-01 6.0900936628743396e-01 0.0000000000000000e+00  1.3597949646814575e-01 6.1262571891398832e-01 0.0000000000000000e+00  1.3626628377317007e-01 6.1852569633731136e-01 0.0000000000000000e+00  1.3585767491101047e-01 6.2216658388637158e-01 0.0000000000000000e+00  1.3614355748394544e-01 6.2796179504416705e-01 0.0000000000000000e+00  1.3574316488682919e-01 6.3164769545320032e-01 0.0000000000000000e+00  1.3602792009825587e-01 6.3731557221558321e-01 0.0000000000000000e+00  1.3563838728135874e-01 6.4104396624820958e-01 0.0000000000000000e+00  1.3592204391074478e-01 6.4656892008670575e-01 0.0000000000000000e+00  1.3554228231103760e-01 6.5036044910152424e-01 0.0000000000000000e+00  1.3582261103211854e-01 6.5575392412912947e-01 0.0000000000000000e+00  1.3545196835085396e-01 6.5961845341401937e-01 0.0000000000000000e+00  1.3573039911279158e-01 6.6486700893304496e-01 0.0000000000000000e+00  1.3536956066411349e-01 6.6879767184932226e-01 0.0000000000000000e+00  1.3564609171392092e-01 6.7390458057623603e-01 0.0000000000000000e+00  1.3529361151856820e-01 6.7790888911917235e-01 0.0000000000000000e+00  1.3556914905762274e-01 6.8287272144528322e-01 0.0000000000000000e+00  1.3522448720316552e-01 6.8694809238531640e-01 0.0000000000000000e+00  1.3549803816319594e-01 6.9178542348534777e-01 0.0000000000000000e+00  1.3515807183880202e-01 6.9594985866788694e-01 0.0000000000000000e+00  1.3543187415653371e-01 7.0065075840410351e-01 0.0000000000000000e+00  1.3510002060266602e-01 7.0486588807669093e-01 0.0000000000000000e+00  1.3537573599975741e-01 7.0942584972846257e-01 0.0000000000000000e+00  1.3504507445155192e-01 7.1374102712024390e-01 0.0000000000000000e+00  1.3531870709012567e-01 7.1820382413311690e-01 0.0000000000000000e+00  1.3499225165498785e-01 7.2258370947572770e-01 0.0000000000000000e+00  1.3527223356417961e-01 7.2688727931254782e-01 0.0000000000000000e+00  1.3494787121420126e-01 7.3134036534468494e-01 0.0000000000000000e+00  1.3522690572938609e-01 7.3555643966678141e-01 0.0000000000000000e+00  1.3490178521834945e-01 7.4009768408245447e-01 0.0000000000000000e+00  1.3518718607820801e-01 7.4417319358346368e-01 0.0000000000000000e+00  1.3486227040955695e-01 7.4878547767150538e-01 0.0000000000000000e+00  1.3514940901221120e-01 7.5276869517835021e-01 0.0000000000000000e+00  1.3482410227558969e-01 7.5744864013032542e-01 0.0000000000000000e+00  1.3511955512258969e-01 7.6129179203426212e-01 0.0000000000000000e+00  1.3478928049684480e-01 7.6607060029619078e-01 0.0000000000000000e+00  1.3508379148734337e-01 7.6986017166389786e-01 0.0000000000000000e+00  1.3475519822826168e-01 7.7467395325848898e-01 0.0000000000000000e+00  1.3506398548949103e-01 7.7828716945782928e-01 0.0000000000000000e+00  1.3472763601556731e-01 7.8321000985339295e-01 0.0000000000000000e+00  1.3502974902971446e-01 7.8683165221898599e-01 0.0000000000000000e+00  1.3469631076983324e-01 7.9176674266226210e-01 0.0000000000000000e+00  1.3501564084518664e-01 7.9519866132651063e-01 0.0000000000000000e+00  1.3467334133929298e-01 8.0024140656927645e-01 0.0000000000000000e+00  1.3498462352020227e-01 8.0370387601569637e-01 0.0000000000000000e+00  1.3465007613526245e-01 8.0870802803730879e-01 0.0000000000000000e+00  1.3497063150183095e-01 8.1205766003458801e-01 0.0000000000000000e+00  1.3462472348766752e-01 8.1718239657492853e-01 0.0000000000000000e+00  1.3494595222332256e-01 8.2049616085658639e-01 0.0000000000000000e+00  1.3461649543881649e-01 8.2550094253425310e-01 0.0000000000000000e+00  1.3492307834198350e-01 8.2891273054960402e-01 0.0000000000000000e+00  1.3458736914217420e-01 8.3398835914036162e-01 0.0000000000000000e+00  1.3491225563426656e-01 8.3721960400594664e-01 0.0000000000000000e+00  1.3458927378418867e-01 8.4220215376383678e-01 0.0000000000000000e+00  1.3486988878513756e-01 8.4578868026914811e-01 0.0000000000000000e+00  1.3457342462669836e-01 8.5055861707824065e-01 0.0000000000000000e+00  1.3487243374486499e-01 8.5396734553045328e-01 0.0000000000000000e+00  1.3456127513630953e-01 8.5887544731434562e-01 0.0000000000000000e+00  1.3482662109326268e-01 8.6255115154253059e-01 0.0000000000000000e+00  1.3457848273341316e-01 8.6693370365849520e-01 0.0000000000000000e+00  1.3480360172798544e-01 8.7093300599831613e-01 0.0000000000000000e+00  1.3455439319988483e-01 8.7533677886291783e-01 0.0000000000000000e+00  1.3479929193248366e-01 8.7914732615999591e-01 0.0000000000000000e+00  1.3455840666327354e-01 8.8349287731913484e-01 0.0000000000000000e+00  1.3473942701114403e-01 8.8782779447895610e-01 0.0000000000000000e+00  1.3459507497657741e-01 8.9136305185214826e-01 0.0000000000000000e+00  1.3472133241115078e-01 8.9614403686135358e-01 0.0000000000000000e+00  1.3454726167804465e-01 8.9994749574473387e-01 0.0000000000000000e+00  1.3473289392359827e-01 9.0419877117402248e-01 0.0000000000000000e+00  1.3456858303609320e-01 9.0793554779692631e-01 0.0000000000000000e+00  1.3464471332583361e-01 9.1309659701596835e-01 0.0000000000000000e+00  1.3462121654434284e-01 9.1564957008592818e-01 0.0000000000000000e+00  1.3461902061738576e-01 9.2145309549360954e-01 0.0000000000000000e+00  1.3457548452168891e-01 9.2419710296455571e-01 0.0000000000000000e+00  1.3466325369225715e-01 9.2920420841650631e-01 0.0000000000000000e+00  1.3453525022307772e-01 9.3269208631996292e-01 0.0000000000000000e+00  1.3461903701585157e-01 9.3770151591059681e-01 0.0000000000000000e+00  1.3462683057144709e-01 9.4005607325957152e-01 0.0000000000000000e+00  1.3449137945173567e-01 9.4690281432511558e-01 0.0000000000000000e+00  1.3467424401279313e-01 9.4779103906879048e-01 0.0000000000000000e+00  1.3452839620198165e-01 9.5469016679646446e-01 0.0000000000000000e+00  1.3453273576945243e-01 9.5713388906483732e-01 0.0000000000000000e+00  1.3467250126841762e-01 9.6155396445403041e-01 0.0000000000000000e+00  1.3441081193440682e-01 9.6630506208301248e-01 0.0000000000000000e+00  1.3468387331880058e-01 9.6954141451820131e-01 0.0000000000000000e+00  1.3449668218371516e-01 9.7369750991992432e-01 0.0000000000000000e+00  1.3445596885779890e-01 9.7956281932058875e-01 0.0000000000000000e+00  1.3479548553548040e-01 9.7926636673924206e-01 0.0000000000000000e+00  1.3410110753933763e-01 9.9066006321895572e-01 0.0000000000000000e+00  1.3509598350837854e-01 9.8481460106526808e-01 0.0000000000000000e+00  1.3384990322923851e-01 1.0008647015941718e+00 0.0000000000000000e+00  1.3523850753807690e-01 9.9170625260379630e-01 0.0000000000000000e+00  1.3376186906495702e-01 1.0096683932720991e+00 0.0000000000000000e+00  1.3523801703674954e-01 9.9981396789764188e-01 0.0000000000000000e+00  1.3379895198442723e-01 1.0173957689917674e+00 0.0000000000000000e+00  1.3513476178132955e-01 1.0087938900555427e+00 0.0000000000000000e+00  1.3390858024996402e-01 1.0244956518145527e+00 0.0000000000000000e+00  1.3500076034724773e-01 1.0180307994197215e+00 0.0000000000000000e+00  1.3400942099244750e-01 1.0316630797429049e+00 0.0000000000000000e+00  1.3489631985032088e-01 1.0270091737778690e+00 0.0000000000000000e+00  1.3407840767305687e-01 1.0390958675116679e+00 0.0000000000000000e+00  1.3481236677467476e-01 1.0358057649875949e+00 0.0000000000000000e+00  1.3413513880315051e-01 1.0466273559181678e+00 0.0000000000000000e+00  1.3473925786552116e-01 1.0445023029988565e+00 0.0000000000000000e+00  1.3417424788538806e-01 1.0543040877242125e+00 0.0000000000000000e+00  1.3468894658391350e-01 1.0529960691032829e+00 0.0000000000000000e+00  1.3418891977824482e-01 1.0621850482307651e+00 0.0000000000000000e+00  1.3465677945661345e-01 1.0613261650936350e+00 0.0000000000000000e+00  1.3419325749846170e-01 1.0701504621741962e+00 0.0000000000000000e+00  1.3462664480438472e-01 1.0696297308252141e+00 0.0000000000000000e+00  1.3419882207315206e-01 1.0781020800325960e+00 0.0000000000000000e+00  1.3459479140962810e-01 1.0779385269803787e+00 0.0000000000000000e+00  1.3420254091407563e-01 1.0860665042189215e+00 0.0000000000000000e+00  1.3456764610715316e-01 1.0861974846609141e+00 0.0000000000000000e+00  1.3419794269633298e-01 1.0940992514379997e+00 0.0000000000000000e+00  1.3454919549866159e-01 1.0943724761580422e+00 0.0000000000000000e+00  1.3418408059054343e-01 1.1022085223673068e+00 0.0000000000000000e+00  1.3453765275049770e-01 1.1024788485018253e+00 0.0000000000000000e+00  1.3416435934651710e-01 1.1103652272551958e+00 0.0000000000000000e+00  1.3452910176764757e-01 1.1105503252161650e+00 0.0000000000000000e+00  1.3414227474519774e-01 1.1185393961711494e+00 0.0000000000000000e+00  1.3452097083233555e-01 1.1186092830086136e+00 0.0000000000000000e+00  1.3411927905906595e-01 1.1267184107991852e+00 0.0000000000000000e+00  1.3451314160741026e-01 1.1266571688869340e+00 0.0000000000000000e+00  1.3409360652914723e-01 1.1349170254281755e+00 0.0000000000000000e+00  1.3451100300285448e-01 1.1346482951573951e+00 0.0000000000000000e+00  1.3405242284968263e-01 1.1432444961294492e+00 0.0000000000000000e+00  1.3454249310888136e-01 1.1423441512051997e+00 0.0000000000000000e+00  1.3394505222531428e-01 1.1521336991635236e+00 0.0000000000000000e+00  1.3469028723251789e-01 1.1490383804949571e+00 0.0000000000000000e+00  1.3366419396366128e-01 1.1625027641779120e+00 0.0000000000000000e+00  1.3507460619223066e-01 1.1537043141537842e+00 0.0000000000000000e+00  1.3313565854472706e-01 1.1749896582574411e+00 0.0000000000000000e+00  1.3566896074713192e-01 1.1565695554595798e+00 0.0000000000000000e+00  1.3254448221460877e-01 1.1880150750290921e+00 0.0000000000000000e+00  1.3609137750550671e-01 1.1608936838372772e+00 0.0000000000000000e+00  1.3233954494918657e-01 1.1977315008738301e+00 0.0000000000000000e+00  1.3592324739895920e-01 1.1702457420009458e+00 0.0000000000000000e+00  1.3267283965744353e-01 1.2028292734194308e+00 0.0000000000000000e+00  1.3543136411763812e-01 1.1823546462363328e+00 0.0000000000000000e+00  1.3302033978284380e-01 1.2077982312174980e+00 0.0000000000000000e+00  1.3519193833058610e-01 1.1923054073322448e+00 0.0000000000000000e+00  1.3311944140511520e-01 1.2148900407059189e+00 0.0000000000000000e+00  1.3503651695938515e-01 1.2015329161283694e+00 0.0000000000000000e+00  1.3332791948729969e-01 1.2210408835338700e+00 0.0000000000000000e+00  1.3468866381771902e-01 1.2123987924368456e+00 0.0000000000000000e+00  1.3368788867326453e-01 1.2258898448243878e+00 0.0000000000000000e+00  1.3422752804027624e-01 1.2242300174924996e+00 0.0000000000000000e+00  1.3422667676404587e-01 1.2292052335629329e+00 0.0000000000000000e+00  1.3343440841635798e-01 1.2389028247054164e+00 0.0000000000000000e+00  1.3528308505360676e-01 1.2280971984574427e+00 0.0000000000000000e+00  1.3199929230998625e-01 1.2590949502585387e+00 0.0000000000000000e+00  1.3712469615864634e-01 1.2203088494710850e+00 0.0000000000000000e+00  1.2976969838970781e-01 1.2861753795091204e+00 0.0000000000000000e+00  1.3986313574460396e-01 1.2049501798945137e+00 0.0000000000000000e+00  1.2686995906091156e-01 1.3191732585427487e+00 0.0000000000000000e+00  1.4313116051322727e-01 1.1852024956272733e+00 0.0000000000000000e+00  1.2399600267876304e-01 1.3521342794776496e+00 0.0000000000000000e+00  1.4575281013131167e-01 1.1709868196595583e+00 0.0000000000000000e+00  1.2248193656287730e-01 1.3733417400549264e+00 0.0000000000000000e+00  1.457200