<?xml version="1.0"?>
<VTKFile type="UnstructuredGrid"  version="0.1"  >
<UnstructuredGrid>
<Piece  NumberOfPoints="801" NumberOfCells="800">
<Points>
<DataArray  type="Float64"  NumberOfComponents="3"  format="ascii">-5 0 0  -4.9875 0 0  -4.975 0 0  -4.9625 0 0  -4.95 0 0  -4.9375 0 0  -4.925 0 0  -4.9125 0 0  -4.9 0 0  -4.8875 0 0  -4.875 0 0  -4.8625 0 0  -4.85 0 0  -4.8375 0 0  -4.825 0 0  -4.8125 0 0  -4.8 0 0  -4.7875 0 0  -4.775 0 0  -4.7625 0 0  -4.75 0 0  -4.7375 0 0  -4.725 0 0  -4.7125 0 0  -4.7 0 0  -4.6875 0 0  -4.675 0 0  -4.6625 0 0  -4.65 0 0  -4.6375 0 0  -4.625 0 0  -4.6125 0 0  -4.6 0 0  -4.5875 0 0  -4.575 0 0  -4.5625 0 0  -4.55 0 0  -4.5375 0 0  -4.525 0 0  -4.5125 0 0  -4.5 0 0  -4.4875 0 0  -4.475 0 0  -4.4625 0 0  -4.45 0 0  -4.4375 0 0  -4.425 0 0  -4.4125 0 0  -4.4 0 0  -4.3875 0 0  -4.375 0 0  -4.3625 0 0  -4.35 0 0  -4.3375 0 0  -4.325 0 0  -4.3125 0 0  -4.3 0 0  -4.2875 0 0  -4.275 0 0  -4.2625 0 0  -4.25 0 0  -4.2375 0 0  -4.225 0 0  -4.2125 0 0  -4.2 0 0  -4.1875 0 0  -4.175 0 0  -4.1625 0 0  -4.15 0 0  -4.1375 0 0  -4.125 0 0  -4.1125 0 0  -4.1 0 0  -4.0875 0 0  -4.075 0 0  -4.0625 0 0  -4.05 0 0  -4.0375 0 0  -4.025 0 0  -4.0125 0 0  -4 0 0  -3.9875 0 0  -3.975 0 0  -3.9625 0 0  -3.95 0 0  -3.9375 0 0  -3.925 0 0  -3.9125 0 0  -3.9 0 0  -3.8875 0 0  -3.875 0 0  -3.8625 0 0  -3.85 0 0  -3.8375 0 0  -3.825 0 0  -3.8125 0 0  -3.8 0 0  -3.7875 0 0  -3.775 0 0  -3.7625 0 0  -3.75 0 0  -3.7375 0 0  -3.725 0 0  -3.7125 0 0  -3.7 0 0  -3.6875 0 0  -3.675 0 0  -3.6625 0 0  -3.65 0 0  -3.6375 0 0  -3.625 0 0  -3.6125 0 0  -3.6 0 0  -3.5875 0 0  -3.575 0 0  -3.5625 0 0  -3.55 0 0  -3.5375 0 0  -3.525 0 0  -3.5125 0 0  -3.5 0 0  -3.4875 0 0  -3.475 0 0  -3.4625 0 0  -3.45 0 0  -3.4375 0 0  -3.425 0 0  -3.4125 0 0  -3.4 0 0  -3.3875 0 0  -3.375 0 0  -3.3625 0 0  -3.35 0 0  -3.3375 0 0  -3.325 0 0  -3.3125 0 0  -3.3 0 0  -3.2875 0 0  -3.275 0 0  -3.2625 0 0  -3.25 0 0  -3.2375 0 0  -3.225 0 0  -3.2125 0 0  -3.2 0 0  -3.1875 0 0  -3.175 0 0  -3.1625 0 0  -3.15 0 0  -3.1375 0 0  -3.125 0 0  -3.1125 0 0  -3.1 0 0  -3.0875 0 0  -3.075 0 0  -3.0625 0 0  -3.05 0 0  -3.0375 0 0  -3.025 0 0  -3.0125 0 0  -3 0 0  -2.9875 0 0  -2.975 0 0  -2.9625 0 0  -2.95 0 0  -2.9375 0 0  -2.925 0 0  -2.9125 0 0  -2.9 0 0  -2.8875 0 0  -2.875 0 0  -2.8625 0 0  -2.85 0 0  -2.8375 0 0  -2.825 0 0  -2.8125 0 0  -2.8 0 0  -2.7875 0 0  -2.775 0 0  -2.7625 0 0  -2.75 0 0  -2.7375 0 0  -2.725 0 0  -2.7125 0 0  -2.7 0 0  -2.6875 0 0  -2.675 0 0  -2.6625 0 0  -2.65 0 0  -2.6375 0 0  -2.625 0 0  -2.6125 0 0  -2.6 0 0  -2.5875 0 0  -2.575 0 0  -2.5625 0 0  -2.55 0 0  -2.5375 0 0  -2.525 0 0  -2.5125 0 0  -2.5 0 0  -2.4875 0 0  -2.475 0 0  -2.4625 0 0  -2.45 0 0  -2.4375 0 0  -2.425 0 0  -2.4125 0 0  -2.4 0 0  -2.3875 0 0  -2.375 0 0  -2.3625 0 0  -2.35 0 0  -2.3375 0 0  -2.325 0 0  -2.3125 0 0  -2.3 0 0  -2.2875 0 0  -2.275 0 0  -2.2625 0 0  -2.25 0 0  -2.2375 0 0  -2.225 0 0  -2.2125 0 0  -2.2 0 0  -2.1875 0 0  -2.175 0 0  -2.1625 0 0  -2.15 0 0  -2.1375 0 0  -2.125 0 0  -2.1125 0 0  -2.1 0 0  -2.0875 0 0  -2.075 0 0  -2.0625 0 0  -2.05 0 0  -2.0375 0 0  -2.025 0 0  -2.0125 0 0  -2 0 0  -1.9875 0 0  -1.975 0 0  -1.9625 0 0  -1.95 0 0  -1.9375 0 0  -1.925 0 0  -1.9125 0 0  -1.9 0 0  -1.8875 0 0  -1.875 0 0  -1.8625 0 0  -1.85 0 0  -1.8375 0 0  -1.825 0 0  -1.8125 0 0  -1.8 0 0  -1.7875 0 0  -1.775 0 0  -1.7625 0 0  -1.75 0 0  -1.7375 0 0  -1.725 0 0  -1.7125 0 0  -1.7 0 0  -1.6875 0 0  -1.675 0 0  -1.6625 0 0  -1.65 0 0  -1.6375 0 0  -1.625 0 0  -1.6125 0 0  -1.6 0 0  -1.5875 0 0  -1.575 0 0  -1.5625 0 0  -1.55 0 0  -1.5375 0 0  -1.525 0 0  -1.5125 0 0  -1.5 0 0  -1.4875 0 0  -1.475 0 0  -1.4625 0 0  -1.45 0 0  -1.4375 0 0  -1.425 0 0  -1.4125 0 0  -1.4 0 0  -1.3875 0 0  -1.375 0 0  -1.3625 0 0  -1.35 0 0  -1.3375 0 0  -1.325 0 0  -1.3125 0 0  -1.3 0 0  -1.2875 0 0  -1.275 0 0  -1.2625 0 0  -1.25 0 0  -1.2375 0 0  -1.225 0 0  -1.2125 0 0  -1.2 0 0  -1.1875 0 0  -1.175 0 0  -1.1625 0 0  -1.15 0 0  -1.1375 0 0  -1.125 0 0  -1.1125 0 0  -1.1 0 0  -1.0875 0 0  -1.075 0 0  -1.0625 0 0  -1.05 0 0  -1.0375 0 0  -1.025 0 0  -1.0125 0 0  -1 0 0  -0.9874999999999998 0 0  -0.9749999999999996 0 0  -0.9625000000000004 0 0  -0.9500000000000002 0 0  -0.9375 0 0  -0.9249999999999998 0 0  -0.9124999999999996 0 0  -0.9000000000000004 0 0  -0.8875000000000002 0 0  -0.875 0 0  -0.8624999999999998 0 0  -0.8499999999999996 0 0  -0.8375000000000004 0 0  -0.8250000000000002 0 0  -0.8125 0 0  -0.7999999999999998 0 0  -0.7874999999999996 0 0  -0.7750000000000004 0 0  -0.7625000000000002 0 0  -0.75 0 0  -0.7374999999999998 0 0  -0.7249999999999996 0 0  -0.7125000000000004 0 0  -0.7000000000000002 0 0  -0.6875 0 0  -0.6749999999999998 0 0  -0.6624999999999996 0 0  -0.6500000000000004 0 0  -0.6375000000000002 0 0  -0.625 0 0  -0.6124999999999998 0 0  -0.5999999999999996 0 0  -0.5875000000000004 0 0  -0.5750000000000002 0 0  -0.5625 0 0  -0.5499999999999998 0 0  -0.5374999999999996 0 0  -0.5250000000000004 0 0  -0.5125000000000002 0 0  -0.5 0 0  -0.4874999999999998 0 0  -0.4749999999999996 0 0  -0.4625000000000004 0 0  -0.4500000000000002 0 0  -0.4375 0 0  -0.4249999999999998 0 0  -0.4124999999999996 0 0  -0.4000000000000004 0 0  -0.3875000000000002 0 0  -0.375 0 0  -0.3624999999999998 0 0  -0.3499999999999996 0 0  -0.3375000000000004 0 0  -0.3250000000000002 0 0  -0.3125 0 0  -0.2999999999999998 0 0  -0.2874999999999996 0 0  -0.2750000000000004 0 0  -0.2625000000000002 0 0  -0.25 0 0  -0.2374999999999998 0 0  -0.2249999999999996 0 0  -0.2125000000000004 0 0  -0.2000000000000002 0 0  -0.1875 0 0  -0.1749999999999998 0 0  -0.1624999999999996 0 0  -0.1500000000000004 0 0  -0.1375000000000002 0 0  -0.125 0 0  -0.1124999999999998 0 0  -0.09999999999999964 0 0  -0.08750000000000036 0 0  -0.07500000000000018 0 0  -0.0625 0 0  -0.04999999999999982 0 0  -0.03749999999999964 0 0  -0.02500000000000036 0 0  -0.01250000000000018 0 0  0 0 0  0.01250000000000018 0 0  0.02500000000000036 0 0  0.03749999999999964 0 0  0.04999999999999982 0 0  0.0625 0 0  0.07500000000000018 0 0  0.08750000000000036 0 0  0.09999999999999964 0 0  0.1124999999999998 0 0  0.125 0 0  0.1375000000000002 0 0  0.1500000000000004 0 0  0.1624999999999996 0 0  0.1749999999999998 0 0  0.1875 0 0  0.2000000000000002 0 0  0.2125000000000004 0 0  0.2249999999999996 0 0  0.2374999999999998 0 0  0.25 0 0  0.2625000000000002 0 0  0.2750000000000004 0 0  0.2874999999999996 0 0  0.2999999999999998 0 0  0.3125 0 0  0.3250000000000002 0 0  0.3375000000000004 0 0  0.3499999999999996 0 0  0.3624999999999998 0 0  0.375 0 0  0.3875000000000002 0 0  0.4000000000000004 0 0  0.4124999999999996 0 0  0.4249999999999998 0 0  0.4375 0 0  0.4500000000000002 0 0  0.4625000000000004 0 0  0.4749999999999996 0 0  0.4874999999999998 0 0  0.5 0 0  0.5125000000000002 0 0  0.5250000000000004 0 0  0.5374999999999996 0 0  0.5499999999999998 0 0  0.5625 0 0  0.5750000000000002 0 0  0.5875000000000004 0 0  0.5999999999999996 0 0  0.6124999999999998 0 0  0.625 0 0  0.6375000000000002 0 0  0.6500000000000004 0 0  0.6624999999999996 0 0  0.6749999999999998 0 0  0.6875 0 0  0.7000000000000002 0 0  0.7125000000000004 0 0  0.7249999999999996 0 0  0.7374999999999998 0 0  0.75 0 0  0.7625000000000002 0 0  0.7750000000000004 0 0  0.7874999999999996 0 0  0.7999999999999998 0 0  0.8125 0 0  0.8250000000000002 0 0  0.8375000000000004 0 0  0.8499999999999996 0 0  0.8624999999999998 0 0  0.875 0 0  0.8875000000000002 0 0  0.9000000000000004 0 0  0.9124999999999996 0 0  0.9249999999999998 0 0  0.9375 0 0  0.9500000000000002 0 0  0.9625000000000004 0 0  0.9749999999999996 0 0  0.9874999999999998 0 0  1 0 0  1.0125 0 0  1.025 0 0  1.0375 0 0  1.05 0 0  1.0625 0 0  1.075 0 0  1.0875 0 0  1.1 0 0  1.1125 0 0  1.125 0 0  1.1375 0 0  1.15 0 0  1.1625 0 0  1.175 0 0  1.1875 0 0  1.2 0 0  1.2125 0 0  1.225 0 0  1.2375 0 0  1.25 0 0  1.2625 0 0  1.275 0 0  1.2875 0 0  1.3 0 0  1.3125 0 0  1.325 0 0  1.3375 0 0  1.35 0 0  1.3625 0 0  1.375 0 0  1.3875 0 0  1.4 0 0  1.4125 0 0  1.425 0 0  1.4375 0 0  1.45 0 0  1.4625 0 0  1.475 0 0  1.4875 0 0  1.5 0 0  1.5125 0 0  1.525 0 0  1.5375 0 0  1.55 0 0  1.5625 0 0  1.575 0 0  1.5875 0 0  1.6 0 0  1.6125 0 0  1.625 0 0  1.6375 0 0  1.65 0 0  1.6625 0 0  1.675 0 0  1.6875 0 0  1.7 0 0  1.7125 0 0  1.725 0 0  1.7375 0 0  1.75 0 0  1.7625 0 0  1.775 0 0  1.7875 0 0  1.8 0 0  1.8125 0 0  1.825 0 0  1.8375 0 0  1.85 0 0  1.8625 0 0  1.875 0 0  1.8875 0 0  1.9 0 0  1.9125 0 0  1.925 0 0  1.9375 0 0  1.95 0 0  1.9625 0 0  1.975 0 0  1.9875 0 0  2 0 0  2.0125 0 0  2.025 0 0  2.0375 0 0  2.05 0 0  2.0625 0 0  2.075 0 0  2.0875 0 0  2.1 0 0  2.1125 0 0  2.125 0 0  2.1375 0 0  2.15 0 0  2.1625 0 0  2.175 0 0  2.1875 0 0  2.2 0 0  2.2125 0 0  2.225 0 0  2.2375 0 0  2.25 0 0  2.2625 0 0  2.275 0 0  2.2875 0 0  2.3 0 0  2.3125 0 0  2.325 0 0  2.3375 0 0  2.35 0 0  2.3625 0 0  2.375 0 0  2.3875 0 0  2.4 0 0  2.4125 0 0  2.425 0 0  2.4375 0 0  2.45 0 0  2.4625 0 0  2.475 0 0  2.4875 0 0  2.5 0 0  2.5125 0 0  2.525 0 0  2.5375 0 0  2.55 0 0  2.5625 0 0  2.575 0 0  2.5875 0 0  2.6 0 0  2.6125 0 0  2.625 0 0  2.6375 0 0  2.65 0 0  2.6625 0 0  2.675 0 0  2.6875 0 0  2.7 0 0  2.7125 0 0  2.725 0 0  2.7375 0 0  2.75 0 0  2.7625 0 0  2.775 0 0  2.7875 0 0  2.8 0 0  2.8125 0 0  2.825 0 0  2.8375 0 0  2.85 0 0  2.8625 0 0  2.875 0 0  2.8875 0 0  2.9 0 0  2.9125 0 0  2.925 0 0  2.9375 0 0  2.95 0 0  2.9625 0 0  2.975 0 0  2.9875 0 0  3 0 0  3.012499999999999 0 0  3.025 0 0  3.0375 0 0  3.050000000000001 0 0  3.0625 0 0  3.074999999999999 0 0  3.0875 0 0  3.1 0 0  3.112500000000001 0 0  3.125 0 0  3.137499999999999 0 0  3.15 0 0  3.1625 0 0  3.175000000000001 0 0  3.1875 0 0  3.199999999999999 0 0  3.2125 0 0  3.225 0 0  3.237500000000001 0 0  3.25 0 0  3.262499999999999 0 0  3.275 0 0  3.2875 0 0  3.300000000000001 0 0  3.3125 0 0  3.324999999999999 0 0  3.3375 0 0  3.35 0 0  3.362500000000001 0 0  3.375 0 0  3.387499999999999 0 0  3.4 0 0  3.4125 0 0  3.425000000000001 0 0  3.4375 0 0  3.449999999999999 0 0  3.4625 0 0  3.475 0 0  3.4875
[...]
<PointData  Vectors="(h, u)"> 
<DataArray  type="Float64"  Name="(h, u)"  NumberOfComponents="3" format="ascii">1.7160543331259323e-01 0.0000000000000000e+00 0.0000000000000000e+00  1.7152350785287099e-01 5.4181620434459853e-03 0.0000000000000000e+00  1.7160356281424502e-01 1.0833637031843531e-02 0.0000000000000000e+00  1.7152007281276221e-01 1.6254725268487688e-02 0.0000000000000000e+00  1.7159795364716635e-01 2.1667706387379179e-02 0.0000000000000000e+00  1.7151318811673913e-01 2.7092015847920002e-02 0.0000000000000000e+00  1.7158861313365814e-01 3.2502642122780992e-02 0.0000000000000000e+00  1.7150282608580769e-01 3.7930547921322000e-02 0.0000000000000000e+00  1.7157555441839817e-01 4.3338877268036848e-02 0.0000000000000000e+00  1.7148894872923295e-01 4.8770867737145465e-02 0.0000000000000000e+00  1.7155879725371323e-01 5.4176835384530726e-02 0.0000000000000000e+00  1.7147151104103242e-01 5.9613548864378411e-02 0.0000000000000000e+00  1.7153836797752958e-01 6.5016920047221913e-02 0.0000000000000000e+00  1.7145046403944494e-01 7.0459180375198313e-02 0.0000000000000000e+00  1.7151429792802736e-01 7.5859509368661676e-02 0.0000000000000000e+00  1.7142575687568151e-01 8.1308354653818207e-02 0.0000000000000000e+00  1.7148661990105982e-01 8.6704962469734248e-02 0.0000000000000000e+00  1.7139733780330677e-01 9.2161660074602886e-02 0.0000000000000000e+00  1.7145536295550121e-01 9.7553640219032789e-02 0.0000000000000000e+00  1.7136515448414819e-01 1.0301967879947559e-01 0.0000000000000000e+00  1.7142054667499421e-01 1.0840593547876164e-01 0.0000000000000000e+00  1.7132915468186558e-01 1.1388298430043357e-01 0.0000000000000000e+00  1.7138217648906440e-01 1.1926230234441147e-01 0.0000000000000000e+00  1.7128928844000318e-01 1.2475213094479304e-01 0.0000000000000000e+00  1.7134024144911195e-01 1.3012327331325696e-01 0.0000000000000000e+00  1.7124551210741368e-01 1.3562763181878759e-01 0.0000000000000000e+00  1.7129471486048811e-01 1.4098945931325899e-01 0.0000000000000000e+00  1.7119779324596135e-01 1.4650993004693019e-01 0.0000000000000000e+00  1.7124555680571529e-01 1.5186153726527857e-01 0.0000000000000000e+00  1.7114611421686440e-01 1.5739937816830629e-01 0.0000000000000000e+00  1.7119271667329686e-01 1.6274023710993094e-01 0.0000000000000000e+00  1.7109047199295338e-01 1.6829624266684154e-01 0.0000000000000000e+00  1.7113613410839332e-01 1.7362633882407597e-01 0.0000000000000000e+00  1.7103087302597408e-01 1.7920074206366679e-01 0.0000000000000000e+00  1.7107573844412566e-01 1.8452067858675830e-01 0.0000000000000000e+00  1.7096732442211482e-01 1.9011310962563524e-01 0.0000000000000000e+00  1.7101144873505475e-01 1.9542414854295245e-01 0.0000000000000000e+00  1.7089982484669577e-01 2.0103365602249321e-01 0.0000000000000000e+00  1.7094317736756171e-01 2.0633766867610900e-01 0.0000000000000000e+00  1.7082835882413516e-01 2.1196280565650699e-01 0.0000000000000000e+00  1.7087083862160510e-01 2.1726212149996621e-01 0.0000000000000000e+00  1.7075289577004313e-01 2.2290109785181569e-01 0.0000000000000000e+00  1.7079435989034658e-01 2.2819826778275326e-01 0.0000000000000000e+00  1.7067339150335745e-01 2.3384917081181417e-01 0.0000000000000000e+00  1.7071368992281119e-01 2.3914668635917605e-01 0.0000000000000000e+00  1.7058978802551730e-01 2.4480776055185563e-01 0.0000000000000000e+00  1.7062879851490864e-01 2.5010778015624019e-01 0.0000000000000000e+00  1.7050200934260379e-01 2.5577773146927318e-01 0.0000000000000000e+00  1.7053966662896319e-01 2.6108185570208869e-01 0.0000000000000000e+00  1.7040995628120953e-01 2.6676011570031066e-01 0.0000000000000000e+00  1.7044627232817319e-01 2.7206923467478478e-01 0.0000000000000000e+00  1.7031350741616988e-01 2.7775610671915324e-01 0.0000000000000000e+00  1.7034858102803724e-01 2.8307033243107693e-01 0.0000000000000000e+00  1.7021253155811408e-01 2.8876696533582963e-01 0.0000000000000000e+00  1.7024654468072206e-01 2.9408566802516595e-01 0.0000000000000000e+00  1.7010690882874699e-01 2.9979386023963350e-01 0.0000000000000000e+00  1.7014010570198956e-01 3.0511583717406526e-01 0.0000000000000000e+00  1.6999654813336235e-01 3.1083773537451215e-01 0.0000000000000000e+00  1.7002919582449874e-01 3.1616152248342638e-01 0.0000000000000000e+00  1.6988138801446681e-01 3.2189930297747382e-01 0.0000000000000000e+00  1.6991372467877913e-01 3.2722358037263899e-01 0.0000000000000000e+00  1.6976137889016524e-01 3.3297917776796276e-01 0.0000000000000000e+00  1.6979356583363783e-01 3.3830314607343520e-01 0.0000000000000000e+00  1.6963646027479234e-01 3.4407804959471289e-01 0.0000000000000000e+00  1.6966855760048133e-01 3.4940162533783309e-01 0.0000000000000000e+00  1.6950655200285417e-01 3.5519675069916656e-01 0.0000000000000000e+00  1.6953852841117295e-01 3.6052049824747806e-01 0.0000000000000000e+00  1.6937156416340526e-01 3.6633618240364457e-01 0.0000000000000000e+00  1.6940333301242380e-01 3.7166103942020856e-01 0.0000000000000000e+00  1.6923140835299008e-01 3.7749723388985157e-01 0.0000000000000000e+00  1.6926286907713189e-01 3.8282418541379687e-01 0.0000000000000000e+00  1.6908598826626961e-01 3.8868086063813934e-01 0.0000000000000000e+00  1.6911705526292409e-01 3.9401069340123818e-01 0.0000000000000000e+00  1.6893517017231879e-01 3.9988831875190817e-01 0.0000000000000000e+00  1.6896578753401870e-01 4.0522146316013652e-01 0.0000000000000000e+00  1.6877876649059700e-01 4.1112130253702334e-01 0.0000000000000000e+00  1.6880891900734690e-01 4.1645767797690281e-01 0.0000000000000000e+00  1.6861656714189546e-01 4.2238172083378711e-01 0.0000000000000000e+00  1.6864628587952649e-01 4.2772059297109066e-01 0.0000000000000000e+00  1.6844840161629071e-01 4.3367124068959517e-01 0.0000000000000000e+00  1.6847774321059533e-01 4.3901124763542415e-01 0.0000000000000000e+00  1.6827416893237293e-01 4.4499107520085041e-01 0.0000000000000000e+00  1.6830315647719180e-01 4.5033051682041508e-01 0.0000000000000000e+00  1.6809379444685318e-01 4.5634232624886389e-01 0.0000000000000000e+00  1.6812234146953639e-01 4.6167956011283551e-01 0.0000000000000000e+00  1.6790714893944675e-01 4.6772660925871262e-01 0.0000000000000000e+00  1.6793502444156166e-01 4.7306012496142619e-01 0.0000000000000000e+00  1.6771403572557519e-01 4.7914614901791797e-01 0.0000000000000000e+00  1.6774090610617423e-01 4.8447406906994178e-01 0.0000000000000000e+00  1.6751427974255062e-01 4.9060308208969805e-01 0.0000000000000000e+00  1.6753976801295400e-01 4.9592257463101419e-01 0.0000000000000000e+00  1.6730779415285360e-01 5.0209891176016763e-01 0.0000000000000000e+00  1.6733148140789883e-01 5.0740612688439723e-01 0.0000000000000000e+00  1.6709452702945957e-01 5.1363485843282874e-01 0.0000000000000000e+00  1.6711589534005811e-01 5.1892543781113598e-01 0.0000000000000000e+00  1.6687432556054460e-01 5.2521282078532716e-01 0.0000000000000000e+00  1.6689272027462057e-01 5.3048242559866576e-01 0.0000000000000000e+00  1.6664690295531523e-01 5.3683553391306427e-01 0.0000000000000000e+00  1.6666163674279472e-01 5.4207948625332658e-01 0.0000000000000000e+00  1.6641204994885778e-01 5.4850484194815674e-01 0.0000000000000000e+00  1.6642253871638568e-01 5.5371773705859606e-01 0.0000000000000000e+00  1.6616974958075567e-01 5.6022070895211362e-01 0.0000000000000000e+00  1.6617549663901379e-01 5.6539740188544751e-01 0.0000000000000000e+00  1.6591999214348202e-01 5.7198254219294098e-01 0.0000000000000000e+00  1.6592054782769250e-01 5.7711950201451545e-01 0.0000000000000000e+00  1.6566257385559582e-01 5.8379067200090939e-01 0.0000000000000000e+00  1.6565755581129191e-01 5.8888698491906377e-01 0.0000000000000000e+00  1.6539708642291309e-01 5.9564641119245176e-01 0.0000000000000000e+00  1.6538646019533015e-01 6.0070280103489071e-01 0.0000000000000000e+00  1.6512345025359895e-01 6.0754798687550937e-01 0.0000000000000000e+00  1.6510781678616049e-01 6.1256568049641447e-01 0.0000000000000000e+00  1.6484205622894868e-01 6.1948953924959371e-01 0.0000000000000000e+00  1.6482232067281974e-01 6.2447367236497364e-01 0.0000000000000000e+00  1.6455302779266673e-01 6.3146695915116846e-01 0.0000000000000000e+00  1.6453034643865611e-01 6.3642750110896595e-01 0.0000000000000000e+00  1.6425633055950309e-01 6.4347725786699428e-01 0.0000000000000000e+00  1.6423227365670626e-01 6.4842782514205866e-01 0.0000000000000000e+00  1.6395205287472142e-01 6.5551665315367535e-01 0.0000000000000000e+00  1.6392886078047136e-01 6.6047208522416934e-01 0.0000000000000000e+00  1.6364131060421641e-01 6.6757383537612425e-01 0.0000000000000000e+00  1.6362216743758981e-01 6.7254709871322738e-01 0.0000000000000000e+00  1.6332595996881696e-01 6.7963242247747224e-01 0.0000000000000000e+00  1.6331342905472362e-01 6.8464525503763041e-01 0.0000000000000000e+00  1.6300628587128305e-01 6.9168905825348959e-01 0.0000000000000000e+00  1.6300306777839260e-01 6.9676425826445021e-01 0.0000000000000000e+00  1.6268376730708467e-01 7.0373215089058172e-01 0.0000000000000000e+00  1.6269334032747812e-01 7.0888649419283112e-01 0.0000000000000000e+00  1.6236089752709254e-01 7.1574331196285335e-01 0.0000000000000000e+00  1.6238640474489741e-01 7.2099398194463926e-01 0.0000000000000000e+00  1.6204084426818965e-01 7.2769994268857585e-01 0.0000000000000000e+00  1.6208560997172225e-01 7.3305842062138837e-01 0.0000000000000000e+00  1.6172613541890268e-01 7.3958533607355892e-01 0.0000000000000000e+00  1.6179031511354738e-01 7.4508163318055987e-01 0.0000000000000000e+00  1.6141625392294140e-01 7.5140721241361430e-01 0.0000000000000000e+00  1.6150307603639624e-01 7.5703988533299715e-01 0.0000000000000000e+00  1.6111845629276766e-01 7.6311325884421422e-01 0.0000000000000000e+00  1.6122926224310727e-01 7.6888710715125153e-01 0.0000000000000000e+00  1.6083323580844658e-01 7.7470407092859239e-01 0.0000000000000000e+00  1.6096616104970810e-01 7.8064009839564086e-01 0.0000000000000000e+00  1.6056193607869770e-01 7.8617356484246392e-01 0.0000000000000000e+00  1.6071715448895468e-01 7.9226827331814886e-01 0.0000000000000000e+00  1.6030536009035570e-01 7.9751961092913681e-01 0.0000000000000000e+00  1.6048039475969586e-01 8.0378227103470268e-01 0.0000000000000000e+00  1.6006806226849746e-01 8.0871024243083278e-01 0.0000000000000000e+00  1.6026447398754826e-01 8.1511171331067189e-01 0.0000000000000000e+00  1.5984885697563544e-01 8.1975778508054886e-01 0.0000000000000000e+00  1.6005483484444841e-01 8.2636798098501951e-01 0.0000000000000000e+00  1.5964158720763799e-01 8.3071271183602613e-01 0.0000000000000000e+00  1.5986673397036724e-01 8.3742984985601199e-01 0.0000000000000000e+00  1.5946010331969021e-01 8.4146818092111297e-01 0.0000000000000000e+00  1.5968830027565856e-01 8.4838933446580733e-01 0.0000000000000000e+00  1.5928657130704080e-01 8.5216484987912333e-01 0.0000000000000000e+00  1.5952541900452979e-01 8.5919990043090777e-01 0.0000000000000000e+00  1.5913287932676015e-01 8.6270984028605635e-01 0.0000000000000000e+00  1.5936879377249413e-01 8.6993469738462170e-01 0.0000000000000000e+00  1.5899234969133152e-01 8.7315531958918635e-01 0.0000000000000000e+00  1.5923581788949101e-01 8.8045792188531191e-01 0.0000000000000000e+00  1.5886319793726628e-01 8.8351485077234593e-01 0.0000000000000000e+00  1.5909144248694343e-01 8.9104562217256222e-01 0.0000000000000000e+00  1.5874855530679621e-01 8.9376288098243839e-01 0.0000000000000000e+00  1.5898468184834033e-01 9.0131415190215958e-01 0.0000000000000000e+00  1.5863927793389257e-01 9.0397054303724755e-01 0.0000000000000000e+00  1.5885505513915579e-01 9.1173977376482473e-01 0.0000000000000000e+00  1.5855015765716579e-01 9.1402034619989758e-01 0.0000000000000000e+00  1.5875859094462977e-01 9.2188361987897494e-01 0.0000000000000000e+00  1.5845078147479630e-01 9.2415065413234199e-01 0.0000000000000000e+00  1.5865906454352519e-01 9.3203146728119202e-01 0.0000000000000000e+00  1.5838325436345935e-01 9.3402934266820603e-01 0.0000000000000000e+00  1.5854920964708938e-01 9.4224176715194674e-01 0.0000000000000000e+00  1.5830352444177326e-01 9.4400203113593451e-01 0.0000000000000000e+00  1.5849061013340371e-01 9.5203110090735965e-01 0.0000000000000000e+00  1.5822245034439122e-01 9.5398291205273156e-01 0.0000000000000000e+00  1.5837794870936167e-01 9.6222877267304685e-01 0.0000000000000000e+00  1.5819367367993248e-01 9.6354867936458244e-01 0.0000000000000000e+00  1.5830792550003531e-01 9.7207513986442728e-01 0.0000000000000000e+00  1.5809371272992243e-01 9.7367125255384646e-01 0.0000000000000000e+00  1.5826267048709736e-01 9.8171101990224696e-01 0.0000000000000000e+00  1.5804560862130734e-01 9.8338134653975273e-01 0.0000000000000000e+00  1.5815811677762276e-01 9.9179922509477025e-01 0.0000000000000000e+00  1.5803269450831281e-01 9.9280932668957811e-01 0.0000000000000000e+00  1.5808310753568650e-01 1.0016411944698169e+00 0.0000000000000000e+00  1.5793584082575476e-01 1.0028933672358693e+00 0.0000000000000000e+00  1.5809932417334974e-01 1.0107512798761915e+00 0.0000000000000000e+00  1.5784684058656279e-01 1.0129103085126834e+00 0.0000000000000000e+00  1.5800241065882931e-01 1.0207397673808749e+00 0.0000000000000000e+00  1.5788835861836081e-01 1.0218922130103749e+00 0.0000000000000000e+00  1.5787421192091536e-01 1.0309634917958723e+00 0.0000000000000000e+00  1.5786138031670660e-01 1.0314068804411614e+00 0.0000000000000000e+00  1.5786289077845858e-01 1.0402554668279829e+00 0.0000000000000000e+00  1.5773093669700616e-01 1.0417300080495042e+00 0.0000000000000000e+00  1.5791652434820738e-01 1.0490250866430189e+00 0.0000000000000000e+00  1.5762461907727199e-01 1.0518552349633863e+00 0.0000000000000000e+00  1.5783290598201175e-01 1.0588671062329029e+00 0.0000000000000000e+00  1.5773767836639380e-01 1.0602414386536134e+00 0.0000000000000000e+00  1.5754598235108241e-01 1.0703045656298102e+00 0.0000000000000000e+00  1.5796958445719486e-01 1.0676791613030281e+00 0.0000000000000000e+00  1.5722953559003824e-01 1.0819691664610871e+00 0.0000000000000000e+00  1.5818007461827455e-01 1.0752736346545622e+00 0.0000000000000000e+00  1.5697389509467760e-01 1.0931500716243878e+00 0.0000000000000000e+00  1.5828433152081386e-01 1.0836930002696665e+00 0.0000000000000000e+00  1.5686853459672892e-01 1.1031424974576396e+00 0.0000000000000000e+00  1.5824233640424956e-01 1.0932522787138204e+00 0.0000000000000000e+00  1.5686826312497720e-01 1.1123035544552362e+00 0.0000000000000000e+00  1.5814896156590147e-01 1.1032019221624105e+00 0.0000000000000000e+00  1.5689781211862633e-01 1.1212285243616102e+00 0.0000000000000000e+00  1.5802298030777026e-01 1.1133921892575591e+00 0.0000000000000000e+00  1.5696384385538467e-01 1.1298663676920746e+00 0.0000000000000000e+00  1.5788180383251982e-01 1.1236841864474580e+00 0.0000000000000000e+00  1.5701360824443711e-01 1.1386352029878979e+00 0.0000000000000000e+00  1.5777817036682376e-01 1.1336598417171411e+00 0.0000000000000000e+00  1.5703133413316325e-01 1.1476617608351667e+00 0.0000000000000000e+00  1.5768567219690102e-01 1.1435254160351425e+00 0.0000000000000000e+00  1.5705565967624552e-01 1.1566431180470487e+00 0.0000000000000000e+00  1.5758756151752099e-01 1.1534111304884724e+00 0.0000000000000000e+00  1.5707131583008047e-01 1.1657019161269384e+00 0.0000000000000000e+00  1.5751269237078364e-01 1.1630870614063420e+00 0.0000000000000000e+00  1.5705980089804536e-01 1.1749866202460530e+00 0.0000000000000000e+00  1.5745522673753146e-01 1.1725969755230481e+00 0.0000000000000000e+00  1.5704572613311490e-01 1.1843052358103603e+00 0.0000000000000000e+00  1.5738899807645118e-01 1.1821453542457305e+00 0.0000000000000000e+00  1.5704332643715130e-01 1.1935474743985892e+00 0.0000000000000000e+00  1.5731664708486751e-01 1.1917094293538006e+00 0.0000000000000000e+00  1.5703850927582261e-01 1.2028266486235584e+00 0.0000000000000000e+00  1.5725350387439294e-01 1.2011663567278681e+00 0.0000000000000000e+00  1.5702169727777757e-01 1.2122201854093604e+00 0.0000000000000000e+00  1.5719974852867064e-01 1.2105133149977039e+00 0.0000000000000000e+00  1.5699970442279246e-01 1.2216754471283637e+00 0.0000000000000000e+00  1.5714535256517118e-01 1.2198288790801572e+00 0.0000000000000000e+00  1.5698155072397249e-01 1.2311214065779921e+00 0.0000000000000000e+00  1.5708473010863000e-01 1.2291576457065185e+00 0.0000000000000000e+00  1.5696878667123215e-01 1.2405447477523064e+00 0.0000000000000000e+00  1.5701958078898365e-01 1.2384881398173135e+00 0.0000000000000000e+00  1.5695777831251650e-01 1.2499714095782717e+00 0.0000000000000000e+00  1.5695400227200645e-01 1.2477918926837372e+00 0.0000000000000000e+00  1.5694476003565916e-01 1.2594261440416847e+00 0.0000000000000000e+00  1.5689074264221214e-01 1.2570536171521192e+00 0.0000000000000000e+00  1.5692789813379168e-01 1.2689156189806861e+00 0.0000000000000000e+00  1.5683065499333129e-01 1.2662761235782785e+00 0.0000000000000000e+00  1.5690687033675968e-01 1.2784311443856751e+00 0.0000000000000000e+00  1.5677362506860387e-01 1.2754735665907164e+00 0.0000000000000000e+00  1.5688181444461027e-01 1.2879564488594752e+00 0.0000000000000000e+00  1.5671949247012279e-01 1.2846646387770786e+00 0.0000000000000000e+00  1.5685263294014265e-01 1.2974727866140441e+00 0.0000000000000000e+00  1.5666856583757144e-01 1.2938687820031107e+00 0.0000000000000000e+00  1.5681858327500209e-01 1.3069620274774902e+00 0.0000000000000000e+00  1.5662187181539541e-01 1.3031042057024429e+00 0.0000000000000000e+00  1.5677827084207310e-01 1.3164069143274313e+00 0.0000000000000000e+00  1.5658103471977439e-01 1.3123884155491590e+00 0.0000000000000000e+00  1.5672967836379639e-01 1.3257914946117233e+00 0.0000000000000000e+00  1.5654822408208477e-01 1.3217376844372859e+00 0.0000000000000000e+00  1.5667067910210303e-01 1.3350982878389448e+00 0.0000000000000000e+00  1.5652518865282591e-01 1.3311731464137326e+00 0.0000000000000000e+00  1.5659960477402235e-01 1.3443056412736902e+00 0.0000000000000000e+00  1.5651370249040750e-01 1.3407150744037561e+00 0.0000000000000000e+00  1.5651447137265853e-01 1.3533963477364377e+00 0.0000000000000000e+00  1.5651603477327369e-01 1.3503763519312482e+00 0.0000000000000000e+00  1.5641075915182456e-01 1.3623782683121242e+00 0.0000000000000000e+00  1.5654302742336559e-01 1.3600952683162781e+00 0.0000000000000000e+00  1.5626658912671668e-01 1.3714051591049907e+00 0.0000000000000000e+00  1.5663059922519501e-01 1.3696013751314213e+00 0.0000000000000000e+00  1.5603092903209315e-01 1.3808737455464635e+00 0.0000000000000000e+00  1.5684664054342354e-01 1.3783578873301503e+00 0.0000000000000000e+00  1.5562193266791244e-01 1.3914403933323320e+00 0.0000000000000000e+00  1.5727209889825158e-01 1.3857100464536889e+00 0.0000000000000000e+00  1.5500219853551020e-01 1.4034268721500669e+00 0.0000000000000000e+00  1.5784922532046378e-01 1.3920862877083164e+00 0.0000000000000000e+00  1.5435800756177095e-01 1.4153937694639804e+00 0.0000000000000000e+00  1.5828656538187469e-01 1.3997495135153581e+00 0.0000000000000000e+00  1.5398494816312042e-01 1.4250356266380497e+00 0.0000000000000000e+00  1.5839209611033789e-01 1.4101686684778081e+00 0.0000000000000000e+00  1.5389058171513786e-01 1.4323355446472010e+00 0.0000000000000000e+00  1.5832833819989506e-01 1.4220138432525378e+00 0.0000000000000000e+00  1.5384073037295246e-01 1.4391988348778422e+00 0.0000000000000000e+00  1.5829745070527465e-01 1.4336476652529120e+00 0.0000000000000000e+00  1.5373765145258356e-01 1.4464389770707002e+00 0.0000000000000000e+00  1.5829815615263879e-01 1.4450486681813250e+00 0.0000000000000000e+00  1.5363053234731378e-01 1.4536914429737102e+00 0.0000000000000000e+00  1.5828391835988681e-01 1.4565605604152607e+00 0.0000000000000000e+00  1.5353691990394464e-01 1.4608408471234517e+00 0.0000000000000000e+00  1.5826254615113003e-01 1.4680936681395909e+00 0.0000000000000000e+00  1.5343968757732301e-01 1.4680599596013704e+00 0.0000000000000000e+00  1.5823663192382767e-01 1.4795789785997631e+00 0.0000000000000000e+00  1.5332911457612136e-01 1.4754913480610932e+00 0.0000000000000000e+00  1.5819674419235530e-01 1.4910080796859533e+00 0.0000000000000000e+00  1.532331