<?xml version="1.0"?>
<VTKFile type="UnstructuredGrid"  version="0.1"  >
<UnstructuredGrid>
<Piece  NumberOfPoints="801" NumberOfCells="800">
<Points>
<DataArray  type="Float64"  NumberOfComponents="3"  format="ascii">-5 0 0  -4.9875 0 0  -4.975 0 0  -4.9625 0 0  -4.95 0 0  -4.9375 0 0  -4.925 0 0  -4.9125 0 0  -4.9 0 0  -4.8875 0 0  -4.875 0 0  -4.8625 0 0  -4.85 0 0  -4.8375 0 0  -4.825 0 0  -4.8125 0 0  -4.8 0 0  -4.7875 0 0  -4.775 0 0  -4.7625 0 0  -4.75 0 0  -4.7375 0 0  -4.725 0 0  -4.7125 0 0  -4.7 0 0  -4.6875 0 0  -4.675 0 0  -4.6625 0 0  -4.65 0 0  -4.6375 0 0  -4.625 0 0  -4.6125 0 0  -4.6 0 0  -4.5875 0 0  -4.575 0 0  -4.5625 0 0  -4.55 0 0  -4.5375 0 0  -4.525 0 0  -4.5125 0 0  -4.5 0 0  -4.4875 0 0  -4.475 0 0  -4.4625 0 0  -4.45 0 0  -4.4375 0 0  -4.425 0 0  -4.4125 0 0  -4.4 0 0  -4.3875 0 0  -4.375 0 0  -4.3625 0 0  -4.35 0 0  -4.3375 0 0  -4.325 0 0  -4.3125 0 0  -4.3 0 0  -4.2875 0 0  -4.275 0 0  -4.2625 0 0  -4.25 0 0  -4.2375 0 0  -4.225 0 0  -4.2125 0 0  -4.2 0 0  -4.1875 0 0  -4.175 0 0  -4.1625 0 0  -4.15 0 0  -4.1375 0 0  -4.125 0 0  -4.1125 0 0  -4.1 0 0  -4.0875 0 0  -4.075 0 0  -4.0625 0 0  -4.05 0 0  -4.0375 0 0  -4.025 0 0  -4.0125 0 0  -4 0 0  -3.9875 0 0  -3.975 0 0  -3.9625 0 0  -3.95 0 0  -3.9375 0 0  -3.925 0 0  -3.9125 0 0  -3.9 0 0  -3.8875 0 0  -3.875 0 0  -3.8625 0 0  -3.85 0 0  -3.8375 0 0  -3.825 0 0  -3.8125 0 0  -3.8 0 0  -3.7875 0 0  -3.775 0 0  -3.7625 0 0  -3.75 0 0  -3.7375 0 0  -3.725 0 0  -3.7125 0 0  -3.7 0 0  -3.6875 0 0  -3.675 0 0  -3.6625 0 0  -3.65 0 0  -3.6375 0 0  -3.625 0 0  -3.6125 0 0  -3.6 0 0  -3.5875 0 0  -3.575 0 0  -3.5625 0 0  -3.55 0 0  -3.5375 0 0  -3.525 0 0  -3.5125 0 0  -3.5 0 0  -3.4875 0 0  -3.475 0 0  -3.4625 0 0  -3.45 0 0  -3.4375 0 0  -3.425 0 0  -3.4125 0 0  -3.4 0 0  -3.3875 0 0  -3.375 0 0  -3.3625 0 0  -3.35 0 0  -3.3375 0 0  -3.325 0 0  -3.3125 0 0  -3.3 0 0  -3.2875 0 0  -3.275 0 0  -3.2625 0 0  -3.25 0 0  -3.2375 0 0  -3.225 0 0  -3.2125 0 0  -3.2 0 0  -3.1875 0 0  -3.175 0 0  -3.1625 0 0  -3.15 0 0  -3.1375 0 0  -3.125 0 0  -3.1125 0 0  -3.1 0 0  -3.0875 0 0  -3.075 0 0  -3.0625 0 0  -3.05 0 0  -3.0375 0 0  -3.025 0 0  -3.0125 0 0  -3 0 0  -2.9875 0 0  -2.975 0 0  -2.9625 0 0  -2.95 0 0  -2.9375 0 0  -2.925 0 0  -2.9125 0 0  -2.9 0 0  -2.8875 0 0  -2.875 0 0  -2.8625 0 0  -2.85 0 0  -2.8375 0 0  -2.825 0 0  -2.8125 0 0  -2.8 0 0  -2.7875 0 0  -2.775 0 0  -2.7625 0 0  -2.75 0 0  -2.7375 0 0  -2.725 0 0  -2.7125 0 0  -2.7 0 0  -2.6875 0 0  -2.675 0 0  -2.6625 0 0  -2.65 0 0  -2.6375 0 0  -2.625 0 0  -2.6125 0 0  -2.6 0 0  -2.5875 0 0  -2.575 0 0  -2.5625 0 0  -2.55 0 0  -2.5375 0 0  -2.525 0 0  -2.5125 0 0  -2.5 0 0  -2.4875 0 0  -2.475 0 0  -2.4625 0 0  -2.45 0 0  -2.4375 0 0  -2.425 0 0  -2.4125 0 0  -2.4 0 0  -2.3875 0 0  -2.375 0 0  -2.3625 0 0  -2.35 0 0  -2.3375 0 0  -2.325 0 0  -2.3125 0 0  -2.3 0 0  -2.2875 0 0  -2.275 0 0  -2.2625 0 0  -2.25 0 0  -2.2375 0 0  -2.225 0 0  -2.2125 0 0  -2.2 0 0  -2.1875 0 0  -2.175 0 0  -2.1625 0 0  -2.15 0 0  -2.1375 0 0  -2.125 0 0  -2.1125 0 0  -2.1 0 0  -2.0875 0 0  -2.075 0 0  -2.0625 0 0  -2.05 0 0  -2.0375 0 0  -2.025 0 0  -2.0125 0 0  -2 0 0  -1.9875 0 0  -1.975 0 0  -1.9625 0 0  -1.95 0 0  -1.9375 0 0  -1.925 0 0  -1.9125 0 0  -1.9 0 0  -1.8875 0 0  -1.875 0 0  -1.8625 0 0  -1.85 0 0  -1.8375 0 0  -1.825 0 0  -1.8125 0 0  -1.8 0 0  -1.7875 0 0  -1.775 0 0  -1.7625 0 0  -1.75 0 0  -1.7375 0 0  -1.725 0 0  -1.7125 0 0  -1.7 0 0  -1.6875 0 0  -1.675 0 0  -1.6625 0 0  -1.65 0 0  -1.6375 0 0  -1.625 0 0  -1.6125 0 0  -1.6 0 0  -1.5875 0 0  -1.575 0 0  -1.5625 0 0  -1.55 0 0  -1.5375 0 0  -1.525 0 0  -1.5125 0 0  -1.5 0 0  -1.4875 0 0  -1.475 0 0  -1.4625 0 0  -1.45 0 0  -1.4375 0 0  -1.425 0 0  -1.4125 0 0  -1.4 0 0  -1.3875 0 0  -1.375 0 0  -1.3625 0 0  -1.35 0 0  -1.3375 0 0  -1.325 0 0  -1.3125 0 0  -1.3 0 0  -1.2875 0 0  -1.275 0 0  -1.2625 0 0  -1.25 0 0  -1.2375 0 0  -1.225 0 0  -1.2125 0 0  -1.2 0 0  -1.1875 0 0  -1.175 0 0  -1.1625 0 0  -1.15 0 0  -1.1375 0 0  -1.125 0 0  -1.1125 0 0  -1.1 0 0  -1.0875 0 0  -1.075 0 0  -1.0625 0 0  -1.05 0 0  -1.0375 0 0  -1.025 0 0  -1.0125 0 0  -1 0 0  -0.9874999999999998 0 0  -0.9749999999999996 0 0  -0.9625000000000004 0 0  -0.9500000000000002 0 0  -0.9375 0 0  -0.9249999999999998 0 0  -0.9124999999999996 0 0  -0.9000000000000004 0 0  -0.8875000000000002 0 0  -0.875 0 0  -0.8624999999999998 0 0  -0.8499999999999996 0 0  -0.8375000000000004 0 0  -0.8250000000000002 0 0  -0.8125 0 0  -0.7999999999999998 0 0  -0.7874999999999996 0 0  -0.7750000000000004 0 0  -0.7625000000000002 0 0  -0.75 0 0  -0.7374999999999998 0 0  -0.7249999999999996 0 0  -0.7125000000000004 0 0  -0.7000000000000002 0 0  -0.6875 0 0  -0.6749999999999998 0 0  -0.6624999999999996 0 0  -0.6500000000000004 0 0  -0.6375000000000002 0 0  -0.625 0 0  -0.6124999999999998 0 0  -0.5999999999999996 0 0  -0.5875000000000004 0 0  -0.5750000000000002 0 0  -0.5625 0 0  -0.5499999999999998 0 0  -0.5374999999999996 0 0  -0.5250000000000004 0 0  -0.5125000000000002 0 0  -0.5 0 0  -0.4874999999999998 0 0  -0.4749999999999996 0 0  -0.4625000000000004 0 0  -0.4500000000000002 0 0  -0.4375 0 0  -0.4249999999999998 0 0  -0.4124999999999996 0 0  -0.4000000000000004 0 0  -0.3875000000000002 0 0  -0.375 0 0  -0.3624999999999998 0 0  -0.3499999999999996 0 0  -0.3375000000000004 0 0  -0.3250000000000002 0 0  -0.3125 0 0  -0.2999999999999998 0 0  -0.2874999999999996 0 0  -0.2750000000000004 0 0  -0.2625000000000002 0 0  -0.25 0 0  -0.2374999999999998 0 0  -0.2249999999999996 0 0  -0.2125000000000004 0 0  -0.2000000000000002 0 0  -0.1875 0 0  -0.1749999999999998 0 0  -0.1624999999999996 0 0  -0.1500000000000004 0 0  -0.1375000000000002 0 0  -0.125 0 0  -0.1124999999999998 0 0  -0.09999999999999964 0 0  -0.08750000000000036 0 0  -0.07500000000000018 0 0  -0.0625 0 0  -0.04999999999999982 0 0  -0.03749999999999964 0 0  -0.02500000000000036 0 0  -0.01250000000000018 0 0  0 0 0  0.01250000000000018 0 0  0.02500000000000036 0 0  0.03749999999999964 0 0  0.04999999999999982 0 0  0.0625 0 0  0.07500000000000018 0 0  0.08750000000000036 0 0  0.09999999999999964 0 0  0.1124999999999998 0 0  0.125 0 0  0.1375000000000002 0 0  0.1500000000000004 0 0  0.1624999999999996 0 0  0.1749999999999998 0 0  0.1875 0 0  0.2000000000000002 0 0  0.2125000000000004 0 0  0.2249999999999996 0 0  0.2374999999999998 0 0  0.25 0 0  0.2625000000000002 0 0  0.2750000000000004 0 0  0.2874999999999996 0 0  0.2999999999999998 0 0  0.3125 0 0  0.3250000000000002 0 0  0.3375000000000004 0 0  0.3499999999999996 0 0  0.3624999999999998 0 0  0.375 0 0  0.3875000000000002 0 0  0.4000000000000004 0 0  0.4124999999999996 0 0  0.4249999999999998 0 0  0.4375 0 0  0.4500000000000002 0 0  0.4625000000000004 0 0  0.4749999999999996 0 0  0.4874999999999998 0 0  0.5 0 0  0.5125000000000002 0 0  0.5250000000000004 0 0  0.5374999999999996 0 0  0.5499999999999998 0 0  0.5625 0 0  0.5750000000000002 0 0  0.5875000000000004 0 0  0.5999999999999996 0 0  0.6124999999999998 0 0  0.625 0 0  0.6375000000000002 0 0  0.6500000000000004 0 0  0.6624999999999996 0 0  0.6749999999999998 0 0  0.6875 0 0  0.7000000000000002 0 0  0.7125000000000004 0 0  0.7249999999999996 0 0  0.7374999999999998 0 0  0.75 0 0  0.7625000000000002 0 0  0.7750000000000004 0 0  0.7874999999999996 0 0  0.7999999999999998 0 0  0.8125 0 0  0.8250000000000002 0 0  0.8375000000000004 0 0  0.8499999999999996 0 0  0.8624999999999998 0 0  0.875 0 0  0.8875000000000002 0 0  0.9000000000000004 0 0  0.9124999999999996 0 0  0.9249999999999998 0 0  0.9375 0 0  0.9500000000000002 0 0  0.9625000000000004 0 0  0.9749999999999996 0 0  0.9874999999999998 0 0  1 0 0  1.0125 0 0  1.025 0 0  1.0375 0 0  1.05 0 0  1.0625 0 0  1.075 0 0  1.0875 0 0  1.1 0 0  1.1125 0 0  1.125 0 0  1.1375 0 0  1.15 0 0  1.1625 0 0  1.175 0 0  1.1875 0 0  1.2 0 0  1.2125 0 0  1.225 0 0  1.2375 0 0  1.25 0 0  1.2625 0 0  1.275 0 0  1.2875 0 0  1.3 0 0  1.3125 0 0  1.325 0 0  1.3375 0 0  1.35 0 0  1.3625 0 0  1.375 0 0  1.3875 0 0  1.4 0 0  1.4125 0 0  1.425 0 0  1.4375 0 0  1.45 0 0  1.4625 0 0  1.475 0 0  1.4875 0 0  1.5 0 0  1.5125 0 0  1.525 0 0  1.5375 0 0  1.55 0 0  1.5625 0 0  1.575 0 0  1.5875 0 0  1.6 0 0  1.6125 0 0  1.625 0 0  1.6375 0 0  1.65 0 0  1.6625 0 0  1.675 0 0  1.6875 0 0  1.7 0 0  1.7125 0 0  1.725 0 0  1.7375 0 0  1.75 0 0  1.7625 0 0  1.775 0 0  1.7875 0 0  1.8 0 0  1.8125 0 0  1.825 0 0  1.8375 0 0  1.85 0 0  1.8625 0 0  1.875 0 0  1.8875 0 0  1.9 0 0  1.9125 0 0  1.925 0 0  1.9375 0 0  1.95 0 0  1.9625 0 0  1.975 0 0  1.9875 0 0  2 0 0  2.0125 0 0  2.025 0 0  2.0375 0 0  2.05 0 0  2.0625 0 0  2.075 0 0  2.0875 0 0  2.1 0 0  2.1125 0 0  2.125 0 0  2.1375 0 0  2.15 0 0  2.1625 0 0  2.175 0 0  2.1875 0 0  2.2 0 0  2.2125 0 0  2.225 0 0  2.2375 0 0  2.25 0 0  2.2625 0 0  2.275 0 0  2.2875 0 0  2.3 0 0  2.3125 0 0  2.325 0 0  2.3375 0 0  2.35 0 0  2.3625 0 0  2.375 0 0  2.3875 0 0  2.4 0 0  2.4125 0 0  2.425 0 0  2.4375 0 0  2.45 0 0  2.4625 0 0  2.475 0 0  2.4875 0 0  2.5 0 0  2.5125 0 0  2.525 0 0  2.5375 0 0  2.55 0 0  2.5625 0 0  2.575 0 0  2.5875 0 0  2.6 0 0  2.6125 0 0  2.625 0 0  2.6375 0 0  2.65 0 0  2.6625 0 0  2.675 0 0  2.6875 0 0  2.7 0 0  2.7125 0 0  2.725 0 0  2.7375 0 0  2.75 0 0  2.7625 0 0  2.775 0 0  2.7875 0 0  2.8 0 0  2.8125 0 0  2.825 0 0  2.8375 0 0  2.85 0 0  2.8625 0 0  2.875 0 0  2.8875 0 0  2.9 0 0  2.9125 0 0  2.925 0 0  2.9375 0 0  2.95 0 0  2.9625 0 0  2.975 0 0  2.9875 0 0  3 0 0  3.012499999999999 0 0  3.025 0 0  3.0375 0 0  3.050000000000001 0 0  3.0625 0 0  3.074999999999999 0 0  3.0875 0 0  3.1 0 0  3.112500000000001 0 0  3.125 0 0  3.137499999999999 0 0  3.15 0 0  3.1625 0 0  3.175000000000001 0 0  3.1875 0 0  3.199999999999999 0 0  3.2125 0 0  3.225 0 0  3.237500000000001 0 0  3.25 0 0  3.262499999999999 0 0  3.275 0 0  3.2875 0 0  3.300000000000001 0 0  3.3125 0 0  3.324999999999999 0 0  3.3375 0 0  3.35 0 0  3.362500000000001 0 0  3.375 0 0  3.387499999999999 0 0  3.4 0 0  3.4125 0 0  3.425000000000001 0 0  3.4375 0 0  3.449999999999999 0 0  3.4625 0 0  3.475 0 0  3.4875
[...]
<PointData  Vectors="(h, u)"> 
<DataArray  type="Float64"  Name="(h, u)"  NumberOfComponents="3" format="ascii">6.1432652644262131e-01 0.0000000000000000e+00 0.0000000000000000e+00  6.1472768834537772e-01 1.3372458747845269e-02 0.0000000000000000e+00  6.1433596221008757e-01 2.6731012014858922e-02 0.0000000000000000e+00  6.1466157664085352e-01 4.0007972331284100e-02 0.0000000000000000e+00  6.1435596615245436e-01 5.3632947117090109e-02 0.0000000000000000e+00  6.1455515003381722e-01 6.6517595344511377e-02 0.0000000000000000e+00  6.1432865271055781e-01 8.0508788682861127e-02 0.0000000000000000e+00  6.1450491407724106e-01 9.3305573005501879e-02 0.0000000000000000e+00  6.1413621692010889e-01 1.0684027524437868e-01 0.0000000000000000e+00  6.1460674113872915e-01 1.2081076205543076e-01 0.0000000000000000e+00  6.1376767033502289e-01 1.3255999973083235e-01 0.0000000000000000e+00  6.1471541818451580e-01 1.4845851676268565e-01 0.0000000000000000e+00  6.1356484751794693e-01 1.5902714721088332e-01 0.0000000000000000e+00  6.1432703356572027e-01 1.7422340762903651e-01 0.0000000000000000e+00  6.1406132225352139e-01 1.8840886731826728e-01 0.0000000000000000e+00  6.1310436636250765e-01 1.9676518136212115e-01 0.0000000000000000e+00  6.1509613718317635e-01 2.2005281817427091e-01 0.0000000000000000e+00  6.1196616968429540e-01 2.1971292130784739e-01 0.0000000000000000e+00  6.1492177902763467e-01 2.4697389396797789e-01 0.0000000000000000e+00  6.1324157442157878e-01 2.5246904821165278e-01 0.0000000000000000e+00  6.1125428494506906e-01 2.6007457851286603e-01 0.0000000000000000e+00  6.1809225870214357e-01 2.9957368554211011e-01 0.0000000000000000e+00  6.0526669448175741e-01 2.6374860629070696e-01 0.0000000000000000e+00  6.2201801558509107e-01 3.4306633439180512e-01 0.0000000000000000e+00  6.0489501786924749e-01 2.9041885668231776e-01 0.0000000000000000e+00  6.1452977037963963e-01 3.4179666507989281e-01 0.0000000000000000e+00  6.2007999571342320e-01 3.7961545755146897e-01 0.0000000000000000e+00  5.9032392832309988e-01 2.7174581402412418e-01 0.0000000000000000e+00  6.4621187010848358e-01 5.0962772728387495e-01 0.0000000000000000e+00  5.6731782111584717e-01 2.0596154793046106e-01 0.0000000000000000e+00  6.4852163270021479e-01 5.5119629355510513e-01 0.0000000000000000e+00  5.9037982907476605e-01 3.3345809655026099e-01 0.0000000000000000e+00  5.7411614001339850e-01 3.1998379654559567e-01 0.0000000000000000e+00  6.7853974515917070e-01 6.4715717340889767e-01 0.0000000000000000e+00  1.7686338323314119e-01 -1.7170709405053763e+00 0.0000000000000000e+00  2.0946192671825276e-01 -1.9532109904388735e+00 0.0000000000000000e+00  1.8788394423454621e-01 -1.9683312097484376e+00 0.0000000000000000e+00  1.9067601319390015e-01 -1.8852537391368136e+00 0.0000000000000000e+00  1.9487765614744035e-01 -1.9794954002830480e+00 0.0000000000000000e+00  1.8614043386486775e-01 -1.8826018808222462e+00 0.0000000000000000e+00  1.9261821853555380e-01 -1.9561261013987485e+00 0.0000000000000000e+00  1.8639899500405929e-01 -1.8946031897635154e+00 0.0000000000000000e+00  1.8877270769657079e-01 -1.9296461251352144e+00 0.0000000000000000e+00  1.8654898429536265e-01 -1.9022658296907966e+00 0.0000000000000000e+00  1.8580972856459607e-01 -1.9103727497007625e+00 0.0000000000000000e+00  1.8566327935876711e-01 -1.9018522495495522e+00 0.0000000000000000e+00  1.8376710990810996e-01 -1.8981071981887885e+00 0.0000000000000000e+00  1.8411202734504256e-01 -1.8960421500947653e+00 0.0000000000000000e+00  1.8215089225923997e-01 -1.8895957881481260e+00 0.0000000000000000e+00  1.8235139731269240e-01 -1.8879787255516702e+00 0.0000000000000000e+00  1.8060974227660412e-01 -1.8823336828256152e+00 0.0000000000000000e+00  1.8061353231368740e-01 -1.8794424014765072e+00 0.0000000000000000e+00  1.7901482701238630e-01 -1.8751943869953238e+00 0.0000000000000000e+00  1.7895059321207898e-01 -1.8710558830663002e+00 0.0000000000000000e+00  1.7736289362635488e-01 -1.8678981123273384e+00 0.0000000000000000e+00  1.7733972708076903e-01 -1.8628968445393477e+00 0.0000000000000000e+00  1.7568636058215803e-01 -1.8604720361969458e+00 0.0000000000000000e+00  1.7574902592548552e-01 -1.8549017058810906e+00 0.0000000000000000e+00  1.7401133620640502e-01 -1.8529839293634489e+00 0.0000000000000000e+00  1.7415980162034006e-01 -1.8470173025230754e+00 0.0000000000000000e+00  1.7234934807170227e-01 -1.8454720914754583e+00 0.0000000000000000e+00  1.7256622079206710e-01 -1.8392207397929050e+00 0.0000000000000000e+00  1.7070209401790029e-01 -1.8379516101537507e+00 0.0000000000000000e+00  1.7096909417259662e-01 -1.8315035685742296e+00 0.0000000000000000e+00  1.6906736962337576e-01 -1.8304304741993400e+00 0.0000000000000000e+00  1.6937107077667463e-01 -1.8238596769760465e+00 0.0000000000000000e+00  1.6744251267774193e-01 -1.8229167747113535e+00 0.0000000000000000e+00  1.6777444790560173e-01 -1.8162822558953784e+00 0.0000000000000000e+00  1.6582559692367488e-01 -1.8154189817706810e+00 0.0000000000000000e+00  1.6618067914707049e-01 -1.8087649161774622e+00 0.0000000000000000e+00  1.6421548214646489e-01 -1.8079444709083938e+00 0.0000000000000000e+00  1.6459056382025997e-01 -1.8013028874445216e+00 0.0000000000000000e+00  1.6261152435038348e-01 -1.8004988690543582e+00 0.0000000000000000e+00  1.6300455009215606e-01 -1.7938931106405609e+00 0.0000000000000000e+00  1.6101330617550424e-01 -1.7930863997222906e+00 0.0000000000000000e+00  1.6142295024538197e-01 -1.7865336430871492e+00 0.0000000000000000e+00  1.5942047999413733e-01 -1.7857105565968183e+00 0.0000000000000000e+00  1.5984604349259687e-01 -1.7792230512460290e+00 0.0000000000000000e+00  1.5783271043751848e-01 -1.7783745643214115e+00 0.0000000000000000e+00  1.5827409758642377e-01 -1.7719601406189069e+00 0.0000000000000000e+00  1.5624967866457523e-01 -1.7710814674839999e+00 0.0000000000000000e+00  1.5670734708430115e-01 -1.7647440240798846e+00 0.0000000000000000e+00  1.5467111346731643e-01 -1.7638339564176968e+00 0.0000000000000000e+00  1.5514595900846706e-01 -1.7575743569260931e+00 0.0000000000000000e+00  1.5309682318645174e-01 -1.7566341246909187e+00 0.0000000000000000e+00  1.5359000694856736e-01 -1.7504515521594197e+00 0.0000000000000000e+00  1.5152671246224761e-01 -1.7494833168022743e+00 0.0000000000000000e+00  1.5203946460024795e-01 -1.7433768568995518e+00 0.0000000000000000e+00  1.4996077767404178e-01 -1.7423821417824032e+00 0.0000000000000000e+00  1.5049422042756203e-01 -1.7363522567234151e+00 0.0000000000000000e+00  1.4839908321942780e-01 -1.7353306487300366e+00 0.0000000000000000e+00  1.4895410819134575e-01 -1.7293802423102100e+00 0.0000000000000000e+00  1.4684172615838939e-01 -1.7283286073128443e+00 0.0000000000000000e+00  1.4741894444604534e-01 -1.7224635095965408e+00 0.0000000000000000e+00  1.4528879861141725e-01 -1.7213758154814056e+00 0.0000000000000000e+00  1.4588856385330659e-01 -1.7156046709023516e+00 0.0000000000000000e+00  1.4374035618974404e-01 -1.7144723626746512e+00 0.0000000000000000e+00  1.4436284536910540e-01 -1.7088060383859451e+00 0.0000000000000000e+00  1.4219639775823872e-01 -1.7076188002904737e+00 0.0000000000000000e+00  1.4284172575641868e-01 -1.7020695132384851e+00 0.0000000000000000e+00  1.4065685832433431e-01 -1.7008162010917016e+00 0.0000000000000000e+00  1.4132520025893111e-01 -1.6953965843929160e+00 0.0000000000000000e+00  1.3912161379753021e-01 -1.6940661167412145e+00 0.0000000000000000e+00  1.3981331283556392e-01 -1.6887884167767906e+00 0.0000000000000000e+00  1.3759049436934642e-01 -1.6873704617484246e+00 0.0000000000000000e+00  1.3830613976379030e-01 -1.6822459952622490e+00 0.0000000000000000e+00  1.3606330243565978e-01 -1.6807313606943965e+00 0.0000000000000000e+00  1.3680377071003194e-01 -1.6757702870650781e+00 0.0000000000000000e+00  1.3453983115864263e-01 -1.6741509943918733e+00 0.0000000000000000e+00  1.3530629081750573e-01 -1.6693623904239072e+00 0.0000000000000000e+00  1.3301988059360495e-01 -1.6676314725251784e+00 0.0000000000000000e+00  1.3381376634107942e-01 -1.6630236476671079e+00 0.0000000000000000e+00  1.3150326943130458e-01 -1.6611747487186481e+00 0.0000000000000000e+00  1.3232623520779890e-01 -1.6567557128147055e+00 0.0000000000000000e+00  1.2998984151648646e-01 -1.6547825821623761e+00 0.0000000000000000e+00  1.3084370285782601e-01 -1.6505605748522159e+00 0.0000000000000000e+00  1.2847946720630071e-01 -1.6484565401532905e+00 0.0000000000000000e+00  1.2936614295974860e-01 -1.6444405459772757e+00 0.0000000000000000e+00  1.2697204024237621e-01 -1.6421980295182457e+00 0.0000000000000000e+00  1.2789350212891082e-01 -1.6383982286056347e+00 0.0000000000000000e+00  1.2546747114644774e-01 -1.6360083422609486e+00 0.0000000000000000e+00  1.2642570755153820e-01 -1.6324364757202188e+00 0.0000000000000000e+00  1.2396567828794285e-01 -1.6298887016528834e+00 0.0000000000000000e+00  1.2496267634477630e-01 -1.6265583567617343e+00 0.0000000000000000e+00  1.2246657780131284e-01 -1.6238402986168288e+00 0.0000000000000000e+00  1.2350432548300104e-01 -1.6207671366737242e+00 0.0000000000000000e+00  1.2097007351023224e-01 -1.6178643134692836e+00 0.0000000000000000e+00  1.2205058116497787e-01 -1.6150662702290601e+00 0.0000000000000000e+00  1.1947604794204880e-01 -1.6119619234616624e+00 0.0000000000000000e+00  1.2060138661719909e-01 -1.6094594089282177e+00 0.0000000000000000e+00  1.1798435533020213e-01 -1.6061343004648090e+00 0.0000000000000000e+00  1.1915670760665212e-01 -1.6039504151738879e+00 0.0000000000000000e+00  1.1649481711153992e-01 -1.6003826040699936e+00 0.0000000000000000e+00  1.1771653546343785e-01 -1.5985433793983541e+00 0.0000000000000000e+00  1.1500721975495611e-01 -1.5947079722939941e+00 0.0000000000000000e+00  1.1628088823216258e-01 -1.5932426409662079e+00 0.0000000000000000e+00  1.1352131381280117e-01 -1.5891115048898963e+00 0.0000000000000000e+00  1.1484981161371095e-01 -1.5880528223859935e+00 0.0000000000000000e+00  1.1203681201163135e-01 -1.5835942243678307e+00 0.0000000000000000e+00  1.1342338239179667e-01 -1.5829788963544584e+00 0.0000000000000000e+00  1.1055338332506408e-01 -1.5781569904655368e+00 0.0000000000000000e+00  1.1200171763372994e-01 -1.5780263121918618e+00 0.0000000000000000e+00  1.0907063981670245e-01 -1.5728003401842181e+00 0.0000000000000000e+00  1.1058499252130699e-01 -1.5732012063096332e+00 0.0000000000000000e+00  1.0758811424144733e-01 -1.5675242342327516e+00 0.0000000000000000e+00  1.0917346756633987e-01 -1.5685107037435222e+00 0.0000000000000000e+00  1.0610522953632504e-01 -1.5623277183161470e+00 0.0000000000000000e+00  1.0776752172994038e-01 -1.5639632790269398e+00 0.0000000000000000e+00  1.0462126668618937e-01 -1.5572085580462298e+00 0.0000000000000000e+00  1.0636768160587592e-01 -1.5595690835566862e+00 0.0000000000000000e+00  1.0313534464714909e-01 -1.5521629773509695e+00 0.0000000000000000e+00  1.0497462914231485e-01 -1.5553400694110324e+00 0.0000000000000000e+00  1.0164643377987947e-01 -1.5471857112680525e+00 0.0000000000000000e+00  1.0358916313078251e-01 -1.5512896624373986e+00 0.0000000000000000e+00  1.0015343034509984e-01 -1.5422706539628637e+00 0.0000000000000000e+00  1.0221208553554227e-01 -1.5474316861358914e+00 0.0000000000000000e+00  9.8655321107676275e-02 -1.5374124125015700e+00 0.0000000000000000e+00  1.0084398572987954e-01 -1.5437782439972165e+00 0.0000000000000000e+00  9.7151461021387886e-02 -1.5326090347052284e+00 0.0000000000000000e+00  9.9484906469408690e-02 -1.5403363607653413e+00 0.0000000000000000e+00  9.5641971320109292e-02 -1.5278660404551621e+00 0.0000000000000000e+00  9.8133896089415071e-02 -1.5371033784359074e+00 0.0000000000000000e+00  9.4128240139988772e-02 -1.5232016424622008e+00 0.0000000000000000e+00  9.6788480623062736e-02 -1.5340613919053967e+00 0.0000000000000000e+00  9.2613475853926208e-02 -1.5186527127972087e+00 0.0000000000000000e+00  9.5444123007708631e-02 -1.5311713516050931e+00 0.0000000000000000e+00  9.1103230347027803e-02 -1.5142806825683259e+00 0.0000000000000000e+00  9.4093767335232087e-02 -1.5283677855471198e+00 0.0000000000000000e+00  8.9605783391687524e-02 -1.5101762268517331e+00 0.0000000000000000e+00  9.2727585823357148e-02 -1.5255553128027830e+00 0.0000000000000000e+00  8.8132268523236620e-02 -1.5064613737057631e+00 0.0000000000000000e+00  9.1333046940256582e-02 -1.5226081513374607e+00 0.0000000000000000e+00  8.6696432190849854e-02 -1.5032876735696605e+00 0.0000000000000000e+00  8.9895399685350763e-02 -1.5193736133376214e+00 0.0000000000000000e+00  8.5313954567709460e-02 -1.5008293442915210e+00 0.0000000000000000e+00  8.8398620715124221e-02 -1.5156801301703677e+00 0.0000000000000000e+00  8.4001320198378387e-02 -1.4992708993382688e+00 0.0000000000000000e+00  8.6826802565569919e-02 -1.5113497136231677e+00 0.0000000000000000e+00  8.2774302097111008e-02 -1.4987896428881122e+00 0.0000000000000000e+00  8.5165882649927888e-02 -1.5062140423165373e+00 0.0000000000000000e+00  8.1646201828369624e-02 -1.4995344638558306e+00 0.0000000000000000e+00  8.3405537837400845e-02 -1.5001326857643555e+00 0.0000000000000000e+00  8.0626055618872761e-02 -1.5016033796887240e+00 0.0000000000000000e+00  8.1541013643286878e-02 -1.4930114613945369e+00 0.0000000000000000e+00  7.9717057682466619e-02 -1.5050230004298546e+00 0.0000000000000000e+00  7.9574634398649494e-02 -1.4848186522671796e+00 0.0000000000000000e+00  7.8915454666550200e-02 -1.5097332340729053e+00 0.0000000000000000e+00  7.7516760507885266e-02 -1.4755968437981195e+00 0.0000000000000000e+00  7.8210123616947846e-02 -1.5155799709320432e+00 0.0000000000000000e+00  7.5386022396711341e-02 -1.4654684661029371e+00 0.0000000000000000e+00  7.7582963110271172e-02 -1.5223172113190806e+00 0.0000000000000000e+00  7.3208759333407203e-02 -1.4546337066855011e+00 0.0000000000000000e+00  7.7010115917242397e-02 -1.5296184261356749e+00 0.0000000000000000e+00  7.1017706826146651e-02 -1.4433602033792396e+00 0.0000000000000000e+00  7.6463922511732424e-02 -1.5370953169062340e+00 0.0000000000000000e+00  6.8850085951747450e-02 -1.4319647370155497e+00 0.0000000000000000e+00  7.5915402414412053e-02 -1.5443210057541812e+00 0.0000000000000000e+00  6.6745329447079352e-02 -1.4207879383078026e+00 0.0000000000000000e+00  7.5336990142391508e-02 -1.5508543428897854e+00 0.0000000000000000e+00  6.4742706920797005e-02 -1.4101638919647825e+00 0.0000000000000000e+00  7.4705207593709105e-02 -1.5562626503658077e+00 0.0000000000000000e+00  6.2879067521282694e-02 -1.4003876301942382e+00 0.0000000000000000e+00  7.4002933497192530e-02 -1.5601415942457213e+00 0.0000000000000000e+00  6.1186831986342956e-02 -1.3916845936772477e+00 0.0000000000000000e+00  7.3220951445232690e-02 -1.5621323297977288e+00 0.0000000000000000e+00  5.9692270602323259e-02 -1.3841868804272910e+00 0.0000000000000000e+00  7.2358499732810833e-02 -1.5619373990466432e+00 0.0000000000000000e+00  5.8414005406997593e-02 -1.3779214464670650e+00 0.0000000000000000e+00  7.1422631741688433e-02 -1.5593374973394400e+00 0.0000000000000000e+00  5.7361696923293244e-02 -1.3728138134856176e+00 0.0000000000000000e+00  7.0426474683822793e-02 -1.5542091485598863e+00 0.0000000000000000e+00  5.6535131164629486e-02 -1.3687057429966114e+00 0.0000000000000000e+00  6.9386900437170176e-02 -1.5465388826068804e+00 0.0000000000000000e+00  5.5924163342362616e-02 -1.3653798789678580e+00 0.0000000000000000e+00  6.8322323224430950e-02 -1.5364272181354188e+00 0.0000000000000000e+00  5.5509840327860487e-02 -1.3625836111421816e+00 0.0000000000000000e+00  6.7251107186124523e-02 -1.5240785599332896e+00 0.0000000000000000e+00  5.5266574092832012e-02 -1.3600484179858316e+00 0.0000000000000000e+00  6.6190637897343585e-02 -1.5097785668424093e+00 0.0000000000000000e+00  5.5164859368371982e-02 -1.3575052245337063e+00 0.0000000000000000e+00  6.5156829902549590e-02 -1.4938644083864514e+00 0.0000000000000000e+00  5.5173959600317242e-02 -1.3546976799133190e+00 0.0000000000000000e+00  6.4163812733430636e-02 -1.4766939736889340e+00 0.0000000000000000e+00  5.5264159651452927e-02 -1.3513942067070124e+00 0.0000000000000000e+00  6.3223651384034810e-02 -1.4586185748728870e+00 0.0000000000000000e+00  5.5408416024021682e-02 -1.3473982328000746e+00 0.0000000000000000e+00  6.2346078071034518e-02 -1.4399616257424601e+00 0.0000000000000000e+00  5.5583404451969798e-02 -1.3425554482093303e+00 0.0000000000000000e+00  6.1538277867981911e-02 -1.4210040974903320e+00 0.0000000000000000e+00  5.5770047419323412e-02 -1.3367572807235748e+00 0.0000000000000000e+00  6.0804782570442806e-02 -1.4019764577815075e+00 0.0000000000000000e+00  5.5953627336383760e-02 -1.3299405353716771e+00 0.0000000000000000e+00  6.0147508717815809e-02 -1.3830561747998809e+00 0.0000000000000000e+00  5.6123586664182525e-02 -1.3220838182685395e+00 0.0000000000000000e+00  5.9565948170546786e-02 -1.3643695639869700e+00 0.0000000000000000e+00  5.6273104167408855e-02 -1.3132017444359421e+00 0.0000000000000000e+00  5.9057494642283576e-02 -1.3459966724926247e+00 0.0000000000000000e+00  5.6398525257747467e-02 -1.3033379965968366e+00 0.0000000000000000e+00  5.8617871084828223e-02 -1.3279779798040399e+00 0.0000000000000000e+00  5.6498716328136446e-02 -1.2925581378460924e+00 0.0000000000000000e+00  5.8241610834637789e-02 -1.3103219049346186e+00 0.0000000000000000e+00  5.6574407476052760e-02 -1.2809427877498465e+00 0.0000000000000000e+00  5.7922539320789446e-02 -1.2930124039407862e+00 0.0000000000000000e+00  5.6627582578381547e-02 -1.2685814502476849e+00 0.0000000000000000e+00  5.7654203878188315e-02 -1.2760162425985684e+00 0.0000000000000000e+00  5.6660965965545915e-02 -1.2555670344042529e+00 0.0000000000000000e+00  5.7430209875013183e-02 -1.2592897394514833e+00 0.0000000000000000e+00  5.6677635853967401e-02 -1.2419910290280556e+00 0.0000000000000000e+00  5.7244444897386566e-02 -1.2427848065372862e+00 0.0000000000000000e+00  5.6680764246900280e-02 -1.2279394198522240e+00 0.0000000000000000e+00  5.7091206340883764e-02 -1.2264539698164327e+00 0.0000000000000000e+00  5.6673448910121937e-02 -1.2134896782572651e+00 0.0000000000000000e+00  5.6965276594426739e-02 -1.2102539023584826e+00 0.0000000000000000e+00  5.6658585588512320e-02 -1.1987092367967429e+00 0.0000000000000000e+00  5.6861990875180922e-02 -1.1941471478096872e+00 0.0000000000000000e+00  5.6638747354651346e-02 -1.1836555385225092e+00 0.0000000000000000e+00  5.6777307101566095e-02 -1.1781022657908027e+00 0.0000000000000000e+00  5.6616083629019237e-02 -1.1683771175219371e+00 0.0000000000000000e+00  5.6707844060841200e-02 -1.1620932233780989e+00 0.0000000000000000e+00  5.6592279709837358e-02 -1.1529148077507192e+00 0.0000000000000000e+00  5.6650850819868412e-02 -1.1460988813447099e+00 0.0000000000000000e+00  5.6568594313479714e-02 -1.1373025238441730e+00 0.0000000000000000e+00  5.6604114115431779e-02 -1.1301028011539958e+00 0.0000000000000000e+00  5.6545942737057146e-02 -1.1215677685782861e+00 0.0000000000000000e+00  5.6565850826480357e-02 -1.1140930077212152e+00 0.0000000000000000e+00  5.6524975177246556e-02 -1.1057323193263795e+00 0.0000000000000000e+00  5.6534624798934174e-02 -1.0980613831787369e+00 0.0000000000000000e+00  5.6506128518956741e-02 -1.0898132257582773e+00 0.0000000000000000e+00  5.6509289772508811e-02 -1.0820028013003162e+00 0.0000000000000000e+00  5.6489663296838966e-02 -1.0738238648234211e+00 0.0000000000000000e+00  5.6488940495723401e-02 -1.0659143193852598e+00 0.0000000000000000e+00  5.6475701069092533e-02 -1.0577747970476528e+00 0.0000000000000000e+00  5.6472863255139394e-02 -1.0497945829912378e+00 0.0000000000000000e+00  5.6464262930130779e-02 -1.0416743930783192e+00 0.0000000000000000e+00  5.6460490144227625e-02 -1.0336433967757004e+00 0.0000000000000000e+00  5.6455302556115868e-02 -1.0255293193055988e+00 0.0000000000000000e+00  5.6451362415761409e-02 -1.0174613817850942e+00 0.0000000000000000e+00  5.6448730676301420e-02 -1.0093449399752867e+00 0.0000000000000000e+00  5.6445103221075300e-02 -1.0012496943388383e+00 0.0000000000000000e+00  5.6444432209587496e-02 -9.9312564403128289e-01 0.0000000000000000e+00  5.6441397577334282e-02 -9.8500980839714480