<?xml version="1.0"?>
<VTKFile type="UnstructuredGrid"  version="0.1"  >
<UnstructuredGrid>
<Piece  NumberOfPoints="801" NumberOfCells="800">
<Points>
<DataArray  type="Float64"  NumberOfComponents="3"  format="ascii">-5 0 0  -4.9875 0 0  -4.975 0 0  -4.9625 0 0  -4.95 0 0  -4.9375 0 0  -4.925 0 0  -4.9125 0 0  -4.9 0 0  -4.8875 0 0  -4.875 0 0  -4.8625 0 0  -4.85 0 0  -4.8375 0 0  -4.825 0 0  -4.8125 0 0  -4.8 0 0  -4.7875 0 0  -4.775 0 0  -4.7625 0 0  -4.75 0 0  -4.7375 0 0  -4.725 0 0  -4.7125 0 0  -4.7 0 0  -4.6875 0 0  -4.675 0 0  -4.6625 0 0  -4.65 0 0  -4.6375 0 0  -4.625 0 0  -4.6125 0 0  -4.6 0 0  -4.5875 0 0  -4.575 0 0  -4.5625 0 0  -4.55 0 0  -4.5375 0 0  -4.525 0 0  -4.5125 0 0  -4.5 0 0  -4.4875 0 0  -4.475 0 0  -4.4625 0 0  -4.45 0 0  -4.4375 0 0  -4.425 0 0  -4.4125 0 0  -4.4 0 0  -4.3875 0 0  -4.375 0 0  -4.3625 0 0  -4.35 0 0  -4.3375 0 0  -4.325 0 0  -4.3125 0 0  -4.3 0 0  -4.2875 0 0  -4.275 0 0  -4.2625 0 0  -4.25 0 0  -4.2375 0 0  -4.225 0 0  -4.2125 0 0  -4.2 0 0  -4.1875 0 0  -4.175 0 0  -4.1625 0 0  -4.15 0 0  -4.1375 0 0  -4.125 0 0  -4.1125 0 0  -4.1 0 0  -4.0875 0 0  -4.075 0 0  -4.0625 0 0  -4.05 0 0  -4.0375 0 0  -4.025 0 0  -4.0125 0 0  -4 0 0  -3.9875 0 0  -3.975 0 0  -3.9625 0 0  -3.95 0 0  -3.9375 0 0  -3.925 0 0  -3.9125 0 0  -3.9 0 0  -3.8875 0 0  -3.875 0 0  -3.8625 0 0  -3.85 0 0  -3.8375 0 0  -3.825 0 0  -3.8125 0 0  -3.8 0 0  -3.7875 0 0  -3.775 0 0  -3.7625 0 0  -3.75 0 0  -3.7375 0 0  -3.725 0 0  -3.7125 0 0  -3.7 0 0  -3.6875 0 0  -3.675 0 0  -3.6625 0 0  -3.65 0 0  -3.6375 0 0  -3.625 0 0  -3.6125 0 0  -3.6 0 0  -3.5875 0 0  -3.575 0 0  -3.5625 0 0  -3.55 0 0  -3.5375 0 0  -3.525 0 0  -3.5125 0 0  -3.5 0 0  -3.4875 0 0  -3.475 0 0  -3.4625 0 0  -3.45 0 0  -3.4375 0 0  -3.425 0 0  -3.4125 0 0  -3.4 0 0  -3.3875 0 0  -3.375 0 0  -3.3625 0 0  -3.35 0 0  -3.3375 0 0  -3.325 0 0  -3.3125 0 0  -3.3 0 0  -3.2875 0 0  -3.275 0 0  -3.2625 0 0  -3.25 0 0  -3.2375 0 0  -3.225 0 0  -3.2125 0 0  -3.2 0 0  -3.1875 0 0  -3.175 0 0  -3.1625 0 0  -3.15 0 0  -3.1375 0 0  -3.125 0 0  -3.1125 0 0  -3.1 0 0  -3.0875 0 0  -3.075 0 0  -3.0625 0 0  -3.05 0 0  -3.0375 0 0  -3.025 0 0  -3.0125 0 0  -3 0 0  -2.9875 0 0  -2.975 0 0  -2.9625 0 0  -2.95 0 0  -2.9375 0 0  -2.925 0 0  -2.9125 0 0  -2.9 0 0  -2.8875 0 0  -2.875 0 0  -2.8625 0 0  -2.85 0 0  -2.8375 0 0  -2.825 0 0  -2.8125 0 0  -2.8 0 0  -2.7875 0 0  -2.775 0 0  -2.7625 0 0  -2.75 0 0  -2.7375 0 0  -2.725 0 0  -2.7125 0 0  -2.7 0 0  -2.6875 0 0  -2.675 0 0  -2.6625 0 0  -2.65 0 0  -2.6375 0 0  -2.625 0 0  -2.6125 0 0  -2.6 0 0  -2.5875 0 0  -2.575 0 0  -2.5625 0 0  -2.55 0 0  -2.5375 0 0  -2.525 0 0  -2.5125 0 0  -2.5 0 0  -2.4875 0 0  -2.475 0 0  -2.4625 0 0  -2.45 0 0  -2.4375 0 0  -2.425 0 0  -2.4125 0 0  -2.4 0 0  -2.3875 0 0  -2.375 0 0  -2.3625 0 0  -2.35 0 0  -2.3375 0 0  -2.325 0 0  -2.3125 0 0  -2.3 0 0  -2.2875 0 0  -2.275 0 0  -2.2625 0 0  -2.25 0 0  -2.2375 0 0  -2.225 0 0  -2.2125 0 0  -2.2 0 0  -2.1875 0 0  -2.175 0 0  -2.1625 0 0  -2.15 0 0  -2.1375 0 0  -2.125 0 0  -2.1125 0 0  -2.1 0 0  -2.0875 0 0  -2.075 0 0  -2.0625 0 0  -2.05 0 0  -2.0375 0 0  -2.025 0 0  -2.0125 0 0  -2 0 0  -1.9875 0 0  -1.975 0 0  -1.9625 0 0  -1.95 0 0  -1.9375 0 0  -1.925 0 0  -1.9125 0 0  -1.9 0 0  -1.8875 0 0  -1.875 0 0  -1.8625 0 0  -1.85 0 0  -1.8375 0 0  -1.825 0 0  -1.8125 0 0  -1.8 0 0  -1.7875 0 0  -1.775 0 0  -1.7625 0 0  -1.75 0 0  -1.7375 0 0  -1.725 0 0  -1.7125 0 0  -1.7 0 0  -1.6875 0 0  -1.675 0 0  -1.6625 0 0  -1.65 0 0  -1.6375 0 0  -1.625 0 0  -1.6125 0 0  -1.6 0 0  -1.5875 0 0  -1.575 0 0  -1.5625 0 0  -1.55 0 0  -1.5375 0 0  -1.525 0 0  -1.5125 0 0  -1.5 0 0  -1.4875 0 0  -1.475 0 0  -1.4625 0 0  -1.45 0 0  -1.4375 0 0  -1.425 0 0  -1.4125 0 0  -1.4 0 0  -1.3875 0 0  -1.375 0 0  -1.3625 0 0  -1.35 0 0  -1.3375 0 0  -1.325 0 0  -1.3125 0 0  -1.3 0 0  -1.2875 0 0  -1.275 0 0  -1.2625 0 0  -1.25 0 0  -1.2375 0 0  -1.225 0 0  -1.2125 0 0  -1.2 0 0  -1.1875 0 0  -1.175 0 0  -1.1625 0 0  -1.15 0 0  -1.1375 0 0  -1.125 0 0  -1.1125 0 0  -1.1 0 0  -1.0875 0 0  -1.075 0 0  -1.0625 0 0  -1.05 0 0  -1.0375 0 0  -1.025 0 0  -1.0125 0 0  -1 0 0  -0.9874999999999998 0 0  -0.9749999999999996 0 0  -0.9625000000000004 0 0  -0.9500000000000002 0 0  -0.9375 0 0  -0.9249999999999998 0 0  -0.9124999999999996 0 0  -0.9000000000000004 0 0  -0.8875000000000002 0 0  -0.875 0 0  -0.8624999999999998 0 0  -0.8499999999999996 0 0  -0.8375000000000004 0 0  -0.8250000000000002 0 0  -0.8125 0 0  -0.7999999999999998 0 0  -0.7874999999999996 0 0  -0.7750000000000004 0 0  -0.7625000000000002 0 0  -0.75 0 0  -0.7374999999999998 0 0  -0.7249999999999996 0 0  -0.7125000000000004 0 0  -0.7000000000000002 0 0  -0.6875 0 0  -0.6749999999999998 0 0  -0.6624999999999996 0 0  -0.6500000000000004 0 0  -0.6375000000000002 0 0  -0.625 0 0  -0.6124999999999998 0 0  -0.5999999999999996 0 0  -0.5875000000000004 0 0  -0.5750000000000002 0 0  -0.5625 0 0  -0.5499999999999998 0 0  -0.5374999999999996 0 0  -0.5250000000000004 0 0  -0.5125000000000002 0 0  -0.5 0 0  -0.4874999999999998 0 0  -0.4749999999999996 0 0  -0.4625000000000004 0 0  -0.4500000000000002 0 0  -0.4375 0 0  -0.4249999999999998 0 0  -0.4124999999999996 0 0  -0.4000000000000004 0 0  -0.3875000000000002 0 0  -0.375 0 0  -0.3624999999999998 0 0  -0.3499999999999996 0 0  -0.3375000000000004 0 0  -0.3250000000000002 0 0  -0.3125 0 0  -0.2999999999999998 0 0  -0.2874999999999996 0 0  -0.2750000000000004 0 0  -0.2625000000000002 0 0  -0.25 0 0  -0.2374999999999998 0 0  -0.2249999999999996 0 0  -0.2125000000000004 0 0  -0.2000000000000002 0 0  -0.1875 0 0  -0.1749999999999998 0 0  -0.1624999999999996 0 0  -0.1500000000000004 0 0  -0.1375000000000002 0 0  -0.125 0 0  -0.1124999999999998 0 0  -0.09999999999999964 0 0  -0.08750000000000036 0 0  -0.07500000000000018 0 0  -0.0625 0 0  -0.04999999999999982 0 0  -0.03749999999999964 0 0  -0.02500000000000036 0 0  -0.01250000000000018 0 0  0 0 0  0.01250000000000018 0 0  0.02500000000000036 0 0  0.03749999999999964 0 0  0.04999999999999982 0 0  0.0625 0 0  0.07500000000000018 0 0  0.08750000000000036 0 0  0.09999999999999964 0 0  0.1124999999999998 0 0  0.125 0 0  0.1375000000000002 0 0  0.1500000000000004 0 0  0.1624999999999996 0 0  0.1749999999999998 0 0  0.1875 0 0  0.2000000000000002 0 0  0.2125000000000004 0 0  0.2249999999999996 0 0  0.2374999999999998 0 0  0.25 0 0  0.2625000000000002 0 0  0.2750000000000004 0 0  0.2874999999999996 0 0  0.2999999999999998 0 0  0.3125 0 0  0.3250000000000002 0 0  0.3375000000000004 0 0  0.3499999999999996 0 0  0.3624999999999998 0 0  0.375 0 0  0.3875000000000002 0 0  0.4000000000000004 0 0  0.4124999999999996 0 0  0.4249999999999998 0 0  0.4375 0 0  0.4500000000000002 0 0  0.4625000000000004 0 0  0.4749999999999996 0 0  0.4874999999999998 0 0  0.5 0 0  0.5125000000000002 0 0  0.5250000000000004 0 0  0.5374999999999996 0 0  0.5499999999999998 0 0  0.5625 0 0  0.5750000000000002 0 0  0.5875000000000004 0 0  0.5999999999999996 0 0  0.6124999999999998 0 0  0.625 0 0  0.6375000000000002 0 0  0.6500000000000004 0 0  0.6624999999999996 0 0  0.6749999999999998 0 0  0.6875 0 0  0.7000000000000002 0 0  0.7125000000000004 0 0  0.7249999999999996 0 0  0.7374999999999998 0 0  0.75 0 0  0.7625000000000002 0 0  0.7750000000000004 0 0  0.7874999999999996 0 0  0.7999999999999998 0 0  0.8125 0 0  0.8250000000000002 0 0  0.8375000000000004 0 0  0.8499999999999996 0 0  0.8624999999999998 0 0  0.875 0 0  0.8875000000000002 0 0  0.9000000000000004 0 0  0.9124999999999996 0 0  0.9249999999999998 0 0  0.9375 0 0  0.9500000000000002 0 0  0.9625000000000004 0 0  0.9749999999999996 0 0  0.9874999999999998 0 0  1 0 0  1.0125 0 0  1.025 0 0  1.0375 0 0  1.05 0 0  1.0625 0 0  1.075 0 0  1.0875 0 0  1.1 0 0  1.1125 0 0  1.125 0 0  1.1375 0 0  1.15 0 0  1.1625 0 0  1.175 0 0  1.1875 0 0  1.2 0 0  1.2125 0 0  1.225 0 0  1.2375 0 0  1.25 0 0  1.2625 0 0  1.275 0 0  1.2875 0 0  1.3 0 0  1.3125 0 0  1.325 0 0  1.3375 0 0  1.35 0 0  1.3625 0 0  1.375 0 0  1.3875 0 0  1.4 0 0  1.4125 0 0  1.425 0 0  1.4375 0 0  1.45 0 0  1.4625 0 0  1.475 0 0  1.4875 0 0  1.5 0 0  1.5125 0 0  1.525 0 0  1.5375 0 0  1.55 0 0  1.5625 0 0  1.575 0 0  1.5875 0 0  1.6 0 0  1.6125 0 0  1.625 0 0  1.6375 0 0  1.65 0 0  1.6625 0 0  1.675 0 0  1.6875 0 0  1.7 0 0  1.7125 0 0  1.725 0 0  1.7375 0 0  1.75 0 0  1.7625 0 0  1.775 0 0  1.7875 0 0  1.8 0 0  1.8125 0 0  1.825 0 0  1.8375 0 0  1.85 0 0  1.8625 0 0  1.875 0 0  1.8875 0 0  1.9 0 0  1.9125 0 0  1.925 0 0  1.9375 0 0  1.95 0 0  1.9625 0 0  1.975 0 0  1.9875 0 0  2 0 0  2.0125 0 0  2.025 0 0  2.0375 0 0  2.05 0 0  2.0625 0 0  2.075 0 0  2.0875 0 0  2.1 0 0  2.1125 0 0  2.125 0 0  2.1375 0 0  2.15 0 0  2.1625 0 0  2.175 0 0  2.1875 0 0  2.2 0 0  2.2125 0 0  2.225 0 0  2.2375 0 0  2.25 0 0  2.2625 0 0  2.275 0 0  2.2875 0 0  2.3 0 0  2.3125 0 0  2.325 0 0  2.3375 0 0  2.35 0 0  2.3625 0 0  2.375 0 0  2.3875 0 0  2.4 0 0  2.4125 0 0  2.425 0 0  2.4375 0 0  2.45 0 0  2.4625 0 0  2.475 0 0  2.4875 0 0  2.5 0 0  2.5125 0 0  2.525 0 0  2.5375 0 0  2.55 0 0  2.5625 0 0  2.575 0 0  2.5875 0 0  2.6 0 0  2.6125 0 0  2.625 0 0  2.6375 0 0  2.65 0 0  2.6625 0 0  2.675 0 0  2.6875 0 0  2.7 0 0  2.7125 0 0  2.725 0 0  2.7375 0 0  2.75 0 0  2.7625 0 0  2.775 0 0  2.7875 0 0  2.8 0 0  2.8125 0 0  2.825 0 0  2.8375 0 0  2.85 0 0  2.8625 0 0  2.875 0 0  2.8875 0 0  2.9 0 0  2.9125 0 0  2.925 0 0  2.9375 0 0  2.95 0 0  2.9625 0 0  2.975 0 0  2.9875 0 0  3 0 0  3.012499999999999 0 0  3.025 0 0  3.0375 0 0  3.050000000000001 0 0  3.0625 0 0  3.074999999999999 0 0  3.0875 0 0  3.1 0 0  3.112500000000001 0 0  3.125 0 0  3.137499999999999 0 0  3.15 0 0  3.1625 0 0  3.175000000000001 0 0  3.1875 0 0  3.199999999999999 0 0  3.2125 0 0  3.225 0 0  3.237500000000001 0 0  3.25 0 0  3.262499999999999 0 0  3.275 0 0  3.2875 0 0  3.300000000000001 0 0  3.3125 0 0  3.324999999999999 0 0  3.3375 0 0  3.35 0 0  3.362500000000001 0 0  3.375 0 0  3.387499999999999 0 0  3.4 0 0  3.4125 0 0  3.425000000000001 0 0  3.4375 0 0  3.449999999999999 0 0  3.4625 0 0  3.475 0 0  3.4875
[...]
<PointData  Vectors="(h, u)"> 
<DataArray  type="Float64"  Name="(h, u)"  NumberOfComponents="3" format="ascii">1.3506872259399313e-01 0.0000000000000000e+00 0.0000000000000000e+00  1.2109321824135835e-01 7.8323514630275100e-03 0.0000000000000000e+00  1.3499174902940314e-01 2.8920638705045420e-03 0.0000000000000000e+00  1.2123722876156506e-01 2.3127045817026928e-02 0.0000000000000000e+00  1.3476165932580086e-01 6.4562720265760373e-03 0.0000000000000000e+00  1.2152399714333141e-01 3.7395358171762490e-02 0.0000000000000000e+00  1.3438247683398413e-01 1.1216213234768690e-02 0.0000000000000000e+00  1.2194774743900554e-01 5.0205416756310461e-02 0.0000000000000000e+00  1.3386518403668105e-01 1.7446768135664922e-02 0.0000000000000000e+00  1.2249341352658255e-01 6.1421183011938392e-02 0.0000000000000000e+00  1.3323164985877919e-01 2.5148804456536392e-02 0.0000000000000000e+00  1.2313319010321919e-01 7.1187784433728460e-02 0.0000000000000000e+00  1.3251628865668952e-01 3.4095040324236825e-02 0.0000000000000000e+00  1.2382686080708775e-01 7.9847857888479909e-02 0.0000000000000000e+00  1.3176365512277427e-01 4.3920563197130620e-02 0.0000000000000000e+00  1.2452672864509498e-01 8.7829366416640756e-02 0.0000000000000000e+00  1.3102175384275605e-01 5.4222709151749489e-02 0.0000000000000000e+00  1.2518603057454875e-01 9.5545981797634141e-02 0.0000000000000000e+00  1.3033292477763764e-01 6.4639840353021602e-02 0.0000000000000000e+00  1.2576824995270441e-01 1.0333290770655466e-01 0.0000000000000000e+00  1.2972559211303938e-01 7.4894496634542923e-02 0.0000000000000000e+00  1.2625397781941239e-01 1.1142047562453131e-01 0.0000000000000000e+00  1.2920995025402346e-01 8.4806019421088022e-02 0.0000000000000000e+00  1.2664241602975207e-01 1.1993561607885965e-01 0.0000000000000000e+00  1.2877916938411810e-01 9.4287617623055403e-02 0.0000000000000000e+00  1.2694680269684602e-01 1.2891625239391111e-01 0.0000000000000000e+00  1.2841584650028764e-01 1.0333749740710188e-01 0.0000000000000000e+00  1.2718595814900943e-01 1.3832538694811117e-01 0.0000000000000000e+00  1.2810135086341726e-01 1.1202547030471739e-01 0.0000000000000000e+00  1.2737562070941932e-01 1.4806245317159916e-01 0.0000000000000000e+00  1.2782389333187885e-01 1.2047687945458357e-01 0.0000000000000000e+00  1.2752275306182387e-01 1.5797977490143078e-01 0.0000000000000000e+00  1.2758150455909284e-01 1.2885647701185243e-01 0.0000000000000000e+00  1.2762492538244311e-01 1.6790672340458257e-01 0.0000000000000000e+00  1.2737925231810787e-01 1.3734828403031013e-01 0.0000000000000000e+00  1.2767527008208179e-01 1.7767214153291322e-01 0.0000000000000000e+00  1.2722303778187644e-01 1.4612769275745616e-01 0.0000000000000000e+00  1.2767037821493457e-01 1.8712026400342927e-01 0.0000000000000000e+00  1.2711281053800230e-01 1.5533568102394421e-01 0.0000000000000000e+00  1.2761611377324539e-01 1.9612858142199416e-01 0.0000000000000000e+00  1.2703791772907552e-01 1.6506631531252744e-01 0.0000000000000000e+00  1.2752826984187804e-01 2.0462875995132077e-01 0.0000000000000000e+00  1.2697773056913303e-01 1.7535841843928437e-01 0.0000000000000000e+00  1.2742901063837017e-01 2.1261684835066258e-01 0.0000000000000000e+00  1.2690836745875525e-01 1.8617972980651945e-01 0.0000000000000000e+00  1.2734069785732410e-01 2.2015262503789007e-01 0.0000000000000000e+00  1.2681122521711052e-01 1.9741944256801147e-01 0.0000000000000000e+00  1.2727788828581924e-01 2.2736506173113413e-01 0.0000000000000000e+00  1.2667824630179886e-01 2.0890648006858153e-01 0.0000000000000000e+00  1.2724114634260236e-01 2.3445456968801023e-01 0.0000000000000000e+00  1.2651383952974074e-01 2.2043374675603011e-01 0.0000000000000000e+00  1.2721780604025110e-01 2.4165974430766890e-01 0.0000000000000000e+00  1.2633470497631968e-01 2.3177081976357666e-01 0.0000000000000000e+00  1.2718822661776175e-01 2.4920200715284926e-01 0.0000000000000000e+00  1.2616488255746555e-01 2.4269482076045884e-01 0.0000000000000000e+00  1.2713088111892845e-01 2.5725891307684995e-01 0.0000000000000000e+00  1.2602610996258401e-01 2.5305068378878920e-01 0.0000000000000000e+00  1.2702600093870420e-01 2.6595793366053205e-01 0.0000000000000000e+00  1.2593172621352200e-01 2.6277928201718814e-01 0.0000000000000000e+00  1.2686220961598377e-01 2.7534251696306850e-01 0.0000000000000000e+00  1.2588782168382934e-01 2.7188706810338975e-01 0.0000000000000000e+00  1.2664150677622801e-01 2.8534585671047025e-01 0.0000000000000000e+00  1.2589294871628370e-01 2.8043531233983615e-01 0.0000000000000000e+00  1.2637479309514485e-01 2.9583975324719053e-01 0.0000000000000000e+00  1.2593369703791851e-01 2.8857199771819442e-01 0.0000000000000000e+00  1.2607572316991297e-01 3.0669108696396769e-01 0.0000000000000000e+00  1.2598788022496252e-01 2.9650192374536949e-01 0.0000000000000000e+00  1.2576409913978404e-01 3.1772874649607946e-01 0.0000000000000000e+00  1.2603537527158787e-01 3.0439431140216044e-01 0.0000000000000000e+00  1.2546755637318441e-01 3.2872126067961149e-01 0.0000000000000000e+00  1.2605876352106099e-01 3.1238551896441008e-01 0.0000000000000000e+00  1.2520881589017907e-01 3.3947868845059725e-01 0.0000000000000000e+00  1.2603629472763569e-01 3.2065328377369251e-01 0.0000000000000000e+00  1.2499741082283573e-01 3.4991527519091220e-01 0.0000000000000000e+00  1.2595097862529292e-01 3.2934805446303428e-01 0.0000000000000000e+00  1.2484082585701577e-01 3.5994489968852045e-01 0.0000000000000000e+00  1.2580635531499423e-01 3.3846063185027553e-01 0.0000000000000000e+00  1.2474649338974314e-01 3.6946281752164672e-01 0.0000000000000000e+00  1.2561600404462531e-01 3.4791541418023486e-01 0.0000000000000000e+00  1.2470218614279126e-01 3.7852393565639647e-01 0.0000000000000000e+00  1.2538601414900447e-01 3.5771784724275857e-01 0.0000000000000000e+00  1.2467949736694105e-01 3.8732301297944105e-01 0.0000000000000000e+00  1.2513079002196928e-01 3.6779942403750948e-01 0.0000000000000000e+00  1.2466576859649917e-01 3.9592598192981432e-01 0.0000000000000000e+00  1.2488442164778057e-01 3.7790162800633087e-01 0.0000000000000000e+00  1.2465835138571127e-01 4.0433027420681295e-01 0.0000000000000000e+00  1.2466474204117892e-01 3.8788637128468823e-01 0.0000000000000000e+00  1.2463313015885170e-01 4.1274645995875675e-01 0.0000000000000000e+00  1.2446130767352542e-01 3.9784130685396929e-01 0.0000000000000000e+00  1.2457277893741336e-01 4.2134656791009611e-01 0.0000000000000000e+00  1.2428319114375885e-01 4.0765955003776905e-01 0.0000000000000000e+00  1.2450141381011713e-01 4.2995065256640314e-01 0.0000000000000000e+00  1.2415126688373748e-01 4.1711816603121976e-01 0.0000000000000000e+00  1.2442900176213262e-01 4.3850875686026530e-01 0.0000000000000000e+00  1.2403957879671076e-01 4.2641056184611392e-01 0.0000000000000000e+00  1.2433040521415001e-01 4.4727801670288297e-01 0.0000000000000000e+00  1.2392406613956858e-01 4.3571948196315280e-01 0.0000000000000000e+00  1.2422718313726329e-01 4.5609342993701613e-01 0.0000000000000000e+00  1.2383662051426905e-01 4.4473862105024625e-01 0.0000000000000000e+00  1.2415623755133619e-01 4.6464479328258240e-01 0.0000000000000000e+00  1.2376721304746632e-01 4.5354434556865514e-01 0.0000000000000000e+00  1.2407969161952971e-01 4.7327769909536804e-01 0.0000000000000000e+00  1.2366925663459639e-01 4.6254462469706287e-01 0.0000000000000000e+00  1.2399590278258764e-01 4.8201187678042190e-01 0.0000000000000000e+00  1.2358546656769118e-01 4.7135413204828897e-01 0.0000000000000000e+00  1.2396176385642708e-01 4.9034568285242613e-01 0.0000000000000000e+00  1.2352713211315877e-01 4.7987069083054879e-01 0.0000000000000000e+00  1.2392766816867770e-01 4.9872004271607379e-01 0.0000000000000000e+00  1.2342732268865862e-01 4.8869451894347793e-01 0.0000000000000000e+00  1.2387607442958555e-01 5.0728341737118088e-01 0.0000000000000000e+00  1.2334502181038794e-01 4.9731210960639627e-01 0.0000000000000000e+00  1.2388371178204395e-01 5.1533465262298594e-01 0.0000000000000000e+00  1.2329625825577828e-01 5.0560937894783820e-01 0.0000000000000000e+00  1.2387323128278523e-01 5.2352458477485697e-01 0.0000000000000000e+00  1.2319675171399370e-01 5.1438564035790690e-01 0.0000000000000000e+00  1.2383953009491025e-01 5.3184254847980117e-01 0.0000000000000000e+00  1.2314691006071035e-01 5.2280805714244438e-01 0.0000000000000000e+00  1.2386724136411763e-01 5.3946833855563037e-01 0.0000000000000000e+00  1.2312288645869454e-01 5.3116159427024767e-01 0.0000000000000000e+00  1.2382692313703481e-01 5.4748365394009246e-01 0.0000000000000000e+00  1.2305462922027229e-01 5.4013686604747946e-01 0.0000000000000000e+00  1.2379101133447443e-01 5.5518688802454463e-01 0.0000000000000000e+00  1.2308843415073011e-01 5.4847286799824202e-01 0.0000000000000000e+00  1.2378607067114375e-01 5.6231309198987400e-01 0.0000000000000000e+00  1.2308799266208462e-01 5.5739964908115092e-01 0.0000000000000000e+00  1.2367627117163495e-01 5.7007642441461848e-01 0.0000000000000000e+00  1.2310579731549144e-01 5.6642326406125387e-01 0.0000000000000000e+00  1.2365140041913436e-01 5.7682836459688602e-01 0.0000000000000000e+00  1.2320767569411768e-01 5.7490170136830843e-01 0.0000000000000000e+00  1.2355269637540416e-01 5.8405071554709054e-01 0.0000000000000000e+00  1.2320845914314869e-01 5.8440991764395733e-01 0.0000000000000000e+00  1.2345035111056124e-01 5.9119822732949112e-01 0.0000000000000000e+00  1.2334308599114439e-01 5.9277086179002747e-01 0.0000000000000000e+00  1.2341526819915963e-01 5.9771787395994957e-01 0.0000000000000000e+00  1.2337972487587803e-01 6.0198072340341846e-01 0.0000000000000000e+00  1.2325401311114682e-01 6.0539900178992967e-01 0.0000000000000000e+00  1.2346365024310618e-01 6.1068527023094588e-01 0.0000000000000000e+00  1.2326019387538775e-01 6.1167161656360114e-01 0.0000000000000000e+00  1.2356779471007709e-01 6.1909005871986300e-01 0.0000000000000000e+00  1.2310385389627715e-01 6.1951027369119560e-01 0.0000000000000000e+00  1.2357219014993176e-01 6.2823601543622554e-01 0.0000000000000000e+00  1.2310146028937544e-01 6.2611267126697812e-01 0.0000000000000000e+00  1.2373045368425908e-01 6.3584815301252318e-01 0.0000000000000000e+00  1.2300267478899912e-01 6.3372939271146056e-01 0.0000000000000000e+00  1.2367227136195887e-01 6.4520913191421914e-01 0.0000000000000000e+00  1.2296204844784751e-01 6.4099478180430525e-01 0.0000000000000000e+00  1.2385031731868215e-01 6.5227401893363623e-01 0.0000000000000000e+00  1.2294197682426357e-01 6.4825809479301766e-01 0.0000000000000000e+00  1.2375463514675844e-01 6.6157572239627360e-01 0.0000000000000000e+00  1.2285998327588518e-01 6.5626008151842086e-01 0.0000000000000000e+00  1.2392666603886560e-01 6.6828969696480411e-01 0.0000000000000000e+00  1.2291625374349419e-01 6.6321193742324602e-01 0.0000000000000000e+00  1.2380645230636514e-01 6.7741463213886455e-01 0.0000000000000000e+00  1.2279968600799672e-01 6.7187208272809562e-01 0.0000000000000000e+00  1.2397137538557174e-01 6.8382926240631281e-01 0.0000000000000000e+00  1.2292013627051607e-01 6.7855657609886644e-01 0.0000000000000000e+00  1.2382748837571901e-01 6.9285721392019028e-01 0.0000000000000000e+00  1.2277220549331244e-01 6.8773951243433817e-01 0.0000000000000000e+00  1.2400068598095622e-01 6.9895725291087951e-01 0.0000000000000000e+00  1.2292902468235342e-01 6.9427411045823062e-01 0.0000000000000000e+00  1.2382273383777168e-01 7.0811448810767519e-01 0.0000000000000000e+00  1.2277348801463940e-01 7.0363757640829439e-01 0.0000000000000000e+00  1.2405127289201621e-01 7.1360066983731618e-01 0.0000000000000000e+00  1.2292615364349672e-01 7.1027983908820513e-01 0.0000000000000000e+00  1.2380346231847821e-01 7.2329143409876706e-01 0.0000000000000000e+00  1.2279894490620617e-01 7.1943903593379499e-01 0.0000000000000000e+00  1.2412461198738498e-01 7.2787499299166547e-01 0.0000000000000000e+00  1.2286691272359301e-01 7.2688365399557664e-01 0.0000000000000000e+00  1.2377776028690378e-01 7.3836828431238444e-01 0.0000000000000000e+00  1.2285394148993913e-01 7.3507278100972973e-01 0.0000000000000000e+00  1.2419813644320304e-01 7.4198753259301498e-01 0.0000000000000000e+00  1.2273953187244815e-01 7.4418895034079424e-01 0.0000000000000000e+00  1.2385718899401560e-01 7.5236159516631507e-01 0.0000000000000000e+00  1.2298975727165685e-01 7.5004971939392240e-01 0.0000000000000000e+00  1.2422667019193476e-01 7.5640949511213740e-01 0.0000000000000000e+00  1.2252276905168957e-01 7.6227408243631944e-01 0.0000000000000000e+00  1.2408586602777395e-01 7.6503892579419897e-01 0.0000000000000000e+00  1.2301897189588923e-01 7.6583203368139907e-01 0.0000000000000000e+00  1.2410047823136484e-01 7.7237194643739915e-01 0.0000000000000000e+00  1.2239101912146876e-01 7.7929123347486895e-01 0.0000000000000000e+00  1.2456524153235715e-01 7.7581207468858049e-01 0.0000000000000000e+00  1.2274377270454048e-01 7.8385684786402410e-01 0.0000000000000000e+00  1.2400814106325410e-01 7.8851196888645958e-01 0.0000000000000000e+00  1.2257383079660940e-01 7.9290793173910823e-01 0.0000000000000000e+00  1.2486276630072778e-01 7.8878017728824623e-01 0.0000000000000000e+00  1.2202509485529230e-01 8.0518362563900980e-01 0.0000000000000000e+00  1.2441862708818349e-01 8.0074224071311118e-01 0.0000000000000000e+00  1.2283526765492964e-01 8.0523723628862087e-01 0.0000000000000000e+00  1.2448872156548743e-01 8.0819227059734355e-01 0.0000000000000000e+00  1.2185067112382290e-01 8.2123868314214266e-01 0.0000000000000000e+00  1.2543257514507036e-01 8.0784748584597343e-01 0.0000000000000000e+00  1.2220943738338938e-01 8.2529072987068819e-01 0.0000000000000000e+00  1.2432052493723252e-01 8.2577357508361970e-01 0.0000000000000000e+00  1.2292153865158029e-01 8.2625413544491177e-01 0.0000000000000000e+00  1.2499305997876223e-01 8.2770441481335721e-01 0.0000000000000000e+00  1.2149970748448756e-01 8.4634913980586091e-01 0.0000000000000000e+00  1.2557609507949721e-01 8.3027249573460959e-01 0.0000000000000000e+00  1.2250770101341008e-01 8.4494063623447635e-01 0.0000000000000000e+00  1.2367415234185630e-01 8.5483798262978983e-01 0.0000000000000000e+00  1.2353463212219085e-01 8.4345422663449576e-01 0.0000000000000000e+00  1.2445193453947849e-01 8.5542934349641053e-01 0.0000000000000000e+00  1.2163584728967654e-01 8.6817189292295738e-01 0.0000000000000000e+00  1.2555312726892093e-01 8.5300302784569004e-01 0.0000000000000000e+00  1.2270103145724516e-01 8.6656534956633491e-01 0.0000000000000000e+00  1.2281190694461992e-01 8.8472597944670706e-01 0.0000000000000000e+00  1.2526157660833726e-01 8.5162277339445036e-01 0.0000000000000000e+00  1.2235466254452418e-01 8.9604829970433064e-01 0.0000000000000000e+00  1.2325199955211154e-01 8.7753835338253761e-01 0.0000000000000000e+00  1.2542896978555074e-01 8.7587771269911796e-01 0.0000000000000000e+00  1.2146522410327056e-01 9.0148194820967309e-01 0.0000000000000000e+00  1.2436886429256938e-01 8.9245004237733938e-01 0.0000000000000000e+00  1.2520864915194302e-01 8.7622349987143100e-01 0.0000000000000000e+00  1.1971371929325715e-01 9.4090226059719839e-01 0.0000000000000000e+00  1.2818137195625690e-01 8.5777161234439592e-01 0.0000000000000000e+00  1.1989707823791550e-01 9.4625709840298244e-01 0.0000000000000000e+00  1.2477575807814897e-01 8.9645042000229969e-01 0.0000000000000000e+00  1.2558300543618423e-01 9.0256880085084779e-01 0.0000000000000000e+00  1.1912159328728265e-01 9.5509619819518865e-01 0.0000000000000000e+00  1.2913457744947812e-01 8.7768924006718352e-01 0.0000000000000000e+00  1.1858242537743821e-01 9.6821081201445713e-01 0.0000000000000000e+00  1.2656142631361245e-01 9.0751747820976691e-01 0.0000000000000000e+00  1.2374874306912152e-01 9.3043273191015607e-01 0.0000000000000000e+00  1.2040171490718603e-01 9.6931541397348286e-01 0.0000000000000000e+00  1.2945244028667308e-01 8.8752010983518748e-01 0.0000000000000000e+00  1.1549844393008579e-01 1.0202160757914811e+00 0.0000000000000000e+00  1.3220303884897916e-01 8.7052750963641778e-01 0.0000000000000000e+00  1.1410525889843126e-01 1.0402894674210736e+00 0.0000000000000000e+00  1.3213924827513565e-01 8.7827118937576387e-01 0.0000000000000000e+00  1.1528032402322534e-01 1.0379933982986556e+00 0.0000000000000000e+00  1.3064718642017861e-01 8.9811854975790195e-01 0.0000000000000000e+00  1.1736997680793461e-01 1.0283499633613020e+00 0.0000000000000000e+00  1.2883709009546149e-01 9.1983841947873479e-01 0.0000000000000000e+00  1.1936326710470622e-01 1.0206612306080081e+00 0.0000000000000000e+00  1.2726181020183203e-01 9.3819245751695424e-01 0.0000000000000000e+00  1.2093238999751339e-01 1.0181505228003800e+00 0.0000000000000000e+00  1.2605156433841685e-01 9.5166398214521941e-01 0.0000000000000000e+00  1.2210639898013100e-01 1.0209327301479041e+00 0.0000000000000000e+00  1.2514437405374085e-01 9.6037688171640978e-01 0.0000000000000000e+00  1.2300394339836530e-01 1.0284088842700405e+00 0.0000000000000000e+00  1.2445115332327840e-01 9.6463541377050932e-01 0.0000000000000000e+00  1.2371122066616926e-01 1.0403237622860808e+00 0.0000000000000000e+00  1.2390981317308640e-01 9.6447313667401080e-01 0.0000000000000000e+00  1.2427847368365062e-01 1.0567286277148227e+00 0.0000000000000000e+00  1.2347013968449687e-01 9.5984897419169124e-01 0.0000000000000000e+00  1.2475413384159048e-01 1.0775724417416006e+00 0.0000000000000000e+00  1.2304939248314167e-01 9.5115052951479540e-01 0.0000000000000000e+00  1.2522365869643545e-01 1.1022225985834468e+00 0.0000000000000000e+00  1.2253419824095280e-01 9.3933486205713712e-01 0.0000000000000000e+00  1.2582418189975905e-01 1.1291860390434680e+00 0.0000000000000000e+00  1.2180742364538216e-01 9.2587731470190060e-01 0.0000000000000000e+00  1.2668461082545437e-01 1.1564981275038466e+00 0.0000000000000000e+00  1.2085179314849342e-01 9.1202267367600864e-01 0.0000000000000000e+00  1.2790223919073188e-01 1.1818346684111025e+00 0.0000000000000000e+00  1.1987282669529813e-01 8.9778599185943653e-01 0.0000000000000000e+00  1.2933255319202241e-01 1.2043751557245495e+00 0.0000000000000000e+00  1.1934726527542187e-01 8.8149564666403801e-01 0.0000000000000000e+00  1.3070212010968241e-01 1.2239325972916379e+00 0.0000000000000000e+00  1.1976863000951592e-01 8.6188663975397761e-01 0.0000000000000000e+00  1.3173069436273313e-01 1.2401272741973333e+00 0.0000000000000000e+00  1.2231212796652471e-01 8.3177624761824498e-01 0.0000000000000000e+00  1.2831923850882276e-01 1.2863591222631654e+00 0.0000000000000000e+00  1.2700785642371537e-01 7.9376992159709059e-01 0.0000000000000000e+00  1.1942179001993126e-01 1.3715541947768479e+00 0.0000000000000000e+00  1.1754241600113087e-01 8.9718607909610648e-01 0.0000000000000000e+00  1.2731590103203214e-01 1.2938971964385673e+00 0.0000000000000000e+00  1.1606595779739239e-01 9.3885917394798957e-01 0.0000000000000000e+00  1.2893009267806782e-01 1.2629612841275946e+00 0.0000000000000000e+00  1.1624900942038330e-01 9.7453241992221140e-01 0.0000000000000000e+00  1.3087484359466972e-01 1.2220260767956836e+00 0.0000000000000000e+00  1.1350333906387410e-01 1.0416894969478088e+00 0.0000000000000000e+00  1.3202272591909822e-01 1.1857538672078904e+00 0.0000000000000000e+00  1.1741339776958615e-01 1.0485063223196938e+00 0.0000000000000000e+00  1.2618726325825236e-01 1.2135921355883454e+00 0.0000000000000000e+00  1.2656208777363431e-01 1.0027827450251001e+00 0.0000000000000000e+00  1.1982895564346725e-01 1.2535044647067770e+00 0.0000000000000000e+00  1.3284397726960206e-01 9.7302387240522537e-01 0.0000000000000000e+00  1.1759218389973344e-01 1.2676949119391816e+00 0.0000000000000000e+00  1.2173960654697054e-01 1.0861179504273766e+00 0.0000000000000000e+00  1.3182482341036214e-01 1.1470093246869930e+00 0.0000000000000000e+00  1.1192784577077665e-01 1.1783915762681587e+00 0.0000000000000000e+00  1.3087054653624050e-01 1.1717362565807889e+00 0.0000000000000000e+00  1.2637631204787322e-01 1.0466071348582950e+00 0.0000000000000000e+00  1.1904429723126646e-01 1.2979602438860824e+00 0.0000000000000000e+00  1.3990346079406291e-01 9.2196826139608834e-01 0.0000000000000000e+00  1.159968