<?xml version="1.0"?>
<VTKFile type="UnstructuredGrid"  version="0.1"  >
<UnstructuredGrid>
<Piece  NumberOfPoints="801" NumberOfCells="800">
<Points>
<DataArray  type="Float64"  NumberOfComponents="3"  format="ascii">-5 0 0  -4.9875 0 0  -4.975 0 0  -4.9625 0 0  -4.95 0 0  -4.9375 0 0  -4.925 0 0  -4.9125 0 0  -4.9 0 0  -4.8875 0 0  -4.875 0 0  -4.8625 0 0  -4.85 0 0  -4.8375 0 0  -4.825 0 0  -4.8125 0 0  -4.8 0 0  -4.7875 0 0  -4.775 0 0  -4.7625 0 0  -4.75 0 0  -4.7375 0 0  -4.725 0 0  -4.7125 0 0  -4.7 0 0  -4.6875 0 0  -4.675 0 0  -4.6625 0 0  -4.65 0 0  -4.6375 0 0  -4.625 0 0  -4.6125 0 0  -4.6 0 0  -4.5875 0 0  -4.575 0 0  -4.5625 0 0  -4.55 0 0  -4.5375 0 0  -4.525 0 0  -4.5125 0 0  -4.5 0 0  -4.4875 0 0  -4.475 0 0  -4.4625 0 0  -4.45 0 0  -4.4375 0 0  -4.425 0 0  -4.4125 0 0  -4.4 0 0  -4.3875 0 0  -4.375 0 0  -4.3625 0 0  -4.35 0 0  -4.3375 0 0  -4.325 0 0  -4.3125 0 0  -4.3 0 0  -4.2875 0 0  -4.275 0 0  -4.2625 0 0  -4.25 0 0  -4.2375 0 0  -4.225 0 0  -4.2125 0 0  -4.2 0 0  -4.1875 0 0  -4.175 0 0  -4.1625 0 0  -4.15 0 0  -4.1375 0 0  -4.125 0 0  -4.1125 0 0  -4.1 0 0  -4.0875 0 0  -4.075 0 0  -4.0625 0 0  -4.05 0 0  -4.0375 0 0  -4.025 0 0  -4.0125 0 0  -4 0 0  -3.9875 0 0  -3.975 0 0  -3.9625 0 0  -3.95 0 0  -3.9375 0 0  -3.925 0 0  -3.9125 0 0  -3.9 0 0  -3.8875 0 0  -3.875 0 0  -3.8625 0 0  -3.85 0 0  -3.8375 0 0  -3.825 0 0  -3.8125 0 0  -3.8 0 0  -3.7875 0 0  -3.775 0 0  -3.7625 0 0  -3.75 0 0  -3.7375 0 0  -3.725 0 0  -3.7125 0 0  -3.7 0 0  -3.6875 0 0  -3.675 0 0  -3.6625 0 0  -3.65 0 0  -3.6375 0 0  -3.625 0 0  -3.6125 0 0  -3.6 0 0  -3.5875 0 0  -3.575 0 0  -3.5625 0 0  -3.55 0 0  -3.5375 0 0  -3.525 0 0  -3.5125 0 0  -3.5 0 0  -3.4875 0 0  -3.475 0 0  -3.4625 0 0  -3.45 0 0  -3.4375 0 0  -3.425 0 0  -3.4125 0 0  -3.4 0 0  -3.3875 0 0  -3.375 0 0  -3.3625 0 0  -3.35 0 0  -3.3375 0 0  -3.325 0 0  -3.3125 0 0  -3.3 0 0  -3.2875 0 0  -3.275 0 0  -3.2625 0 0  -3.25 0 0  -3.2375 0 0  -3.225 0 0  -3.2125 0 0  -3.2 0 0  -3.1875 0 0  -3.175 0 0  -3.1625 0 0  -3.15 0 0  -3.1375 0 0  -3.125 0 0  -3.1125 0 0  -3.1 0 0  -3.0875 0 0  -3.075 0 0  -3.0625 0 0  -3.05 0 0  -3.0375 0 0  -3.025 0 0  -3.0125 0 0  -3 0 0  -2.9875 0 0  -2.975 0 0  -2.9625 0 0  -2.95 0 0  -2.9375 0 0  -2.925 0 0  -2.9125 0 0  -2.9 0 0  -2.8875 0 0  -2.875 0 0  -2.8625 0 0  -2.85 0 0  -2.8375 0 0  -2.825 0 0  -2.8125 0 0  -2.8 0 0  -2.7875 0 0  -2.775 0 0  -2.7625 0 0  -2.75 0 0  -2.7375 0 0  -2.725 0 0  -2.7125 0 0  -2.7 0 0  -2.6875 0 0  -2.675 0 0  -2.6625 0 0  -2.65 0 0  -2.6375 0 0  -2.625 0 0  -2.6125 0 0  -2.6 0 0  -2.5875 0 0  -2.575 0 0  -2.5625 0 0  -2.55 0 0  -2.5375 0 0  -2.525 0 0  -2.5125 0 0  -2.5 0 0  -2.4875 0 0  -2.475 0 0  -2.4625 0 0  -2.45 0 0  -2.4375 0 0  -2.425 0 0  -2.4125 0 0  -2.4 0 0  -2.3875 0 0  -2.375 0 0  -2.3625 0 0  -2.35 0 0  -2.3375 0 0  -2.325 0 0  -2.3125 0 0  -2.3 0 0  -2.2875 0 0  -2.275 0 0  -2.2625 0 0  -2.25 0 0  -2.2375 0 0  -2.225 0 0  -2.2125 0 0  -2.2 0 0  -2.1875 0 0  -2.175 0 0  -2.1625 0 0  -2.15 0 0  -2.1375 0 0  -2.125 0 0  -2.1125 0 0  -2.1 0 0  -2.0875 0 0  -2.075 0 0  -2.0625 0 0  -2.05 0 0  -2.0375 0 0  -2.025 0 0  -2.0125 0 0  -2 0 0  -1.9875 0 0  -1.975 0 0  -1.9625 0 0  -1.95 0 0  -1.9375 0 0  -1.925 0 0  -1.9125 0 0  -1.9 0 0  -1.8875 0 0  -1.875 0 0  -1.8625 0 0  -1.85 0 0  -1.8375 0 0  -1.825 0 0  -1.8125 0 0  -1.8 0 0  -1.7875 0 0  -1.775 0 0  -1.7625 0 0  -1.75 0 0  -1.7375 0 0  -1.725 0 0  -1.7125 0 0  -1.7 0 0  -1.6875 0 0  -1.675 0 0  -1.6625 0 0  -1.65 0 0  -1.6375 0 0  -1.625 0 0  -1.6125 0 0  -1.6 0 0  -1.5875 0 0  -1.575 0 0  -1.5625 0 0  -1.55 0 0  -1.5375 0 0  -1.525 0 0  -1.5125 0 0  -1.5 0 0  -1.4875 0 0  -1.475 0 0  -1.4625 0 0  -1.45 0 0  -1.4375 0 0  -1.425 0 0  -1.4125 0 0  -1.4 0 0  -1.3875 0 0  -1.375 0 0  -1.3625 0 0  -1.35 0 0  -1.3375 0 0  -1.325 0 0  -1.3125 0 0  -1.3 0 0  -1.2875 0 0  -1.275 0 0  -1.2625 0 0  -1.25 0 0  -1.2375 0 0  -1.225 0 0  -1.2125 0 0  -1.2 0 0  -1.1875 0 0  -1.175 0 0  -1.1625 0 0  -1.15 0 0  -1.1375 0 0  -1.125 0 0  -1.1125 0 0  -1.1 0 0  -1.0875 0 0  -1.075 0 0  -1.0625 0 0  -1.05 0 0  -1.0375 0 0  -1.025 0 0  -1.0125 0 0  -1 0 0  -0.9874999999999998 0 0  -0.9749999999999996 0 0  -0.9625000000000004 0 0  -0.9500000000000002 0 0  -0.9375 0 0  -0.9249999999999998 0 0  -0.9124999999999996 0 0  -0.9000000000000004 0 0  -0.8875000000000002 0 0  -0.875 0 0  -0.8624999999999998 0 0  -0.8499999999999996 0 0  -0.8375000000000004 0 0  -0.8250000000000002 0 0  -0.8125 0 0  -0.7999999999999998 0 0  -0.7874999999999996 0 0  -0.7750000000000004 0 0  -0.7625000000000002 0 0  -0.75 0 0  -0.7374999999999998 0 0  -0.7249999999999996 0 0  -0.7125000000000004 0 0  -0.7000000000000002 0 0  -0.6875 0 0  -0.6749999999999998 0 0  -0.6624999999999996 0 0  -0.6500000000000004 0 0  -0.6375000000000002 0 0  -0.625 0 0  -0.6124999999999998 0 0  -0.5999999999999996 0 0  -0.5875000000000004 0 0  -0.5750000000000002 0 0  -0.5625 0 0  -0.5499999999999998 0 0  -0.5374999999999996 0 0  -0.5250000000000004 0 0  -0.5125000000000002 0 0  -0.5 0 0  -0.4874999999999998 0 0  -0.4749999999999996 0 0  -0.4625000000000004 0 0  -0.4500000000000002 0 0  -0.4375 0 0  -0.4249999999999998 0 0  -0.4124999999999996 0 0  -0.4000000000000004 0 0  -0.3875000000000002 0 0  -0.375 0 0  -0.3624999999999998 0 0  -0.3499999999999996 0 0  -0.3375000000000004 0 0  -0.3250000000000002 0 0  -0.3125 0 0  -0.2999999999999998 0 0  -0.2874999999999996 0 0  -0.2750000000000004 0 0  -0.2625000000000002 0 0  -0.25 0 0  -0.2374999999999998 0 0  -0.2249999999999996 0 0  -0.2125000000000004 0 0  -0.2000000000000002 0 0  -0.1875 0 0  -0.1749999999999998 0 0  -0.1624999999999996 0 0  -0.1500000000000004 0 0  -0.1375000000000002 0 0  -0.125 0 0  -0.1124999999999998 0 0  -0.09999999999999964 0 0  -0.08750000000000036 0 0  -0.07500000000000018 0 0  -0.0625 0 0  -0.04999999999999982 0 0  -0.03749999999999964 0 0  -0.02500000000000036 0 0  -0.01250000000000018 0 0  0 0 0  0.01250000000000018 0 0  0.02500000000000036 0 0  0.03749999999999964 0 0  0.04999999999999982 0 0  0.0625 0 0  0.07500000000000018 0 0  0.08750000000000036 0 0  0.09999999999999964 0 0  0.1124999999999998 0 0  0.125 0 0  0.1375000000000002 0 0  0.1500000000000004 0 0  0.1624999999999996 0 0  0.1749999999999998 0 0  0.1875 0 0  0.2000000000000002 0 0  0.2125000000000004 0 0  0.2249999999999996 0 0  0.2374999999999998 0 0  0.25 0 0  0.2625000000000002 0 0  0.2750000000000004 0 0  0.2874999999999996 0 0  0.2999999999999998 0 0  0.3125 0 0  0.3250000000000002 0 0  0.3375000000000004 0 0  0.3499999999999996 0 0  0.3624999999999998 0 0  0.375 0 0  0.3875000000000002 0 0  0.4000000000000004 0 0  0.4124999999999996 0 0  0.4249999999999998 0 0  0.4375 0 0  0.4500000000000002 0 0  0.4625000000000004 0 0  0.4749999999999996 0 0  0.4874999999999998 0 0  0.5 0 0  0.5125000000000002 0 0  0.5250000000000004 0 0  0.5374999999999996 0 0  0.5499999999999998 0 0  0.5625 0 0  0.5750000000000002 0 0  0.5875000000000004 0 0  0.5999999999999996 0 0  0.6124999999999998 0 0  0.625 0 0  0.6375000000000002 0 0  0.6500000000000004 0 0  0.6624999999999996 0 0  0.6749999999999998 0 0  0.6875 0 0  0.7000000000000002 0 0  0.7125000000000004 0 0  0.7249999999999996 0 0  0.7374999999999998 0 0  0.75 0 0  0.7625000000000002 0 0  0.7750000000000004 0 0  0.7874999999999996 0 0  0.7999999999999998 0 0  0.8125 0 0  0.8250000000000002 0 0  0.8375000000000004 0 0  0.8499999999999996 0 0  0.8624999999999998 0 0  0.875 0 0  0.8875000000000002 0 0  0.9000000000000004 0 0  0.9124999999999996 0 0  0.9249999999999998 0 0  0.9375 0 0  0.9500000000000002 0 0  0.9625000000000004 0 0  0.9749999999999996 0 0  0.9874999999999998 0 0  1 0 0  1.0125 0 0  1.025 0 0  1.0375 0 0  1.05 0 0  1.0625 0 0  1.075 0 0  1.0875 0 0  1.1 0 0  1.1125 0 0  1.125 0 0  1.1375 0 0  1.15 0 0  1.1625 0 0  1.175 0 0  1.1875 0 0  1.2 0 0  1.2125 0 0  1.225 0 0  1.2375 0 0  1.25 0 0  1.2625 0 0  1.275 0 0  1.2875 0 0  1.3 0 0  1.3125 0 0  1.325 0 0  1.3375 0 0  1.35 0 0  1.3625 0 0  1.375 0 0  1.3875 0 0  1.4 0 0  1.4125 0 0  1.425 0 0  1.4375 0 0  1.45 0 0  1.4625 0 0  1.475 0 0  1.4875 0 0  1.5 0 0  1.5125 0 0  1.525 0 0  1.5375 0 0  1.55 0 0  1.5625 0 0  1.575 0 0  1.5875 0 0  1.6 0 0  1.6125 0 0  1.625 0 0  1.6375 0 0  1.65 0 0  1.6625 0 0  1.675 0 0  1.6875 0 0  1.7 0 0  1.7125 0 0  1.725 0 0  1.7375 0 0  1.75 0 0  1.7625 0 0  1.775 0 0  1.7875 0 0  1.8 0 0  1.8125 0 0  1.825 0 0  1.8375 0 0  1.85 0 0  1.8625 0 0  1.875 0 0  1.8875 0 0  1.9 0 0  1.9125 0 0  1.925 0 0  1.9375 0 0  1.95 0 0  1.9625 0 0  1.975 0 0  1.9875 0 0  2 0 0  2.0125 0 0  2.025 0 0  2.0375 0 0  2.05 0 0  2.0625 0 0  2.075 0 0  2.0875 0 0  2.1 0 0  2.1125 0 0  2.125 0 0  2.1375 0 0  2.15 0 0  2.1625 0 0  2.175 0 0  2.1875 0 0  2.2 0 0  2.2125 0 0  2.225 0 0  2.2375 0 0  2.25 0 0  2.2625 0 0  2.275 0 0  2.2875 0 0  2.3 0 0  2.3125 0 0  2.325 0 0  2.3375 0 0  2.35 0 0  2.3625 0 0  2.375 0 0  2.3875 0 0  2.4 0 0  2.4125 0 0  2.425 0 0  2.4375 0 0  2.45 0 0  2.4625 0 0  2.475 0 0  2.4875 0 0  2.5 0 0  2.5125 0 0  2.525 0 0  2.5375 0 0  2.55 0 0  2.5625 0 0  2.575 0 0  2.5875 0 0  2.6 0 0  2.6125 0 0  2.625 0 0  2.6375 0 0  2.65 0 0  2.6625 0 0  2.675 0 0  2.6875 0 0  2.7 0 0  2.7125 0 0  2.725 0 0  2.7375 0 0  2.75 0 0  2.7625 0 0  2.775 0 0  2.7875 0 0  2.8 0 0  2.8125 0 0  2.825 0 0  2.8375 0 0  2.85 0 0  2.8625 0 0  2.875 0 0  2.8875 0 0  2.9 0 0  2.9125 0 0  2.925 0 0  2.9375 0 0  2.95 0 0  2.9625 0 0  2.975 0 0  2.9875 0 0  3 0 0  3.012499999999999 0 0  3.025 0 0  3.0375 0 0  3.050000000000001 0 0  3.0625 0 0  3.074999999999999 0 0  3.0875 0 0  3.1 0 0  3.112500000000001 0 0  3.125 0 0  3.137499999999999 0 0  3.15 0 0  3.1625 0 0  3.175000000000001 0 0  3.1875 0 0  3.199999999999999 0 0  3.2125 0 0  3.225 0 0  3.237500000000001 0 0  3.25 0 0  3.262499999999999 0 0  3.275 0 0  3.2875 0 0  3.300000000000001 0 0  3.3125 0 0  3.324999999999999 0 0  3.3375 0 0  3.35 0 0  3.362500000000001 0 0  3.375 0 0  3.387499999999999 0 0  3.4 0 0  3.4125 0 0  3.425000000000001 0 0  3.4375 0 0  3.449999999999999 0 0  3.4625 0 0  3.475 0 0  3.4875
[...]
<PointData  Vectors="(h, u)"> 
<DataArray  type="Float64"  Name="(h, u)"  NumberOfComponents="3" format="ascii">2.7077998107622442e-01 0.0000000000000000e+00 0.0000000000000000e+00  2.7079807847562398e-01 7.5054666669556527e-03 0.0000000000000000e+00  2.7077678318068849e-01 1.5032308601293221e-02 0.0000000000000000e+00  2.7079169290804339e-01 2.2516672514087840e-02 0.0000000000000000e+00  2.7076718837449099e-01 3.0065147689219248e-02 0.0000000000000000e+00  2.7077891932961268e-01 3.7528696098038196e-02 0.0000000000000000e+00  2.7075119328284480e-01 4.5099048160245354e-02 0.0000000000000000e+00  2.7075975281656384e-01 5.2542083291705476e-02 0.0000000000000000e+00  2.7072879222527668e-01 6.0134541865798585e-02 0.0000000000000000e+00  2.7073418588795667e-01 6.7557381249564535e-02 0.0000000000000000e+00  2.7069997712247251e-01 7.5172162404139514e-02 0.0000000000000000e+00  2.7070220838594855e-01 8.2575139339716760e-02 0.0000000000000000e+00  2.7066473735117030e-01 9.0212446215603759e-02 0.0000000000000000e+00  2.7066380731369427e-01 9.7595910449165879e-02 0.0000000000000000e+00  2.7062305954529164e-01 1.0525593397758100e-01 0.0000000000000000e+00  2.7061896663619117e-01 1.1262025265371485e-01 0.0000000000000000e+00  2.7057492735495486e-01 1.2030317225510771e-01 0.0000000000000000e+00  2.7056766705610641e-01 1.2764873110954697e-01 0.0000000000000000e+00  2.7052032120015401e-01 1.3535471528118884e-01 0.0000000000000000e+00  2.7050988579342405e-01 1.4268191984446890e-01 0.0000000000000000e+00  2.7045921807913570e-01 1.5041112663275885e-01 0.0000000000000000e+00  2.7044559641326027e-01 1.5772040304903040e-01 0.0000000000000000e+00  2.7039159149456571e-01 1.6547298046743136e-01 0.0000000000000000e+00  2.7037476876823657e-01 1.7276477548316382e-01 0.0000000000000000e+00  2.7031741155455885e-01 1.8054086182343687e-01 0.0000000000000000e+00  2.7029736914016095e-01 1.8781564172962911e-01 0.0000000000000000e+00  2.7023664526521279e-01 1.9561536552590397e-01 0.0000000000000000e+00  2.7021336062853751e-01 2.0287361439295271e-01 0.0000000000000000e+00  2.7014925696870495e-01 2.1069709359552327e-01 0.0000000000000000e+00  2.7012270376615960e-01 2.1793931162930386e-01 0.0000000000000000e+00  2.7005520884323836e-01 2.2578665156747463e-01 0.0000000000000000e+00  2.7002535721960358e-01 2.3301335470301435e-01 0.0000000000000000e+00  2.6995446130323675e-01 2.4088464512700800e-01 0.0000000000000000e+00  2.6992127826417450e-01 2.4809636672950861e-01 0.0000000000000000e+00  2.6984697310525757e-01 2.5599167914230542e-01 0.0000000000000000e+00  2.6981042269302802e-01 2.6318897365025001e-01 0.0000000000000000e+00  2.6973270098921104e-01 2.7110836105080127e-01 0.0000000000000000e+00  2.6969274385952741e-01 2.7829180856814684e-01 0.0000000000000000e+00  2.6961159867422935e-01 2.8623530994330654e-01 0.0000000000000000e+00  2.6956819081272460e-01 2.9340551999118042e-01 0.0000000000000000e+00  2.6948361527916365e-01 3.0137316998149238e-01 0.0000000000000000e+00  2.6943670600282488e-01 3.0853078267344292e-01 0.0000000000000000e+00  2.6934869347213919e-01 3.1652262426279537e-01 0.0000000000000000e+00  2.6929822333549286e-01 3.2366830868663815e-01 0.0000000000000000e+00  2.6920676794021697e-01 3.3168440329785198e-01 0.0000000000000000e+00  2.6915266773802304e-01 3.3881885359023423e-01 0.0000000000000000e+00  2.6905776514883339e-01 3.4685928116019865e-01 0.0000000000000000e+00  2.6899995704166052e-01 3.5398321287927004e-01 0.0000000000000000e+00  2.6890160487767356e-01 3.6204805764890219e-01 0.0000000000000000e+00  2.6884000602198144e-01 3.6916220706353325e-01 0.0000000000000000e+00  2.6873820364227508e-01 3.7725152962152164e-01 0.0000000000000000e+00  2.6867273143782683e-01 3.8435665768314725e-01 0.0000000000000000e+00  2.6856747866348274e-01 3.9247046464839541e-01 0.0000000000000000e+00  2.6849805503224133e-01 3.9956736775541929e-01 0.0000000000000000e+00  2.6838934995614772e-01 4.0770559554251246e-01 0.0000000000000000e+00  2.6831590206590994e-01 4.1479511901848637e-01 0.0000000000000000e+00  2.6820373862639474e-01 4.2295764745390024e-01 0.0000000000000000e+00  2.6812619365672863e-01 4.3004069875471274e-01 0.0000000000000000e+00  2.6801055987902067e-01 4.3822740165583551e-01 0.0000000000000000e+00  2.6792883496237718e-01 4.4530495118138824e-01 0.0000000000000000e+00  2.6780971437598472e-01 4.5351576495742157e-01 0.0000000000000000e+00  2.6772370567691117e-01 4.6058882436336213e-01 0.0000000000000000e+00  2.6760108237435032e-01 4.6882380804273383e-01 0.0000000000000000e+00  2.6751065913816580e-01 4.7589338326217678e-01 0.0000000000000000e+00  2.6738452714450495e-01 4.8415272716968077e-01 0.0000000000000000e+00  2.6728953625377611e-01 4.9121975414654850e-01 0.0000000000000000e+00  2.6715990784306110e-01 4.9950372954591898e-01 0.0000000000000000e+00  2.6706018689619759e-01 5.0656903882397808e-01 0.0000000000000000e+00  2.6692709342548754e-01 5.1487790366803154e-01 0.0000000000000000e+00  2.6682248820580751e-01 5.2194224827352087e-01 0.0000000000000000e+00  2.6668596519473020e-01 5.3027616682086420e-01 0.0000000000000000e+00  2.6657633844542639e-01 5.3734036657037998e-01 0.0000000000000000e+00  2.6643639450165008e-01 5.4569938954416530e-01 0.0000000000000000e+00  2.6632162752892313e-01 5.5276452252487618e-01 0.0000000000000000e+00  2.6617821178495898e-01 5.6114861094629498e-01 0.0000000000000000e+00  2.6605819755670107e-01 5.6821618213551850e-01 0.0000000000000000e+00  2.6591118311674472e-01 5.7662524641467194e-01 0.0000000000000000e+00  2.6578583037124015e-01 5.8369714519876637e-01 0.0000000000000000e+00  2.6563504047065267e-01 5.9213099218630683e-01 0.0000000000000000e+00  2.6550428196279824e-01 5.9920924724352775e-01 0.0000000000000000e+00  2.6534953876150436e-01 6.0766756318071236e-01 0.0000000000000000e+00  2.6521333629742994e-01 6.1475396288926110e-01 0.0000000000000000e+00  2.6505451738523034e-01 6.2323636827981665e-01 0.0000000000000000e+00  2.6491282290515561e-01 6.3033227769557498e-01 0.0000000000000000e+00  2.6474985715006322e-01 6.3883876160663611e-01 0.0000000000000000e+00  2.6460254440037922e-01 6.4594517358709735e-01 0.0000000000000000e+00  2.6443539622503770e-01 6.5447647508892925e-01 0.0000000000000000e+00  2.6428219536410369e-01 6.6159423211953661e-01 0.0000000000000000e+00  2.6411081618221971e-01 6.7015217791681525e-01 0.0000000000000000e+00  2.6395134183759239e-01 6.7728191117796510e-01 0.0000000000000000e+00  2.6377573197149690e-01 6.8586877163217652e-01 0.0000000000000000e+00  2.6360959537662010e-01 6.9301063908018767e-01 0.0000000000000000e+00  2.6342979434728109e-01 7.0162863000531661e-01 0.0000000000000000e+00  2.6325673108605485e-01 7.0878220426867322e-01 0.0000000000000000e+00  2.6307282092679596e-01 7.1743272893431465e-01 0.0000000000000000e+00  2.6289266129293026e-01 7.2459794113673737e-01 0.0000000000000000e+00  2.6270448027855714e-01 7.3328259940534724e-01 0.0000000000000000e+00  2.6251711067314448e-01 7.4046063400287554e-01 0.0000000000000000e+00  2.6232424561694440e-01 7.4918074146190594e-01 0.0000000000000000e+00  2.6212956330128745e-01 7.5637466770964090e-01 0.0000000000000000e+00  2.6193126810914791e-01 7.6513161348845071e-01 0.0000000000000000e+00  2.6172951048512111e-01 7.7234427674773809e-01 0.0000000000000000e+00  2.6152515777658208e-01 7.8113710945307957e-01 0.0000000000000000e+00  2.6131673308639580e-01 7.8837157580654116e-01 0.0000000000000000e+00  2.6110556895577847e-01 7.9719931749911233e-01 0.0000000000000000e+00  2.6089115231639887e-01 8.0445728149867846e-01 0.0000000000000000e+00  2.6067229582615675e-01 8.1332007586748778e-01 0.0000000000000000e+00  2.6045181117564148e-01 8.2060687819382983e-01 0.0000000000000000e+00  2.6022415629530482e-01 8.2950782381247201e-01 0.0000000000000000e+00  2.5999790610404327e-01 8.3682435916856412e-01 0.0000000000000000e+00  2.5976054675848281e-01 8.4576794390289300e-01 0.0000000000000000e+00  2.5952832426933636e-01 8.5311527208259119e-01 0.0000000000000000e+00  2.5928142394949116e-01 8.6210260297127672e-01 0.0000000000000000e+00  2.5904363584856449e-01 8.6947478504146258e-01 0.0000000000000000e+00  2.5878610054438955e-01 8.7851782307420800e-01 0.0000000000000000e+00  2.5854187017198560e-01 8.8591399592449505e-01 0.0000000000000000e+00  2.5827394740595494e-01 8.9501881654695781e-01 0.0000000000000000e+00  2.5802199195498421e-01 9.0243888917288417e-01 0.0000000000000000e+00  2.5774207871792376e-01 9.1162398264034561e-01 0.0000000000000000e+00  2.5748363710346800e-01 9.1905215155753162e-01 0.0000000000000000e+00  2.5719264953039950e-01 9.2831980164629335e-01 0.0000000000000000e+00  2.5692538404389659e-01 9.3576391550208116e-01 0.0000000000000000e+00  2.5662248257413905e-01 9.4512480518176989e-01 0.0000000000000000e+00  2.5634849150498351e-01 9.5256854100111732e-01 0.0000000000000000e+00  2.5602882902822977e-01 9.6205430851653995e-01 0.0000000000000000e+00  2.5574650799622373e-01 9.6950856936417529e-01 0.0000000000000000e+00  2.5541402070245506e-01 9.7909191126922990e-01 0.0000000000000000e+00  2.5512366887982441e-01 9.8656058395168589e-01 0.0000000000000000e+00  2.5477072658807576e-01 9.9628121980843265e-01 0.0000000000000000e+00  2.5447967956177348e-01 1.0037288279469914e+00 0.0000000000000000e+00  2.5410284223349894e-01 1.0135968991190689e+00 0.0000000000000000e+00  2.5380128369439170e-01 1.0210973679774351e+00 0.0000000000000000e+00  2.5340626437396652e-01 1.0310640982156161e+00 0.0000000000000000e+00  2.5310301814317848e-01 1.0385766902171962e+00 0.0000000000000000e+00  2.5267097931894034e-01 1.0487460501382897e+00 0.0000000000000000e+00  2.5237669559313813e-01 1.0562173216943220e+00 0.0000000000000000e+00  2.5191209978303242e-01 1.0665507963787597e+00 0.0000000000000000e+00  2.5160106308089747e-01 1.0741505333730161e+00 0.0000000000000000e+00  2.5111668008302629e-01 1.0845620276207875e+00 0.0000000000000000e+00  2.5080818335552740e-01 1.0921742703571793e+00 0.0000000000000000e+00  2.5026516682705269e-01 1.1029058077220741e+00 0.0000000000000000e+00  2.4998300697432724e-01 1.1103801916970353e+00 0.0000000000000000e+00  2.4938844014297601e-01 1.1213928680441496e+00 0.0000000000000000e+00  2.4907962910388004e-01 1.1290543344417416e+00 0.0000000000000000e+00  2.4848812452230901e-01 1.1400161805656843e+00 0.0000000000000000e+00  2.4815129965982838e-01 1.1478613426725504e+00 0.0000000000000000e+00  2.4750208569900911e-01 1.1591704831121725e+00 0.0000000000000000e+00  2.4721702375458937e-01 1.1666781755386300e+00 0.0000000000000000e+00  2.4644791747726086e-01 1.1787516361545614e+00 0.0000000000000000e+00  2.4620434359444240e-01 1.1859592915141215e+00 0.0000000000000000e+00  2.4542570824275214e-01 1.1981282007388736e+00 0.0000000000000000e+00  2.4508076243202750e-01 1.2059223369526899e+00 0.0000000000000000e+00  2.4438665379120422e-01 1.2175875314902180e+00 0.0000000000000000e+00  2.4393582315039944e-01 1.2260334289019486e+00 0.0000000000000000e+00  2.4324354359889652e-01 1.2376538501330496e+00 0.0000000000000000e+00  2.4289213435918156e-01 1.2455233289160434e+00 0.0000000000000000e+00  2.4197281259413286e-01 1.2585231767988778e+00 0.0000000000000000e+00  2.4190065806087624e-01 1.2645785679993686e+00 0.0000000000000000e+00  2.4069706582645981e-01 1.2796272138838927e+00 0.0000000000000000e+00  2.4092326432115371e-01 1.2831933355265877e+00 0.0000000000000000e+00  2.3952605647762462e-01 1.3004232749407723e+00 0.0000000000000000e+00  2.3990580590113650e-01 1.3018622056690816e+00 0.0000000000000000e+00  2.3846505022276548e-01 1.3201637618354880e+00 0.0000000000000000e+00  2.3904376920040327e-01 1.3207757704656948e+00 0.0000000000000000e+00  2.3733700119398121e-01 1.3379393689686219e+00 0.0000000000000000e+00  2.3846955339416270e-01 1.3410438207684878e+00 0.0000000000000000e+00  2.3613404996927367e-01 1.3532917195401672e+00 0.0000000000000000e+00  2.3802194866055776e-01 1.3607646116743726e+00 0.0000000000000000e+00  2.3541776705721840e-01 1.3708933256230238e+00 0.0000000000000000e+00  2.3657620965006096e-01 1.3728863495181656e+00 0.0000000000000000e+00  2.3662413558924905e-01 1.3991548464565882e+00 0.0000000000000000e+00  2.3302078346086044e-01 1.3705990643160277e+00 0.0000000000000000e+00  2.3940138759121371e-01 1.4367270363338585e+00 0.0000000000000000e+00  2.3022142939125009e-01 1.3716269260376059e+00 0.0000000000000000e+00  2.3711485865028042e-01 1.4420103355598226e+00 0.0000000000000000e+00  2.3769968285425680e-01 1.4390356034806728e+00 0.0000000000000000e+00  2.1587188764558318e-01 1.3245718653046679e+00 0.0000000000000000e+00  2.4888303102867293e-01 1.5140507843404267e+00 0.0000000000000000e+00  7.5535937754026783e-02 2.1141050470521544e-01 0.0000000000000000e+00  2.9677895454808954e-02 -1.4963222764748190e+00 0.0000000000000000e+00  3.5617403379840429e-02 -8.9870265974846719e-01 0.0000000000000000e+00  3.5594817208906684e-02 -1.0985234317811172e+00 0.0000000000000000e+00  3.4549710017210668e-02 -1.0288133019653869e+00 0.0000000000000000e+00  3.5378995485191460e-02 -1.0464992500454799e+00 0.0000000000000000e+00  3.4518822948413456e-02 -1.0347529460670519e+00 0.0000000000000000e+00  3.5261444685329608e-02 -1.0353348647653822e+00 0.0000000000000000e+00  3.4380351526438362e-02 -1.0269044145361048e+00 0.0000000000000000e+00  3.5196686007488355e-02 -1.0277189129499438e+00 0.0000000000000000e+00  3.4257281451075046e-02 -1.0182135048207399e+00 0.0000000000000000e+00  3.5124493468105471e-02 -1.0198009413026763e+00 0.0000000000000000e+00  3.4159191379193932e-02 -1.0096284605290109e+00 0.0000000000000000e+00  3.5050513710731895e-02 -1.0115568993758610e+00 0.0000000000000000e+00  3.4075330102858944e-02 -1.0010287309746539e+00 0.0000000000000000e+00  3.4980892883302861e-02 -1.0031277595203352e+00 0.0000000000000000e+00  3.4000376494423903e-02 -9.9235124021787224e-01 0.0000000000000000e+00  3.4917026394620181e-02 -9.9456905553204922e-01 0.0000000000000000e+00  3.3932387107419165e-02 -9.8358896836002319e-01 0.0000000000000000e+00  3.4858690964867697e-02 -9.8590214698754430e-01 0.0000000000000000e+00  3.3870379420396210e-02 -9.7474839051512763e-01 0.0000000000000000e+00  3.4805416098514161e-02 -9.7714015666726339e-01 0.0000000000000000e+00  3.3813622361485350e-02 -9.6583689623546298e-01 0.0000000000000000e+00  3.4756749996823114e-02 -9.6829374194060258e-01 0.0000000000000000e+00  3.3761520355534390e-02 -9.5686110056584228e-01 0.0000000000000000e+00  3.4712271048092526e-02 -9.5937191638113406e-01 0.0000000000000000e+00  3.3713588857355516e-02 -9.4782689942266241e-01 0.0000000000000000e+00  3.4671586382598735e-02 -9.5038237396785896e-01 0.0000000000000000e+00  3.3669427745398273e-02 -9.3873950188018529e-01 0.0000000000000000e+00  3.4634338080331506e-02 -9.4133179659923116e-01 0.0000000000000000e+00  3.3628697044932744e-02 -9.2960346921201009e-01 0.0000000000000000e+00  3.4600206706973856e-02 -9.3222603369167922e-01 0.0000000000000000e+00  3.3591100959019501e-02 -9.2042284395888718e-01 0.0000000000000000e+00  3.4568909948314505e-02 -9.2307015810101078e-01 0.0000000000000000e+00  3.3556378358292054e-02 -9.1120132380396723e-01 0.0000000000000000e+00  3.4540199019385126e-02 -9.1386847627331103e-01 0.0000000000000000e+00  3.3524296372342555e-02 -9.0194241143781584e-01 0.0000000000000000e+00  3.4513854979026780e-02 -9.0462455428172173e-01 0.0000000000000000e+00  3.3494645449845234e-02 -8.9264950458535508e-01 0.0000000000000000e+00  3.4489685324673412e-02 -8.9534128301891602e-01 0.0000000000000000e+00  3.3467235747317456e-02 -8.8332592310547031e-01 0.0000000000000000e+00  3.4467520355435821e-02 -8.8602098098029702e-01 0.0000000000000000e+00  3.3441895179627389e-02 -8.7397488470065665e-01 0.0000000000000000e+00  3.4447208838278905e-02 -8.7666552378489981e-01 0.0000000000000000e+00  3.3418469085993704e-02 -8.6459944667792110e-01 0.0000000000000000e+00  3.4428613084325002e-02 -8.6727648534100854e-01 0.0000000000000000e+00  3.3396821153309011e-02 -8.5520242940751734e-01 0.0000000000000000e+00  3.4411603673308644e-02 -8.5785528009474332e-01 0.0000000000000000e+00  3.3376834861999181e-02 -8.4578633805446879e-01 0.0000000000000000e+00  3.4396054969804739e-02 -8.4840328442694024e-01 0.0000000000000000e+00  3.3358414257994684e-02 -8.3635330437138855e-01 0.0000000000000000e+00  3.4381841554764501e-02 -8.3892193422090566e-01 0.0000000000000000e+00  3.3341484415938427e-02 -8.2690504274842613e-01 0.0000000000000000e+00  3.4368836490139935e-02 -8.2941278275623387e-01 0.0000000000000000e+00  3.3325988570544911e-02 -8.1744287202835941e-01 0.0000000000000000e+00  3.4356913161518718e-02 -8.1987748959704743e-01 0.0000000000000000e+00  3.3311885298647592e-02 -8.0796774485487655e-01 0.0000000000000000e+00  3.4345944846063022e-02 -8.1031784029184883e-01 0.0000000000000000e+00  3.3299144242928520e-02 -7.9848030965387751e-01 0.0000000000000000e+00  3.4335814158525886e-02 -8.0073559157731067e-01 0.0000000000000000e+00  3.3287732550846452e-02 -7.8898113742964204e-01 0.0000000000000000e+00  3.4326415906878877e-02 -7.9113242310990373e-01 0.0000000000000000e+00  3.3277623818076897e-02 -7.7947056971834972e-01 0.0000000000000000e+00  3.4317650937846979e-02 -7.8151003697638011e-01 0.0000000000000000e+00  3.3268774898166681e-02 -7.6994911987907355e-01 0.0000000000000000e+00  3.4309470018084279e-02 -7.7186940501514512e-01 0.0000000000000000e+00  3.3261109828100169e-02 -7.6041775425679503e-01 0.0000000000000000e+00  3.4301816323001458e-02 -7.6221173620487714e-01 0.0000000000000000e+00  3.3254608647872490e-02 -7.5087638597486384e-01 0.0000000000000000e+00  3.4294626157307426e-02 -7.5253844952142157e-01 0.0000000000000000e+00  3.3249144127792174e-02 -7.4132667683115894e-01 0.0000000000000000e+00  3.4288024526024821e-02 -7.4284784331068232e-01 0.0000000000000000e+00  3.3244532566096795e-02 -7.3177117412882520e-01 0.0000000000000000e+00  3.4281902225894688e-02 -7.3314226965817908e-01 0.0000000000000000e+00  3.3241004412467703e-02 -7.2220529009172940e-01 0.0000000000000000e+00  3.4276017062987822e-02 -7.2342638414612370e-01 0.0000000000000000e+00  3.3238260183083054e-02 -7.1263345316516302e-01 0.0000000000000000e+00  3.4271109256487201e-02 -7.1368820337277250e-01 0.0000000000000000e+00  3.3235536676758097e-02 -7.0306794747568657e-01 0.0000000000000000e+00  3.4266869209214894e-02 -7.0393365064805224e-01 0.0000000000000000e+00  3.3234533667335024e-02 -6.9347893938975291e-01 0.0000000000000000e+00  3.4260876882505405e-02 -6.9420447223686799e-01 0.0000000000000000e+00  3.3236198020353082e-02 -6.8384953603607956e-01 0.0000000000000000e+00  3.4255380422455586e-02 -6.8446304935081281e-01 0.0000000000000000e+00  3.3235231486443667e-02 -6.7426948934483688e-01 0.0000000000000000e+00  3.4255141610518687e-02 -6.7462926451667005e-01 0.0000000000000000e+00  3.3232605357618308e-02 -6.6472118184928375e-01 0.0000000000000000e+00  3.4249421031461683e-02 -6.6488648821548524e-01 0.0000000000000000e+00  3.3247375274646614e-02 -6.5487825368258468e-01 0.0000000000000000e+00  3.4217883011459914e-02 -6.5558059643706756e-01 0.0000000000000000e+00  3.3289555253958575e-02 -6.4456975881387257e-01 0.0000000000000000e+00  3.4170756784916212e-02 -6.4653760797827586e-01 0.0000000000000000e+00  3.3324538794680461e-02 -6.3438684822738722e-01 0.0000000000000000e+00  3.4161789984103914e-02 -6.3684431609176018e-01 0.0000000000000000e+00  3.3292783755303472e-02 -6.2534448844687440e-01 0.0000000000000000e+00  3.4238409196379882e-02 -6.2569734174881386e-01 0.0000000000000000e+00  3.3173957840878308e-02 -6.1778759156909979e-01 0.0000000000000000e+00  3.4387557987032802e-02 -6.1332422765757899e-01 0.0000000000000000e+00  3.3012531561374653e-02 -6.1095506566934199e-01 0.0000000000000000e+00  3.4548192547636421e-02 -6.0076558376993860e-01 0.0000000000000000e+00  3.2873064598849040e-02 -6.0374143238459699e-01 0.0000000000000000e+00  3.4667036564574087e-02 -5.8892478953690219e-01 0.0000000000000000e+00  3.2789623580053065e-02 -5.9556212044505619e-01 0.0000000000000000e+00  3.4728598474733571e-02 -5.7806213184557387e-01 0.0000000000000000e+00  3.2759717757095561e-02 -5.8645944172739750e-0