<?xml version="1.0"?>
<VTKFile type="UnstructuredGrid"  version="0.1"  >
<UnstructuredGrid>
<Piece  NumberOfPoints="801" NumberOfCells="800">
<Points>
<DataArray  type="Float64"  NumberOfComponents="3"  format="ascii">-5 0 0  -4.9875 0 0  -4.975 0 0  -4.9625 0 0  -4.95 0 0  -4.9375 0 0  -4.925 0 0  -4.9125 0 0  -4.9 0 0  -4.8875 0 0  -4.875 0 0  -4.8625 0 0  -4.85 0 0  -4.8375 0 0  -4.825 0 0  -4.8125 0 0  -4.8 0 0  -4.7875 0 0  -4.775 0 0  -4.7625 0 0  -4.75 0 0  -4.7375 0 0  -4.725 0 0  -4.7125 0 0  -4.7 0 0  -4.6875 0 0  -4.675 0 0  -4.6625 0 0  -4.65 0 0  -4.6375 0 0  -4.625 0 0  -4.6125 0 0  -4.6 0 0  -4.5875 0 0  -4.575 0 0  -4.5625 0 0  -4.55 0 0  -4.5375 0 0  -4.525 0 0  -4.5125 0 0  -4.5 0 0  -4.4875 0 0  -4.475 0 0  -4.4625 0 0  -4.45 0 0  -4.4375 0 0  -4.425 0 0  -4.4125 0 0  -4.4 0 0  -4.3875 0 0  -4.375 0 0  -4.3625 0 0  -4.35 0 0  -4.3375 0 0  -4.325 0 0  -4.3125 0 0  -4.3 0 0  -4.2875 0 0  -4.275 0 0  -4.2625 0 0  -4.25 0 0  -4.2375 0 0  -4.225 0 0  -4.2125 0 0  -4.2 0 0  -4.1875 0 0  -4.175 0 0  -4.1625 0 0  -4.15 0 0  -4.1375 0 0  -4.125 0 0  -4.1125 0 0  -4.1 0 0  -4.0875 0 0  -4.075 0 0  -4.0625 0 0  -4.05 0 0  -4.0375 0 0  -4.025 0 0  -4.0125 0 0  -4 0 0  -3.9875 0 0  -3.975 0 0  -3.9625 0 0  -3.95 0 0  -3.9375 0 0  -3.925 0 0  -3.9125 0 0  -3.9 0 0  -3.8875 0 0  -3.875 0 0  -3.8625 0 0  -3.85 0 0  -3.8375 0 0  -3.825 0 0  -3.8125 0 0  -3.8 0 0  -3.7875 0 0  -3.775 0 0  -3.7625 0 0  -3.75 0 0  -3.7375 0 0  -3.725 0 0  -3.7125 0 0  -3.7 0 0  -3.6875 0 0  -3.675 0 0  -3.6625 0 0  -3.65 0 0  -3.6375 0 0  -3.625 0 0  -3.6125 0 0  -3.6 0 0  -3.5875 0 0  -3.575 0 0  -3.5625 0 0  -3.55 0 0  -3.5375 0 0  -3.525 0 0  -3.5125 0 0  -3.5 0 0  -3.4875 0 0  -3.475 0 0  -3.4625 0 0  -3.45 0 0  -3.4375 0 0  -3.425 0 0  -3.4125 0 0  -3.4 0 0  -3.3875 0 0  -3.375 0 0  -3.3625 0 0  -3.35 0 0  -3.3375 0 0  -3.325 0 0  -3.3125 0 0  -3.3 0 0  -3.2875 0 0  -3.275 0 0  -3.2625 0 0  -3.25 0 0  -3.2375 0 0  -3.225 0 0  -3.2125 0 0  -3.2 0 0  -3.1875 0 0  -3.175 0 0  -3.1625 0 0  -3.15 0 0  -3.1375 0 0  -3.125 0 0  -3.1125 0 0  -3.1 0 0  -3.0875 0 0  -3.075 0 0  -3.0625 0 0  -3.05 0 0  -3.0375 0 0  -3.025 0 0  -3.0125 0 0  -3 0 0  -2.9875 0 0  -2.975 0 0  -2.9625 0 0  -2.95 0 0  -2.9375 0 0  -2.925 0 0  -2.9125 0 0  -2.9 0 0  -2.8875 0 0  -2.875 0 0  -2.8625 0 0  -2.85 0 0  -2.8375 0 0  -2.825 0 0  -2.8125 0 0  -2.8 0 0  -2.7875 0 0  -2.775 0 0  -2.7625 0 0  -2.75 0 0  -2.7375 0 0  -2.725 0 0  -2.7125 0 0  -2.7 0 0  -2.6875 0 0  -2.675 0 0  -2.6625 0 0  -2.65 0 0  -2.6375 0 0  -2.625 0 0  -2.6125 0 0  -2.6 0 0  -2.5875 0 0  -2.575 0 0  -2.5625 0 0  -2.55 0 0  -2.5375 0 0  -2.525 0 0  -2.5125 0 0  -2.5 0 0  -2.4875 0 0  -2.475 0 0  -2.4625 0 0  -2.45 0 0  -2.4375 0 0  -2.425 0 0  -2.4125 0 0  -2.4 0 0  -2.3875 0 0  -2.375 0 0  -2.3625 0 0  -2.35 0 0  -2.3375 0 0  -2.325 0 0  -2.3125 0 0  -2.3 0 0  -2.2875 0 0  -2.275 0 0  -2.2625 0 0  -2.25 0 0  -2.2375 0 0  -2.225 0 0  -2.2125 0 0  -2.2 0 0  -2.1875 0 0  -2.175 0 0  -2.1625 0 0  -2.15 0 0  -2.1375 0 0  -2.125 0 0  -2.1125 0 0  -2.1 0 0  -2.0875 0 0  -2.075 0 0  -2.0625 0 0  -2.05 0 0  -2.0375 0 0  -2.025 0 0  -2.0125 0 0  -2 0 0  -1.9875 0 0  -1.975 0 0  -1.9625 0 0  -1.95 0 0  -1.9375 0 0  -1.925 0 0  -1.9125 0 0  -1.9 0 0  -1.8875 0 0  -1.875 0 0  -1.8625 0 0  -1.85 0 0  -1.8375 0 0  -1.825 0 0  -1.8125 0 0  -1.8 0 0  -1.7875 0 0  -1.775 0 0  -1.7625 0 0  -1.75 0 0  -1.7375 0 0  -1.725 0 0  -1.7125 0 0  -1.7 0 0  -1.6875 0 0  -1.675 0 0  -1.6625 0 0  -1.65 0 0  -1.6375 0 0  -1.625 0 0  -1.6125 0 0  -1.6 0 0  -1.5875 0 0  -1.575 0 0  -1.5625 0 0  -1.55 0 0  -1.5375 0 0  -1.525 0 0  -1.5125 0 0  -1.5 0 0  -1.4875 0 0  -1.475 0 0  -1.4625 0 0  -1.45 0 0  -1.4375 0 0  -1.425 0 0  -1.4125 0 0  -1.4 0 0  -1.3875 0 0  -1.375 0 0  -1.3625 0 0  -1.35 0 0  -1.3375 0 0  -1.325 0 0  -1.3125 0 0  -1.3 0 0  -1.2875 0 0  -1.275 0 0  -1.2625 0 0  -1.25 0 0  -1.2375 0 0  -1.225 0 0  -1.2125 0 0  -1.2 0 0  -1.1875 0 0  -1.175 0 0  -1.1625 0 0  -1.15 0 0  -1.1375 0 0  -1.125 0 0  -1.1125 0 0  -1.1 0 0  -1.0875 0 0  -1.075 0 0  -1.0625 0 0  -1.05 0 0  -1.0375 0 0  -1.025 0 0  -1.0125 0 0  -1 0 0  -0.9874999999999998 0 0  -0.9749999999999996 0 0  -0.9625000000000004 0 0  -0.9500000000000002 0 0  -0.9375 0 0  -0.9249999999999998 0 0  -0.9124999999999996 0 0  -0.9000000000000004 0 0  -0.8875000000000002 0 0  -0.875 0 0  -0.8624999999999998 0 0  -0.8499999999999996 0 0  -0.8375000000000004 0 0  -0.8250000000000002 0 0  -0.8125 0 0  -0.7999999999999998 0 0  -0.7874999999999996 0 0  -0.7750000000000004 0 0  -0.7625000000000002 0 0  -0.75 0 0  -0.7374999999999998 0 0  -0.7249999999999996 0 0  -0.7125000000000004 0 0  -0.7000000000000002 0 0  -0.6875 0 0  -0.6749999999999998 0 0  -0.6624999999999996 0 0  -0.6500000000000004 0 0  -0.6375000000000002 0 0  -0.625 0 0  -0.6124999999999998 0 0  -0.5999999999999996 0 0  -0.5875000000000004 0 0  -0.5750000000000002 0 0  -0.5625 0 0  -0.5499999999999998 0 0  -0.5374999999999996 0 0  -0.5250000000000004 0 0  -0.5125000000000002 0 0  -0.5 0 0  -0.4874999999999998 0 0  -0.4749999999999996 0 0  -0.4625000000000004 0 0  -0.4500000000000002 0 0  -0.4375 0 0  -0.4249999999999998 0 0  -0.4124999999999996 0 0  -0.4000000000000004 0 0  -0.3875000000000002 0 0  -0.375 0 0  -0.3624999999999998 0 0  -0.3499999999999996 0 0  -0.3375000000000004 0 0  -0.3250000000000002 0 0  -0.3125 0 0  -0.2999999999999998 0 0  -0.2874999999999996 0 0  -0.2750000000000004 0 0  -0.2625000000000002 0 0  -0.25 0 0  -0.2374999999999998 0 0  -0.2249999999999996 0 0  -0.2125000000000004 0 0  -0.2000000000000002 0 0  -0.1875 0 0  -0.1749999999999998 0 0  -0.1624999999999996 0 0  -0.1500000000000004 0 0  -0.1375000000000002 0 0  -0.125 0 0  -0.1124999999999998 0 0  -0.09999999999999964 0 0  -0.08750000000000036 0 0  -0.07500000000000018 0 0  -0.0625 0 0  -0.04999999999999982 0 0  -0.03749999999999964 0 0  -0.02500000000000036 0 0  -0.01250000000000018 0 0  0 0 0  0.01250000000000018 0 0  0.02500000000000036 0 0  0.03749999999999964 0 0  0.04999999999999982 0 0  0.0625 0 0  0.07500000000000018 0 0  0.08750000000000036 0 0  0.09999999999999964 0 0  0.1124999999999998 0 0  0.125 0 0  0.1375000000000002 0 0  0.1500000000000004 0 0  0.1624999999999996 0 0  0.1749999999999998 0 0  0.1875 0 0  0.2000000000000002 0 0  0.2125000000000004 0 0  0.2249999999999996 0 0  0.2374999999999998 0 0  0.25 0 0  0.2625000000000002 0 0  0.2750000000000004 0 0  0.2874999999999996 0 0  0.2999999999999998 0 0  0.3125 0 0  0.3250000000000002 0 0  0.3375000000000004 0 0  0.3499999999999996 0 0  0.3624999999999998 0 0  0.375 0 0  0.3875000000000002 0 0  0.4000000000000004 0 0  0.4124999999999996 0 0  0.4249999999999998 0 0  0.4375 0 0  0.4500000000000002 0 0  0.4625000000000004 0 0  0.4749999999999996 0 0  0.4874999999999998 0 0  0.5 0 0  0.5125000000000002 0 0  0.5250000000000004 0 0  0.5374999999999996 0 0  0.5499999999999998 0 0  0.5625 0 0  0.5750000000000002 0 0  0.5875000000000004 0 0  0.5999999999999996 0 0  0.6124999999999998 0 0  0.625 0 0  0.6375000000000002 0 0  0.6500000000000004 0 0  0.6624999999999996 0 0  0.6749999999999998 0 0  0.6875 0 0  0.7000000000000002 0 0  0.7125000000000004 0 0  0.7249999999999996 0 0  0.7374999999999998 0 0  0.75 0 0  0.7625000000000002 0 0  0.7750000000000004 0 0  0.7874999999999996 0 0  0.7999999999999998 0 0  0.8125 0 0  0.8250000000000002 0 0  0.8375000000000004 0 0  0.8499999999999996 0 0  0.8624999999999998 0 0  0.875 0 0  0.8875000000000002 0 0  0.9000000000000004 0 0  0.9124999999999996 0 0  0.9249999999999998 0 0  0.9375 0 0  0.9500000000000002 0 0  0.9625000000000004 0 0  0.9749999999999996 0 0  0.9874999999999998 0 0  1 0 0  1.0125 0 0  1.025 0 0  1.0375 0 0  1.05 0 0  1.0625 0 0  1.075 0 0  1.0875 0 0  1.1 0 0  1.1125 0 0  1.125 0 0  1.1375 0 0  1.15 0 0  1.1625 0 0  1.175 0 0  1.1875 0 0  1.2 0 0  1.2125 0 0  1.225 0 0  1.2375 0 0  1.25 0 0  1.2625 0 0  1.275 0 0  1.2875 0 0  1.3 0 0  1.3125 0 0  1.325 0 0  1.3375 0 0  1.35 0 0  1.3625 0 0  1.375 0 0  1.3875 0 0  1.4 0 0  1.4125 0 0  1.425 0 0  1.4375 0 0  1.45 0 0  1.4625 0 0  1.475 0 0  1.4875 0 0  1.5 0 0  1.5125 0 0  1.525 0 0  1.5375 0 0  1.55 0 0  1.5625 0 0  1.575 0 0  1.5875 0 0  1.6 0 0  1.6125 0 0  1.625 0 0  1.6375 0 0  1.65 0 0  1.6625 0 0  1.675 0 0  1.6875 0 0  1.7 0 0  1.7125 0 0  1.725 0 0  1.7375 0 0  1.75 0 0  1.7625 0 0  1.775 0 0  1.7875 0 0  1.8 0 0  1.8125 0 0  1.825 0 0  1.8375 0 0  1.85 0 0  1.8625 0 0  1.875 0 0  1.8875 0 0  1.9 0 0  1.9125 0 0  1.925 0 0  1.9375 0 0  1.95 0 0  1.9625 0 0  1.975 0 0  1.9875 0 0  2 0 0  2.0125 0 0  2.025 0 0  2.0375 0 0  2.05 0 0  2.0625 0 0  2.075 0 0  2.0875 0 0  2.1 0 0  2.1125 0 0  2.125 0 0  2.1375 0 0  2.15 0 0  2.1625 0 0  2.175 0 0  2.1875 0 0  2.2 0 0  2.2125 0 0  2.225 0 0  2.2375 0 0  2.25 0 0  2.2625 0 0  2.275 0 0  2.2875 0 0  2.3 0 0  2.3125 0 0  2.325 0 0  2.3375 0 0  2.35 0 0  2.3625 0 0  2.375 0 0  2.3875 0 0  2.4 0 0  2.4125 0 0  2.425 0 0  2.4375 0 0  2.45 0 0  2.4625 0 0  2.475 0 0  2.4875 0 0  2.5 0 0  2.5125 0 0  2.525 0 0  2.5375 0 0  2.55 0 0  2.5625 0 0  2.575 0 0  2.5875 0 0  2.6 0 0  2.6125 0 0  2.625 0 0  2.6375 0 0  2.65 0 0  2.6625 0 0  2.675 0 0  2.6875 0 0  2.7 0 0  2.7125 0 0  2.725 0 0  2.7375 0 0  2.75 0 0  2.7625 0 0  2.775 0 0  2.7875 0 0  2.8 0 0  2.8125 0 0  2.825 0 0  2.8375 0 0  2.85 0 0  2.8625 0 0  2.875 0 0  2.8875 0 0  2.9 0 0  2.9125 0 0  2.925 0 0  2.9375 0 0  2.95 0 0  2.9625 0 0  2.975 0 0  2.9875 0 0  3 0 0  3.012499999999999 0 0  3.025 0 0  3.0375 0 0  3.050000000000001 0 0  3.0625 0 0  3.074999999999999 0 0  3.0875 0 0  3.1 0 0  3.112500000000001 0 0  3.125 0 0  3.137499999999999 0 0  3.15 0 0  3.1625 0 0  3.175000000000001 0 0  3.1875 0 0  3.199999999999999 0 0  3.2125 0 0  3.225 0 0  3.237500000000001 0 0  3.25 0 0  3.262499999999999 0 0  3.275 0 0  3.2875 0 0  3.300000000000001 0 0  3.3125 0 0  3.324999999999999 0 0  3.3375 0 0  3.35 0 0  3.362500000000001 0 0  3.375 0 0  3.387499999999999 0 0  3.4 0 0  3.4125 0 0  3.425000000000001 0 0  3.4375 0 0  3.449999999999999 0 0  3.4625 0 0  3.475 0 0  3.4875
[...]
<PointData  Vectors="(h, u)"> 
<DataArray  type="Float64"  Name="(h, u)"  NumberOfComponents="3" format="ascii">1.1064374157768345e-01 0.0000000000000000e+00 0.0000000000000000e+00  1.1119298552365345e-01 2.9691696457922827e-03 0.0000000000000000e+00  1.1065021938463161e-01 1.0866783191990180e-02 0.0000000000000000e+00  1.1117360009050928e-01 8.9759743673404682e-03 0.0000000000000000e+00  1.1066819325538252e-01 2.1604500052856645e-02 0.0000000000000000e+00  1.1113797292860871e-01 1.5178573266206027e-02 0.0000000000000000e+00  1.1069348987018073e-01 3.2100097107111140e-02 0.0000000000000000e+00  1.1109155807925314e-01 2.1677722839376488e-02 0.0000000000000000e+00  1.1071990080705912e-01 4.2272491606313287e-02 0.0000000000000000e+00  1.1104090719452807e-01 2.8535530473781569e-02 0.0000000000000000e+00  1.1074038454188102e-01 5.2083809709441313e-02 0.0000000000000000e+00  1.1099254009972660e-01 3.5769035648570861e-02 0.0000000000000000e+00  1.1074855398664880e-01 6.1540294097826118e-02 0.0000000000000000e+00  1.1095196354506066e-01 4.3351874987125463e-02 0.0000000000000000e+00  1.1073990226643128e-01 7.0682936673486338e-02 0.0000000000000000e+00  1.1092266880135840e-01 5.1227148139322276e-02 0.0000000000000000e+00  1.1071237372398426e-01 7.9572804851421999e-02 0.0000000000000000e+00  1.1090527373748381e-01 5.9328465278439990e-02 0.0000000000000000e+00  1.1066647259996747e-01 8.8274767944708774e-02 0.0000000000000000e+00  1.1089738333509232e-01 6.7598467495466177e-02 0.0000000000000000e+00  1.1060531210710946e-01 9.6841554434168933e-02 0.0000000000000000e+00  1.1089438560033740e-01 7.5996304557467406e-02 0.0000000000000000e+00  1.1053440229118691e-01 1.0530374298067370e-01 0.0000000000000000e+00  1.1089056057121641e-01 8.4496363530679269e-02 0.0000000000000000e+00  1.1046050338869104e-01 1.1367336912656416e-01 0.0000000000000000e+00  1.1087988205429468e-01 9.3084710033204177e-02 0.0000000000000000e+00  1.1038963786614474e-01 1.2195947984935973e-01 0.0000000000000000e+00  1.1085689646493253e-01 1.0175230717586978e-01 0.0000000000000000e+00  1.1032554929306490e-01 1.3018131087638551e-01 0.0000000000000000e+00  1.1081825568450429e-01 1.1048172692026614e-01 0.0000000000000000e+00  1.1026960466849653e-01 1.3836764007153490e-01 0.0000000000000000e+00  1.1076394058005130e-01 1.1923719985206385e-01 0.0000000000000000e+00  1.1022153380890089e-01 1.4654758547511143e-01 0.0000000000000000e+00  1.1069631199961828e-01 1.2797542539627721e-01 0.0000000000000000e+00  1.1017994651312840e-01 1.5474411434442154e-01 0.0000000000000000e+00  1.1061736689553457e-01 1.3667302704405548e-01 0.0000000000000000e+00  1.1014283607123300e-01 1.6296992521915213e-01 0.0000000000000000e+00  1.1052760829939494e-01 1.4533774308582578e-01 0.0000000000000000e+00  1.1010842673221166e-01 1.7122277409832429e-01 0.0000000000000000e+00  1.1042877132810443e-01 1.5398139177416659e-01 0.0000000000000000e+00  1.1007469058228847e-01 1.7949512324114986e-01 0.0000000000000000e+00  1.1032772026195747e-01 1.6257914762287487e-01 0.0000000000000000e+00  1.1003586511845721e-01 1.8781282085959675e-01 0.0000000000000000e+00  1.1023693513768139e-01 1.7105754119656871e-01 0.0000000000000000e+00  1.0997915351549427e-01 1.9627291589516427e-01 0.0000000000000000e+00  1.1017102351272144e-01 1.7931598685604996e-01 0.0000000000000000e+00  1.0988815768570045e-01 2.0501997334552793e-01 0.0000000000000000e+00  1.1014220496031003e-01 1.8725461868243620e-01 0.0000000000000000e+00  1.0975354373228438e-01 2.1415678788951936e-01 0.0000000000000000e+00  1.1015549628462497e-01 1.9480365345095765e-01 0.0000000000000000e+00  1.0958156538894014e-01 2.2367658172742969e-01 0.0000000000000000e+00  1.1020244752612161e-01 2.0196793323750523e-01 0.0000000000000000e+00  1.0939248798549968e-01 2.3348920036324802e-01 0.0000000000000000e+00  1.1025732472013985e-01 2.0885224023616272e-01 0.0000000000000000e+00  1.0921393669924628e-01 2.4349230968057836e-01 0.0000000000000000e+00  1.1028282083736660e-01 2.1560195845905827e-01 0.0000000000000000e+00  1.0907903392976889e-01 2.5359411961766082e-01 0.0000000000000000e+00  1.1024244940144129e-01 2.2228663739525528e-01 0.0000000000000000e+00  1.0902690065150568e-01 2.6370945562607223e-01 0.0000000000000000e+00  1.1010569716546746e-01 2.2885814822750034e-01 0.0000000000000000e+00  1.0909554029316555e-01 2.7382148791807726e-01 0.0000000000000000e+00  1.0984207886738137e-01 2.3521935335869379e-01 0.0000000000000000e+00  1.0931158116805685e-01 2.8406577312867898e-01 0.0000000000000000e+00  1.0941993331153917e-01 2.4125298220966271e-01 0.0000000000000000e+00  1.0969248249747920e-01 2.9468808009148045e-01 0.0000000000000000e+00  1.0881837781850527e-01 2.4673245189892776e-01 0.0000000000000000e+00  1.1025761225939476e-01 3.0590648822345906e-01 0.0000000000000000e+00  1.0803174102230258e-01 2.5131453404513493e-01 0.0000000000000000e+00  1.1102694338294435e-01 3.1787457349123510e-01 0.0000000000000000e+00  1.0705103150368954e-01 2.5476528302274443e-01 0.0000000000000000e+00  1.1201152015354804e-01 3.3070730329626391e-01 0.0000000000000000e+00  1.0584987095395439e-01 2.5716156711437632e-01 0.0000000000000000e+00  1.1322265003786862e-01 3.4432399867147423e-01 0.0000000000000000e+00  1.0440303983722474e-01 2.5879624691118397e-01 0.0000000000000000e+00  1.1468627471268338e-01 3.5825060868102354e-01 0.0000000000000000e+00  1.0271018064497085e-01 2.6003619418913676e-01 0.0000000000000000e+00  1.1641475714806446e-01 3.7184071442366956e-01 0.0000000000000000e+00  1.0079653742921647e-01 2.6138477742724714e-01 0.0000000000000000e+00  1.1835521856694003e-01 3.8473467686782803e-01 0.0000000000000000e+00  9.8727550250877927e-02 2.6336764964268555e-01 0.0000000000000000e+00  1.2038782976274170e-01 3.9687474045077881e-01 0.0000000000000000e+00  9.6648509012999650e-02 2.6609103425174840e-01 0.0000000000000000e+00  1.2235789759654661e-01 4.0825293489966957e-01 0.0000000000000000e+00  9.4766635176869368e-02 2.6925576415423486e-01 0.0000000000000000e+00  1.2407415583787038e-01 4.1904286314892503e-01 0.0000000000000000e+00  9.3265631303851640e-02 2.7277811766323901e-01 0.0000000000000000e+00  1.2532966914548069e-01 4.2959568994939140e-01 0.0000000000000000e+00  9.2276190044116815e-02 2.7687586835318645e-01 0.0000000000000000e+00  1.2599611883592748e-01 4.3982289135046410e-01 0.0000000000000000e+00  9.1894429758444141e-02 2.8169431715270193e-01 0.0000000000000000e+00  1.2605498574385721e-01 4.4916350861425491e-01 0.0000000000000000e+00  9.2125916446417072e-02 2.8766256746669183e-01 0.0000000000000000e+00  1.2553221489943420e-01 4.5734201786207568e-01 0.0000000000000000e+00  9.2864749802221147e-02 2.9555375085967422e-01 0.0000000000000000e+00  1.2451757642518624e-01 4.6421502483012828e-01 0.0000000000000000e+00  9.3994632244549181e-02 3.0546153033916135e-01 0.0000000000000000e+00  1.2319740944517771e-01 4.6937567677999381e-01 0.0000000000000000e+00  9.5386205008066050e-02 3.1694848840468964e-01 0.0000000000000000e+00  1.2173906467346310e-01 4.7302616770140693e-01 0.0000000000000000e+00  9.6837684213451181e-02 3.2988604490044626e-01 0.0000000000000000e+00  1.2027390669077866e-01 4.7587584758012685e-01 0.0000000000000000e+00  9.8199069432233846e-02 3.4359906672723323e-01 0.0000000000000000e+00  1.1897595119952878e-01 4.7809847372055231e-01 0.0000000000000000e+00  9.9399027123902417e-02 3.5697907619978470e-01 0.0000000000000000e+00  1.1792520286238171e-01 4.8031535666183400e-01 0.0000000000000000e+00  1.0033895410569357e-01 3.6977799392786892e-01 0.0000000000000000e+00  1.1709061756206977e-01 4.8357758370366177e-01 0.0000000000000000e+00  1.0103050498686868e-01 3.8142122525104949e-01 0.0000000000000000e+00  1.1648474808844361e-01 4.8785295268714846e-01 0.0000000000000000e+00  1.0158304211392158e-01 3.9112005099497515e-01 0.0000000000000000e+00  1.1602269467502446e-01 4.9343476216561133e-01 0.0000000000000000e+00  1.0201571178179469e-01 3.9949112618245103e-01 0.0000000000000000e+00  1.1557627230826231e-01 5.0065698358224875e-01 0.0000000000000000e+00  1.0242800557685143e-01 4.0664075518730086e-01 0.0000000000000000e+00  1.1516762188419610e-01 5.0835779195174413e-01 0.0000000000000000e+00  1.0290175800102053e-01 4.1280497243612929e-01 0.0000000000000000e+00  1.1473248287503557e-01 5.1635638797788330e-01 0.0000000000000000e+00  1.0334870902883353e-01 4.1955767980266973e-01 0.0000000000000000e+00  1.1427329052238644e-01 5.2418156366867397e-01 0.0000000000000000e+00  1.0380601263584513e-01 4.2682828143497120e-01 0.0000000000000000e+00  1.1392562037228539e-01 5.3048087055250315e-01 0.0000000000000000e+00  1.0420197490431110e-01 4.3517704159290455e-01 0.0000000000000000e+00  1.1362822076383605e-01 5.3602393535608284e-01 0.0000000000000000e+00  1.0442862204248969e-01 4.4523733419782369e-01 0.0000000000000000e+00  1.1347621754607234e-01 5.4026314887436022e-01 0.0000000000000000e+00  1.0459239135212534e-01 4.5552813580556373e-01 0.0000000000000000e+00  1.1347251643608453e-01 5.4350604529316071e-01 0.0000000000000000e+00  1.0459602560125235e-01 4.6666117381043271e-01 0.0000000000000000e+00  1.1347584753141317e-01 5.4729502336015712e-01 0.0000000000000000e+00  1.0455876412641621e-01 4.7738540463628365e-01 0.0000000000000000e+00  1.1358564167845284e-01 5.5074545122628915e-01 0.0000000000000000e+00  1.0456366147656268e-01 4.8699414379500539e-01 0.0000000000000000e+00  1.1359504631260631e-01 5.5569915272637738e-01 0.0000000000000000e+00  1.0453564169192291e-01 4.9639579041409349e-01 0.0000000000000000e+00  1.1356945630827228e-01 5.6136141319396138e-01 0.0000000000000000e+00  1.0468104722751090e-01 5.0381831600135263e-01 0.0000000000000000e+00  1.1350348368155758e-01 5.6761501461075092e-01 0.0000000000000000e+00  1.0478818535357103e-01 5.1143639977289723e-01 0.0000000000000000e+00  1.1330294497772814e-01 5.7523626601449596e-01 0.0000000000000000e+00  1.0500440147383464e-01 5.1792637859163337e-01 0.0000000000000000e+00  1.1320295070659653e-01 5.8196971192080038e-01 0.0000000000000000e+00  1.0521504536322697e-01 5.2442720500592443e-01 0.0000000000000000e+00  1.1295565570859514e-01 5.9012697752412691e-01 0.0000000000000000e+00  1.0537219808822344e-01 5.3141912765042443e-01 0.0000000000000000e+00  1.1286497082166015e-01 5.9682617884225564e-01 0.0000000000000000e+00  1.0561889087639484e-01 5.3757234606197846e-01 0.0000000000000000e+00  1.1268471398960594e-01 6.0433456347884762e-01 0.0000000000000000e+00  1.0569372478074923e-01 5.4542515779295764e-01 0.0000000000000000e+00  1.1258567658119864e-01 6.1099628853559196e-01 0.0000000000000000e+00  1.0594734697827399e-01 5.5165968700288037e-01 0.0000000000000000e+00  1.1248388323094236e-01 6.1757436039384861e-01 0.0000000000000000e+00  1.0598372618541683e-01 5.6005895828092922e-01 0.0000000000000000e+00  1.1233473040435668e-01 6.2450335507021537e-01 0.0000000000000000e+00  1.0623540900872744e-01 5.6644542405665788e-01 0.0000000000000000e+00  1.1228987735001440e-01 6.3041880470179523e-01 0.0000000000000000e+00  1.0626818338111658e-01 5.7489477931529609e-01 0.0000000000000000e+00  1.1208194028733399e-01 6.3791041314265595e-01 0.0000000000000000e+00  1.0651233945914243e-01 5.8121742423493250e-01 0.0000000000000000e+00  1.1210995869406695e-01 6.4329746957188372e-01 0.0000000000000000e+00  1.0657249900305087e-01 5.8914212360819240e-01 0.0000000000000000e+00  1.1187387387846004e-01 6.5131252006047680e-01 0.0000000000000000e+00  1.0679167139505920e-01 5.9537789465912039e-01 0.0000000000000000e+00  1.1194070020128628e-01 6.5662029317961468e-01 0.0000000000000000e+00  1.0682764909224668e-01 6.0322355434089769e-01 0.0000000000000000e+00  1.1165849170955824e-01 6.6531047760887485e-01 0.0000000000000000e+00  1.0703305804813981e-01 6.0935645440582309e-01 0.0000000000000000e+00  1.1178068534357942e-01 6.7025184902805213e-01 0.0000000000000000e+00  1.0706015530374989e-01 6.1715092643725156e-01 0.0000000000000000e+00  1.1148781118432316e-01 6.7910405765923443e-01 0.0000000000000000e+00  1.0729816503183914e-01 6.2292528277690173e-01 0.0000000000000000e+00  1.1164280628076508e-01 6.8372997673175095e-01 0.0000000000000000e+00  1.0725072564707172e-01 6.3143563098728039e-01 0.0000000000000000e+00  1.1132276227980779e-01 6.9279592909340848e-01 0.0000000000000000e+00  1.0754186197337105e-01 6.3672366915909540e-01 0.0000000000000000e+00  1.1147253607558134e-01 6.9743292596784279e-01 0.0000000000000000e+00  1.0738356290500572e-01 6.4629133195948485e-01 0.0000000000000000e+00  1.1122064905049689e-01 7.0584891956637830e-01 0.0000000000000000e+00  1.0781172162912532e-01 6.5023496192965402e-01 0.0000000000000000e+00  1.1132602252466420e-01 7.1093703898905625e-01 0.0000000000000000e+00  1.0754684378661038e-01 6.6073685582458630e-01 0.0000000000000000e+00  1.1129796502407101e-01 7.1731531078563426e-01 0.0000000000000000e+00  1.0808931737168016e-01 6.6349321537671135e-01 0.0000000000000000e+00  1.1114883647809022e-01 7.2486692287147625e-01 0.0000000000000000e+00  1.0774302822606775e-01 6.7468148449668763e-01 0.0000000000000000e+00  1.1144474464135952e-01 7.2823240691292990e-01 0.0000000000000000e+00  1.0814803453256593e-01 6.7872721803265412e-01 0.0000000000000000e+00  1.1086139884847952e-01 7.3981847509213061e-01 0.0000000000000000e+00  1.0801863602211588e-01 6.8791399983044654e-01 0.0000000000000000e+00  1.1146710569079697e-01 7.4013020427345522e-01 0.0000000000000000e+00  1.0795769826591686e-01 6.9655060116078560e-01 0.0000000000000000e+00  1.1076815436803034e-01 7.5259406337706924e-01 0.0000000000000000e+00  1.0847681420707621e-01 6.9976347180817067e-01 0.0000000000000000e+00  1.1113242935580996e-01 7.5495896060043655e-01 0.0000000000000000e+00  1.0776748495379104e-01 7.1473420328591342e-01 0.0000000000000000e+00  1.1116943891578042e-01 7.6034797485031136e-01 0.0000000000000000e+00  1.0874770873805130e-01 7.1363220415178896e-01 0.0000000000000000e+00  1.1052756645063566e-01 7.7216903020564642e-01 0.0000000000000000e+00  1.0818220068828535e-01 7.2711749104956780e-01 0.0000000000000000e+00  1.1158248899269210e-01 7.6815746564704945e-01 0.0000000000000000e+00  1.0808713575416064e-01 7.3594127934266229e-01 0.0000000000000000e+00  1.1056833750557930e-01 7.8383018868544285e-01 0.0000000000000000e+00  1.0916506628501046e-01 7.3336513319618357e-01 0.0000000000000000e+00  1.1100679089777839e-01 7.8607735856088001e-01 0.0000000000000000e+00  1.0760794581710952e-01 7.5556842298304605e-01 0.0000000000000000e+00  1.1187969117616599e-01 7.8444319996452438e-01 0.0000000000000000e+00  1.0839856433037773e-01 7.5525259696315994e-01 0.0000000000000000e+00  1.1027290409029630e-01 8.0638268881773822e-01 0.0000000000000000e+00  1.0906308493290938e-01 7.5589560480576068e-01 0.0000000000000000e+00  1.1187144899277961e-01 7.9834867438854507e-01 0.0000000000000000e+00  1.0703616630253544e-01 7.8190131470812207e-01 0.0000000000000000e+00  1.1266119029853054e-01 7.9801298683277821e-01 0.0000000000000000e+00  1.0824966575056529e-01 7.7709750859923554e-01 0.0000000000000000e+00  1.1021772659292181e-01 8.2821767982402084e-01 0.0000000000000000e+00  1.0898048136990418e-01 7.7675266495681361e-01 0.0000000000000000e+00  1.1192666219827349e-01 8.1938161580044611e-01 0.0000000000000000e+00  1.0597933141125214e-01 8.1181686682829435e-01 0.0000000000000000e+00  1.1376886025079495e-01 8.0916549656938275e-01 0.0000000000000000e+00  1.0741291456806920e-01 8.0490196023276750e-01 0.0000000000000000e+00  1.1069036372802314e-01 8.4526821883622660e-01 0.0000000000000000e+00  1.1045778175717072e-01 7.8272678567034581e-01 0.0000000000000000e+00  1.1024196018737292e-01 8.5651422200361838e-01 0.0000000000000000e+00  1.0821196376687843e-01 8.1086363252074167e-01 0.0000000000000000e+00  1.1385465223242304e-01 8.2948046907677719e-01 0.0000000000000000e+00  1.0560563895277410e-01 8.4237837160703222e-01 0.0000000000000000e+00  1.1338178045625782e-01 8.4080947732979505e-01 0.0000000000000000e+00  1.0919440835245087e-01 8.1529863596298791e-01 0.0000000000000000e+00  1.0797236673573729e-01 8.9857796489055819e-01 0.0000000000000000e+00  1.1343067359645376e-01 7.8176945236408690e-01 0.0000000000000000e+00  1.0639334609319033e-01 9.2040602241339631e-01 0.0000000000000000e+00  1.1144693843647523e-01 8.0740653170909837e-01 0.0000000000000000e+00  1.1131712616829288e-01 8.8121699907725104e-01 0.0000000000000000e+00  1.0611334934524043e-01 8.6458501251819253e-01 0.0000000000000000e+00  1.1539643581216136e-01 8.4991852615809260e-01 0.0000000000000000e+00  1.0480506681212964e-01 8.8345435100389180e-01 0.0000000000000000e+00  1.1378875018413882e-01 8.7224785240992253e-01 0.0000000000000000e+00  1.0893800795626001e-01 8.5075261684200154e-01 0.0000000000000000e+00  1.0855701489252567e-01 9.2864876373054428e-01 0.0000000000000000e+00  1.1390996004747361e-01 8.0992707526276486e-01 0.0000000000000000e+00  1.0424596153596741e-01 9.7646682245210970e-01 0.0000000000000000e+00  1.1642459873236308e-01 7.9239666078898341e-01 0.0000000000000000e+00  1.0299124332354015e-01 9.9552280758231271e-01 0.0000000000000000e+00  1.1650572342602575e-01 7.9820780102859967e-01 0.0000000000000000e+00  1.0399843631701421e-01 9.9305855615461669e-01 0.0000000000000000e+00  1.1533709226418334e-01 8.1609670975788229e-01 0.0000000000000000e+00  1.0581808239111368e-01 9.8266341347821184e-01 0.0000000000000000e+00  1.1389926713974724e-01 8.3679688306186728e-01 0.0000000000000000e+00  1.0751582227496059e-01 9.7306826652292699e-01 0.0000000000000000e+00  1.1275279655553858e-01 8.5516854400657960e-01 0.0000000000000000e+00  1.0870405781910270e-01 9.6777108842786896e-01 0.0000000000000000e+00  1.1221229524963432e-01 8.6839988902578169e-01 0.0000000000000000e+00  1.0927524403443103e-01 9.6758474911109515e-01 0.0000000000000000e+00  1.1248070184586645e-01 8.7470679674973317e-01 0.0000000000000000e+00  1.0929424297117223e-01 9.7174692545273877e-01 0.0000000000000000e+00  1.1367738009189997e-01 8.7313033350593172e-01 0.0000000000000000e+00  1.0920279783276282e-01 9.7605403222366505e-01 0.0000000000000000e+00  1.1576573564433630e-01 8.6422092216816260e-01 0.0000000000000000e+00  1.0968434578357354e-01 9.7411301982621712e-01 0.0000000000000000e+00  1.1958004579204295e-01 8.4047888174831542e-01 0.0000000000000000e+00  1.1492613168713643e-01 9.2755366205554390e-01 0.0000000000000000e+00  1.1962913476764779e-01 8.5264302863923369e-01 0.0000000000000000e+00  1.0564744889453484e-01 1.0144786589679073e+00 0.0000000000000000e+00  1.1581772897787838e-01 9.0122790269095543e-01 0.0000000000000000e+00  1.0301830055714525e-01 1.0398108754528108e+00 0.0000000000000000e+00  9.3396779380461550e-02 1.1326715893347608e+00 0.0000000000000000e+00  1.0104136344772283e-01 1.0597627743759730e+00 0.0000000000000000e+00  1.1513102723856425e-01 9.3313032764259307e-01 0.0000000000000000e+00  1.0216726533142438e-01 1.0501603410161560e+00 0.0000000000000000e+00  1.1456747348529502e-01 9.5023466011861957e-01 0.0000000000000000e+00  1.0401624017999957e-01 1.0353805000691396e+00 0.0000000000000000e+00  1.1058421147431415e-01 9.9760550285961647e-01 0.0000000000000000e+00  1.1001745070661223e-01 9.8381084319947187e-01 0.0000000000000000e+00  1.1115356741199769e-01 9.9875121484539697e-01 0.0000000000000000e+00  1.1375342524680108e-01 9.5776344263677970e-01 0.0000000000000000e+00  1.1344977663786883e-01 9.7985313156957621e-01 0.0000000000000000e+00  1.1125050686151179e-01 9.9389194312955542e-01 0.0000000000000000e+00  1.1886389673490150e-01 9.2804918018908145e-01 0.0000000000000000e+00  1.0846580319989638e-01 1.0361923107294844e+00 0.0000000000000000e+00  9.6395185795646487e-02 1.1376824842590785e+00 0.0000000000000000e+00  1.1563312471337385e-01 9.8585815336061455e-01 0.0000000000000000e+00  1.0447620540414211e-01 1.0529241792239470e+00 0.0000000000000000e+00  1.1232521496476584e-01 1.0368531803307930e+00 0.0000000000000000e+00  1.1688547791082576e-01 9.3043858920563272e-01 0.0000000000000000e+00  1.2139871804156525e-01 9.7315863534300129e-01 0.0000000000000000e+00  1.1962254682705412e-01 9.0182494020462578e-01 0.0000000000000000e+00  1.100369