<?xml version="1.0"?>
<VTKFile type="UnstructuredGrid"  version="0.1"  >
<UnstructuredGrid>
<Piece  NumberOfPoints="801" NumberOfCells="800">
<Points>
<DataArray  type="Float64"  NumberOfComponents="3"  format="ascii">-5 0 0  -4.9875 0 0  -4.975 0 0  -4.9625 0 0  -4.95 0 0  -4.9375 0 0  -4.925 0 0  -4.9125 0 0  -4.9 0 0  -4.8875 0 0  -4.875 0 0  -4.8625 0 0  -4.85 0 0  -4.8375 0 0  -4.825 0 0  -4.8125 0 0  -4.8 0 0  -4.7875 0 0  -4.775 0 0  -4.7625 0 0  -4.75 0 0  -4.7375 0 0  -4.725 0 0  -4.7125 0 0  -4.7 0 0  -4.6875 0 0  -4.675 0 0  -4.6625 0 0  -4.65 0 0  -4.6375 0 0  -4.625 0 0  -4.6125 0 0  -4.6 0 0  -4.5875 0 0  -4.575 0 0  -4.5625 0 0  -4.55 0 0  -4.5375 0 0  -4.525 0 0  -4.5125 0 0  -4.5 0 0  -4.4875 0 0  -4.475 0 0  -4.4625 0 0  -4.45 0 0  -4.4375 0 0  -4.425 0 0  -4.4125 0 0  -4.4 0 0  -4.3875 0 0  -4.375 0 0  -4.3625 0 0  -4.35 0 0  -4.3375 0 0  -4.325 0 0  -4.3125 0 0  -4.3 0 0  -4.2875 0 0  -4.275 0 0  -4.2625 0 0  -4.25 0 0  -4.2375 0 0  -4.225 0 0  -4.2125 0 0  -4.2 0 0  -4.1875 0 0  -4.175 0 0  -4.1625 0 0  -4.15 0 0  -4.1375 0 0  -4.125 0 0  -4.1125 0 0  -4.1 0 0  -4.0875 0 0  -4.075 0 0  -4.0625 0 0  -4.05 0 0  -4.0375 0 0  -4.025 0 0  -4.0125 0 0  -4 0 0  -3.9875 0 0  -3.975 0 0  -3.9625 0 0  -3.95 0 0  -3.9375 0 0  -3.925 0 0  -3.9125 0 0  -3.9 0 0  -3.8875 0 0  -3.875 0 0  -3.8625 0 0  -3.85 0 0  -3.8375 0 0  -3.825 0 0  -3.8125 0 0  -3.8 0 0  -3.7875 0 0  -3.775 0 0  -3.7625 0 0  -3.75 0 0  -3.7375 0 0  -3.725 0 0  -3.7125 0 0  -3.7 0 0  -3.6875 0 0  -3.675 0 0  -3.6625 0 0  -3.65 0 0  -3.6375 0 0  -3.625 0 0  -3.6125 0 0  -3.6 0 0  -3.5875 0 0  -3.575 0 0  -3.5625 0 0  -3.55 0 0  -3.5375 0 0  -3.525 0 0  -3.5125 0 0  -3.5 0 0  -3.4875 0 0  -3.475 0 0  -3.4625 0 0  -3.45 0 0  -3.4375 0 0  -3.425 0 0  -3.4125 0 0  -3.4 0 0  -3.3875 0 0  -3.375 0 0  -3.3625 0 0  -3.35 0 0  -3.3375 0 0  -3.325 0 0  -3.3125 0 0  -3.3 0 0  -3.2875 0 0  -3.275 0 0  -3.2625 0 0  -3.25 0 0  -3.2375 0 0  -3.225 0 0  -3.2125 0 0  -3.2 0 0  -3.1875 0 0  -3.175 0 0  -3.1625 0 0  -3.15 0 0  -3.1375 0 0  -3.125 0 0  -3.1125 0 0  -3.1 0 0  -3.0875 0 0  -3.075 0 0  -3.0625 0 0  -3.05 0 0  -3.0375 0 0  -3.025 0 0  -3.0125 0 0  -3 0 0  -2.9875 0 0  -2.975 0 0  -2.9625 0 0  -2.95 0 0  -2.9375 0 0  -2.925 0 0  -2.9125 0 0  -2.9 0 0  -2.8875 0 0  -2.875 0 0  -2.8625 0 0  -2.85 0 0  -2.8375 0 0  -2.825 0 0  -2.8125 0 0  -2.8 0 0  -2.7875 0 0  -2.775 0 0  -2.7625 0 0  -2.75 0 0  -2.7375 0 0  -2.725 0 0  -2.7125 0 0  -2.7 0 0  -2.6875 0 0  -2.675 0 0  -2.6625 0 0  -2.65 0 0  -2.6375 0 0  -2.625 0 0  -2.6125 0 0  -2.6 0 0  -2.5875 0 0  -2.575 0 0  -2.5625 0 0  -2.55 0 0  -2.5375 0 0  -2.525 0 0  -2.5125 0 0  -2.5 0 0  -2.4875 0 0  -2.475 0 0  -2.4625 0 0  -2.45 0 0  -2.4375 0 0  -2.425 0 0  -2.4125 0 0  -2.4 0 0  -2.3875 0 0  -2.375 0 0  -2.3625 0 0  -2.35 0 0  -2.3375 0 0  -2.325 0 0  -2.3125 0 0  -2.3 0 0  -2.2875 0 0  -2.275 0 0  -2.2625 0 0  -2.25 0 0  -2.2375 0 0  -2.225 0 0  -2.2125 0 0  -2.2 0 0  -2.1875 0 0  -2.175 0 0  -2.1625 0 0  -2.15 0 0  -2.1375 0 0  -2.125 0 0  -2.1125 0 0  -2.1 0 0  -2.0875 0 0  -2.075 0 0  -2.0625 0 0  -2.05 0 0  -2.0375 0 0  -2.025 0 0  -2.0125 0 0  -2 0 0  -1.9875 0 0  -1.975 0 0  -1.9625 0 0  -1.95 0 0  -1.9375 0 0  -1.925 0 0  -1.9125 0 0  -1.9 0 0  -1.8875 0 0  -1.875 0 0  -1.8625 0 0  -1.85 0 0  -1.8375 0 0  -1.825 0 0  -1.8125 0 0  -1.8 0 0  -1.7875 0 0  -1.775 0 0  -1.7625 0 0  -1.75 0 0  -1.7375 0 0  -1.725 0 0  -1.7125 0 0  -1.7 0 0  -1.6875 0 0  -1.675 0 0  -1.6625 0 0  -1.65 0 0  -1.6375 0 0  -1.625 0 0  -1.6125 0 0  -1.6 0 0  -1.5875 0 0  -1.575 0 0  -1.5625 0 0  -1.55 0 0  -1.5375 0 0  -1.525 0 0  -1.5125 0 0  -1.5 0 0  -1.4875 0 0  -1.475 0 0  -1.4625 0 0  -1.45 0 0  -1.4375 0 0  -1.425 0 0  -1.4125 0 0  -1.4 0 0  -1.3875 0 0  -1.375 0 0  -1.3625 0 0  -1.35 0 0  -1.3375 0 0  -1.325 0 0  -1.3125 0 0  -1.3 0 0  -1.2875 0 0  -1.275 0 0  -1.2625 0 0  -1.25 0 0  -1.2375 0 0  -1.225 0 0  -1.2125 0 0  -1.2 0 0  -1.1875 0 0  -1.175 0 0  -1.1625 0 0  -1.15 0 0  -1.1375 0 0  -1.125 0 0  -1.1125 0 0  -1.1 0 0  -1.0875 0 0  -1.075 0 0  -1.0625 0 0  -1.05 0 0  -1.0375 0 0  -1.025 0 0  -1.0125 0 0  -1 0 0  -0.9874999999999998 0 0  -0.9749999999999996 0 0  -0.9625000000000004 0 0  -0.9500000000000002 0 0  -0.9375 0 0  -0.9249999999999998 0 0  -0.9124999999999996 0 0  -0.9000000000000004 0 0  -0.8875000000000002 0 0  -0.875 0 0  -0.8624999999999998 0 0  -0.8499999999999996 0 0  -0.8375000000000004 0 0  -0.8250000000000002 0 0  -0.8125 0 0  -0.7999999999999998 0 0  -0.7874999999999996 0 0  -0.7750000000000004 0 0  -0.7625000000000002 0 0  -0.75 0 0  -0.7374999999999998 0 0  -0.7249999999999996 0 0  -0.7125000000000004 0 0  -0.7000000000000002 0 0  -0.6875 0 0  -0.6749999999999998 0 0  -0.6624999999999996 0 0  -0.6500000000000004 0 0  -0.6375000000000002 0 0  -0.625 0 0  -0.6124999999999998 0 0  -0.5999999999999996 0 0  -0.5875000000000004 0 0  -0.5750000000000002 0 0  -0.5625 0 0  -0.5499999999999998 0 0  -0.5374999999999996 0 0  -0.5250000000000004 0 0  -0.5125000000000002 0 0  -0.5 0 0  -0.4874999999999998 0 0  -0.4749999999999996 0 0  -0.4625000000000004 0 0  -0.4500000000000002 0 0  -0.4375 0 0  -0.4249999999999998 0 0  -0.4124999999999996 0 0  -0.4000000000000004 0 0  -0.3875000000000002 0 0  -0.375 0 0  -0.3624999999999998 0 0  -0.3499999999999996 0 0  -0.3375000000000004 0 0  -0.3250000000000002 0 0  -0.3125 0 0  -0.2999999999999998 0 0  -0.2874999999999996 0 0  -0.2750000000000004 0 0  -0.2625000000000002 0 0  -0.25 0 0  -0.2374999999999998 0 0  -0.2249999999999996 0 0  -0.2125000000000004 0 0  -0.2000000000000002 0 0  -0.1875 0 0  -0.1749999999999998 0 0  -0.1624999999999996 0 0  -0.1500000000000004 0 0  -0.1375000000000002 0 0  -0.125 0 0  -0.1124999999999998 0 0  -0.09999999999999964 0 0  -0.08750000000000036 0 0  -0.07500000000000018 0 0  -0.0625 0 0  -0.04999999999999982 0 0  -0.03749999999999964 0 0  -0.02500000000000036 0 0  -0.01250000000000018 0 0  0 0 0  0.01250000000000018 0 0  0.02500000000000036 0 0  0.03749999999999964 0 0  0.04999999999999982 0 0  0.0625 0 0  0.07500000000000018 0 0  0.08750000000000036 0 0  0.09999999999999964 0 0  0.1124999999999998 0 0  0.125 0 0  0.1375000000000002 0 0  0.1500000000000004 0 0  0.1624999999999996 0 0  0.1749999999999998 0 0  0.1875 0 0  0.2000000000000002 0 0  0.2125000000000004 0 0  0.2249999999999996 0 0  0.2374999999999998 0 0  0.25 0 0  0.2625000000000002 0 0  0.2750000000000004 0 0  0.2874999999999996 0 0  0.2999999999999998 0 0  0.3125 0 0  0.3250000000000002 0 0  0.3375000000000004 0 0  0.3499999999999996 0 0  0.3624999999999998 0 0  0.375 0 0  0.3875000000000002 0 0  0.4000000000000004 0 0  0.4124999999999996 0 0  0.4249999999999998 0 0  0.4375 0 0  0.4500000000000002 0 0  0.4625000000000004 0 0  0.4749999999999996 0 0  0.4874999999999998 0 0  0.5 0 0  0.5125000000000002 0 0  0.5250000000000004 0 0  0.5374999999999996 0 0  0.5499999999999998 0 0  0.5625 0 0  0.5750000000000002 0 0  0.5875000000000004 0 0  0.5999999999999996 0 0  0.6124999999999998 0 0  0.625 0 0  0.6375000000000002 0 0  0.6500000000000004 0 0  0.6624999999999996 0 0  0.6749999999999998 0 0  0.6875 0 0  0.7000000000000002 0 0  0.7125000000000004 0 0  0.7249999999999996 0 0  0.7374999999999998 0 0  0.75 0 0  0.7625000000000002 0 0  0.7750000000000004 0 0  0.7874999999999996 0 0  0.7999999999999998 0 0  0.8125 0 0  0.8250000000000002 0 0  0.8375000000000004 0 0  0.8499999999999996 0 0  0.8624999999999998 0 0  0.875 0 0  0.8875000000000002 0 0  0.9000000000000004 0 0  0.9124999999999996 0 0  0.9249999999999998 0 0  0.9375 0 0  0.9500000000000002 0 0  0.9625000000000004 0 0  0.9749999999999996 0 0  0.9874999999999998 0 0  1 0 0  1.0125 0 0  1.025 0 0  1.0375 0 0  1.05 0 0  1.0625 0 0  1.075 0 0  1.0875 0 0  1.1 0 0  1.1125 0 0  1.125 0 0  1.1375 0 0  1.15 0 0  1.1625 0 0  1.175 0 0  1.1875 0 0  1.2 0 0  1.2125 0 0  1.225 0 0  1.2375 0 0  1.25 0 0  1.2625 0 0  1.275 0 0  1.2875 0 0  1.3 0 0  1.3125 0 0  1.325 0 0  1.3375 0 0  1.35 0 0  1.3625 0 0  1.375 0 0  1.3875 0 0  1.4 0 0  1.4125 0 0  1.425 0 0  1.4375 0 0  1.45 0 0  1.4625 0 0  1.475 0 0  1.4875 0 0  1.5 0 0  1.5125 0 0  1.525 0 0  1.5375 0 0  1.55 0 0  1.5625 0 0  1.575 0 0  1.5875 0 0  1.6 0 0  1.6125 0 0  1.625 0 0  1.6375 0 0  1.65 0 0  1.6625 0 0  1.675 0 0  1.6875 0 0  1.7 0 0  1.7125 0 0  1.725 0 0  1.7375 0 0  1.75 0 0  1.7625 0 0  1.775 0 0  1.7875 0 0  1.8 0 0  1.8125 0 0  1.825 0 0  1.8375 0 0  1.85 0 0  1.8625 0 0  1.875 0 0  1.8875 0 0  1.9 0 0  1.9125 0 0  1.925 0 0  1.9375 0 0  1.95 0 0  1.9625 0 0  1.975 0 0  1.9875 0 0  2 0 0  2.0125 0 0  2.025 0 0  2.0375 0 0  2.05 0 0  2.0625 0 0  2.075 0 0  2.0875 0 0  2.1 0 0  2.1125 0 0  2.125 0 0  2.1375 0 0  2.15 0 0  2.1625 0 0  2.175 0 0  2.1875 0 0  2.2 0 0  2.2125 0 0  2.225 0 0  2.2375 0 0  2.25 0 0  2.2625 0 0  2.275 0 0  2.2875 0 0  2.3 0 0  2.3125 0 0  2.325 0 0  2.3375 0 0  2.35 0 0  2.3625 0 0  2.375 0 0  2.3875 0 0  2.4 0 0  2.4125 0 0  2.425 0 0  2.4375 0 0  2.45 0 0  2.4625 0 0  2.475 0 0  2.4875 0 0  2.5 0 0  2.5125 0 0  2.525 0 0  2.5375 0 0  2.55 0 0  2.5625 0 0  2.575 0 0  2.5875 0 0  2.6 0 0  2.6125 0 0  2.625 0 0  2.6375 0 0  2.65 0 0  2.6625 0 0  2.675 0 0  2.6875 0 0  2.7 0 0  2.7125 0 0  2.725 0 0  2.7375 0 0  2.75 0 0  2.7625 0 0  2.775 0 0  2.7875 0 0  2.8 0 0  2.8125 0 0  2.825 0 0  2.8375 0 0  2.85 0 0  2.8625 0 0  2.875 0 0  2.8875 0 0  2.9 0 0  2.9125 0 0  2.925 0 0  2.9375 0 0  2.95 0 0  2.9625 0 0  2.975 0 0  2.9875 0 0  3 0 0  3.012499999999999 0 0  3.025 0 0  3.0375 0 0  3.050000000000001 0 0  3.0625 0 0  3.074999999999999 0 0  3.0875 0 0  3.1 0 0  3.112500000000001 0 0  3.125 0 0  3.137499999999999 0 0  3.15 0 0  3.1625 0 0  3.175000000000001 0 0  3.1875 0 0  3.199999999999999 0 0  3.2125 0 0  3.225 0 0  3.237500000000001 0 0  3.25 0 0  3.262499999999999 0 0  3.275 0 0  3.2875 0 0  3.300000000000001 0 0  3.3125 0 0  3.324999999999999 0 0  3.3375 0 0  3.35 0 0  3.362500000000001 0 0  3.375 0 0  3.387499999999999 0 0  3.4 0 0  3.4125 0 0  3.425000000000001 0 0  3.4375 0 0  3.449999999999999 0 0  3.4625 0 0  3.475 0 0  3.4875
[...]
<PointData  Vectors="(h, u)"> 
<DataArray  type="Float64"  Name="(h, u)"  NumberOfComponents="3" format="ascii">5.5000000000000021e-02 0.0000000000000000e+00 0.0000000000000000e+00  5.5000000000000007e-02 -8.7398931576198392e-17 0.0000000000000000e+00  5.5000000000000021e-02 -2.4879039025760679e-16 0.0000000000000000e+00  5.5000000000000007e-02 -1.9825949615704377e-16 0.0000000000000000e+00  5.5000000000000021e-02 -3.7345365218944747e-16 0.0000000000000000e+00  5.5000000000000007e-02 9.2670613732892181e-17 0.0000000000000000e+00  5.5000000000000014e-02 -2.7288530486979658e-16 0.0000000000000000e+00  5.5000000000000007e-02 8.9402230090252887e-17 0.0000000000000000e+00  5.5000000000000028e-02 -1.0318820358279112e-16 0.0000000000000000e+00  5.5000000000000028e-02 -7.3549938850636261e-17 0.0000000000000000e+00  5.5000000000000028e-02 -6.0141170696664615e-16 0.0000000000000000e+00  5.5000000000000021e-02 -6.3784616556878225e-17 0.0000000000000000e+00  5.5000000000000028e-02 -4.1905672573597182e-16 0.0000000000000000e+00  5.5000000000000035e-02 -1.2377896721573318e-18 0.0000000000000000e+00  5.5000000000000042e-02 -2.6012999702024679e-16 0.0000000000000000e+00  5.5000000000000028e-02 3.7230506145298656e-16 0.0000000000000000e+00  5.5000000000000035e-02 -4.7095786258434063e-16 0.0000000000000000e+00  5.5000000000000021e-02 5.2298042789250940e-17 0.0000000000000000e+00  5.5000000000000028e-02 -5.5658108149836927e-16 0.0000000000000000e+00  5.5000000000000021e-02 8.4614127552305205e-18 0.0000000000000000e+00  5.5000000000000028e-02 -4.0721347251571660e-16 0.0000000000000000e+00  5.5000000000000021e-02 8.6708646728901708e-17 0.0000000000000000e+00  5.5000000000000028e-02 -2.9693171163373755e-16 0.0000000000000000e+00  5.5000000000000021e-02 1.3862418316134673e-16 0.0000000000000000e+00  5.5000000000000028e-02 -2.5376832056062085e-16 0.0000000000000000e+00  5.5000000000000021e-02 1.1661016111014256e-16 0.0000000000000000e+00  5.5000000000000028e-02 -2.3055144775210950e-16 0.0000000000000000e+00  5.5000000000000021e-02 1.2814729299267397e-16 0.0000000000000000e+00  5.5000000000000028e-02 -9.2274670849979460e-17 0.0000000000000000e+00  5.5000000000000021e-02 2.1815393778818532e-16 0.0000000000000000e+00  5.5000000000000028e-02 7.3391767417680957e-17 0.0000000000000000e+00  5.5000000000000021e-02 2.1325408595456431e-16 0.0000000000000000e+00  5.5000000000000028e-02 7.3872705089357220e-17 0.0000000000000000e+00  5.5000000000000021e-02 2.9084165389893995e-17 0.0000000000000000e+00  5.5000000000000028e-02 -2.7821071917608879e-17 0.0000000000000000e+00  5.5000000000000021e-02 -1.4551368835368740e-16 0.0000000000000000e+00  5.5000000000000028e-02 -2.3132178382668320e-17 0.0000000000000000e+00  5.5000000000000021e-02 -1.3650343230683165e-16 0.0000000000000000e+00  5.5000000000000028e-02 1.1380816481375825e-16 0.0000000000000000e+00  5.5000000000000021e-02 -1.0123817063908799e-16 0.0000000000000000e+00  5.5000000000000028e-02 1.8719883055325320e-16 0.0000000000000000e+00  5.5000000000000021e-02 -1.5099705973414705e-16 0.0000000000000000e+00  5.5000000000000028e-02 2.5238917719238635e-16 0.0000000000000000e+00  5.5000000000000021e-02 -1.9376300598449022e-16 0.0000000000000000e+00  5.5000000000000028e-02 5.1525040128965689e-16 0.0000000000000000e+00  5.5000000000000014e-02 -1.3094588887958873e-16 0.0000000000000000e+00  5.5000000000000028e-02 4.3486885923808255e-16 0.0000000000000000e+00  5.5000000000000014e-02 -3.6121792856148408e-18 0.0000000000000000e+00  5.5000000000000028e-02 2.3823726771448157e-16 0.0000000000000000e+00  5.5000000000000021e-02 3.5594592391535423e-17 0.0000000000000000e+00  5.5000000000000028e-02 2.5969049438572919e-16 0.0000000000000000e+00  5.5000000000000021e-02 1.8184260678504220e-17 0.0000000000000000e+00  5.5000000000000028e-02 6.3007361667715291e-17 0.0000000000000000e+00  5.5000000000000021e-02 1.0781401997983463e-16 0.0000000000000000e+00  5.5000000000000028e-02 -2.3723505015269841e-16 0.0000000000000000e+00  5.5000000000000028e-02 -2.5112911476343167e-16 0.0000000000000000e+00  5.5000000000000028e-02 5.1451506236727276e-17 0.0000000000000000e+00  5.5000000000000014e-02 -1.3987619902259233e-16 0.0000000000000000e+00  5.5000000000000028e-02 -1.8236376123637845e-16 0.0000000000000000e+00  5.5000000000000014e-02 9.6827204464292992e-20 0.0000000000000000e+00  5.5000000000000028e-02 -1.4377100509910525e-16 0.0000000000000000e+00  5.5000000000000014e-02 9.2910640134456348e-17 0.0000000000000000e+00  5.5000000000000028e-02 -1.5458515897302500e-16 0.0000000000000000e+00  5.5000000000000014e-02 4.2874445572552633e-17 0.0000000000000000e+00  5.5000000000000028e-02 -4.0328919893348948e-16 0.0000000000000000e+00  5.5000000000000021e-02 7.3816149984854838e-18 0.0000000000000000e+00  5.5000000000000028e-02 -2.4762969873391737e-17 0.0000000000000000e+00  5.5000000000000021e-02 1.0759772917373899e-16 0.0000000000000000e+00  5.5000000000000028e-02 2.0056469572954721e-16 0.0000000000000000e+00  5.5000000000000021e-02 4.4395297911590063e-17 0.0000000000000000e+00  5.5000000000000028e-02 1.1956154268831348e-16 0.0000000000000000e+00  5.5000000000000021e-02 -1.0240230856022991e-16 0.0000000000000000e+00  5.5000000000000028e-02 1.6773682861533604e-16 0.0000000000000000e+00  5.5000000000000021e-02 -1.6723931298713305e-17 0.0000000000000000e+00  5.5000000000000028e-02 4.6300774463426103e-16 0.0000000000000000e+00  5.5000000000000014e-02 2.4601343348797596e-16 0.0000000000000000e+00  5.5000000000000021e-02 1.3984566434089255e-16 0.0000000000000000e+00  5.5000000000000014e-02 -1.8888333671295623e-16 0.0000000000000000e+00  5.5000000000000028e-02 -2.1801293982715836e-16 0.0000000000000000e+00  5.5000000000000021e-02 1.6416729069019702e-17 0.0000000000000000e+00  5.5000000000000028e-02 -2.0037402100655889e-16 0.0000000000000000e+00  5.5000000000000021e-02 -4.7697219935355226e-17 0.0000000000000000e+00  5.5000000000000028e-02 8.2976134906774994e-17 0.0000000000000000e+00  5.5000000000000021e-02 -1.1865848167955317e-16 0.0000000000000000e+00  5.5000000000000028e-02 2.8298951032872655e-16 0.0000000000000000e+00  5.5000000000000021e-02 -1.5602436482545469e-16 0.0000000000000000e+00  5.5000000000000028e-02 2.8120373963996248e-16 0.0000000000000000e+00  5.5000000000000014e-02 -1.3276976020482315e-16 0.0000000000000000e+00  5.5000000000000028e-02 -1.2226610785905130e-17 0.0000000000000000e+00  5.5000000000000014e-02 1.2785660240192563e-17 0.0000000000000000e+00  5.5000000000000028e-02 -1.2202300334111469e-16 0.0000000000000000e+00  5.5000000000000014e-02 9.2822763474445961e-17 0.0000000000000000e+00  5.5000000000000028e-02 -3.9358351671925508e-16 0.0000000000000000e+00  5.5000000000000021e-02 8.2650107235915798e-17 0.0000000000000000e+00  5.5000000000000028e-02 -1.9863472520866648e-17 0.0000000000000000e+00  5.5000000000000014e-02 2.7481647054967043e-16 0.0000000000000000e+00  5.5000000000000021e-02 -5.7876554722170136e-17 0.0000000000000000e+00  5.5000000000000021e-02 6.4375060122718550e-16 0.0000000000000000e+00  5.5000000000000014e-02 8.9798230572245738e-17 0.0000000000000000e+00  5.5000000000000028e-02 5.1373327259329027e-16 0.0000000000000000e+00  5.5000000000000007e-02 -2.4641794563530286e-16 0.0000000000000000e+00  5.5000000000000035e-02 1.6023139083070407e-16 0.0000000000000000e+00  5.5000000000000007e-02 -2.2267504249289434e-16 0.0000000000000000e+00  5.5000000000000028e-02 -1.3160838418193414e-16 0.0000000000000000e+00  5.5000000000000014e-02 -2.4460442100320059e-16 0.0000000000000000e+00  5.5000000000000021e-02 -1.0383356283714413e-16 0.0000000000000000e+00  5.5000000000000014e-02 -4.1021195720484642e-17 0.0000000000000000e+00  5.5000000000000028e-02 1.2115185564611403e-16 0.0000000000000000e+00  5.5000000000000028e-02 -2.2763786512955056e-16 0.0000000000000000e+00  5.5000000000000028e-02 2.5757377740811641e-16 0.0000000000000000e+00  5.5000000000000028e-02 -1.7424233911521496e-16 0.0000000000000000e+00  5.5000000000000028e-02 2.9840026745318444e-16 0.0000000000000000e+00  5.5000000000000021e-02 -2.9101020401935240e-16 0.0000000000000000e+00  5.5000000000000028e-02 -1.3856205584315971e-17 0.0000000000000000e+00  5.5000000000000014e-02 -1.9430982874804619e-16 0.0000000000000000e+00  5.5000000000000028e-02 -2.4565333235778376e-16 0.0000000000000000e+00  5.5000000000000021e-02 2.4610563782547683e-18 0.0000000000000000e+00  5.5000000000000021e-02 -1.2435813363585545e-16 0.0000000000000000e+00  5.5000000000000028e-02 -8.4414240123389889e-17 0.0000000000000000e+00  5.5000000000000021e-02 1.2194956092142089e-16 0.0000000000000000e+00  5.5000000000000028e-02 -1.5832382832076385e-16 0.0000000000000000e+00  5.5000000000000021e-02 1.8357040055203482e-16 0.0000000000000000e+00  5.5000000000000028e-02 -1.9014279966693300e-16 0.0000000000000000e+00  5.5000000000000021e-02 1.4581977714977114e-16 0.0000000000000000e+00  5.5000000000000028e-02 -4.7569505409701569e-16 0.0000000000000000e+00  5.5000000000000028e-02 3.5802988166432727e-17 0.0000000000000000e+00  5.5000000000000028e-02 -1.8931604602255021e-16 0.0000000000000000e+00  5.5000000000000028e-02 3.4652688688994696e-17 0.0000000000000000e+00  5.5000000000000028e-02 -1.2323011605412125e-18 0.0000000000000000e+00  5.5000000000000028e-02 9.8458788474047800e-17 0.0000000000000000e+00  5.5000000000000028e-02 2.0854112005749598e-16 0.0000000000000000e+00  5.5000000000000028e-02 1.1459313293190826e-16 0.0000000000000000e+00  5.5000000000000028e-02 -2.6071508042956186e-17 0.0000000000000000e+00  5.5000000000000028e-02 -1.1373387446599152e-16 0.0000000000000000e+00  5.5000000000000028e-02 -2.2133829255980613e-16 0.0000000000000000e+00  5.5000000000000028e-02 -4.0583956291468601e-17 0.0000000000000000e+00  5.5000000000000028e-02 4.9531863465185640e-18 0.0000000000000000e+00  5.5000000000000028e-02 2.3490207027442272e-16 0.0000000000000000e+00  5.5000000000000028e-02 2.5734843783433140e-16 0.0000000000000000e+00  5.5000000000000028e-02 3.7805869853775698e-16 0.0000000000000000e+00  5.5000000000000028e-02 3.8669746848896264e-16 0.0000000000000000e+00  5.5000000000000021e-02 1.6802951282911780e-16 0.0000000000000000e+00  5.5000000000000028e-02 3.5214995823326525e-17 0.0000000000000000e+00  5.5000000000000014e-02 1.3260960399592908e-16 0.0000000000000000e+00  5.5000000000000021e-02 5.8708563568942823e-17 0.0000000000000000e+00  5.5000000000000007e-02 -2.6357097446931759e-17 0.0000000000000000e+00  5.5000000000000028e-02 -3.0069534712922259e-16 0.0000000000000000e+00  5.5000000000000021e-02 -3.5485208911843651e-16 0.0000000000000000e+00  5.5000000000000035e-02 -1.5832175743679992e-16 0.0000000000000000e+00  5.5000000000000014e-02 1.3640327308443927e-16 0.0000000000000000e+00  5.5000000000000028e-02 1.5923373769161761e-16 0.0000000000000000e+00  5.5000000000000014e-02 -9.6428190991625733e-17 0.0000000000000000e+00  5.5000000000000035e-02 2.5437215926247440e-16 0.0000000000000000e+00  5.5000000000000014e-02 1.9310379479306451e-16 0.0000000000000000e+00  5.5000000000000028e-02 9.7554376414353762e-17 0.0000000000000000e+00  5.5000000000000007e-02 5.4735690622157471e-17 0.0000000000000000e+00  5.5000000000000028e-02 -2.8711037454463941e-17 0.0000000000000000e+00  5.5000000000000000e-02 4.6002775545138780e-17 0.0000000000000000e+00  5.5000000000000028e-02 -2.4910885396937786e-16 0.0000000000000000e+00  5.5000000000000014e-02 1.1280758546650021e-16 0.0000000000000000e+00  5.5000000000000028e-02 -2.2554637439316352e-16 0.0000000000000000e+00  5.5000000000000007e-02 1.1523901282082587e-16 0.0000000000000000e+00  5.5000000000000028e-02 -1.6316911680897822e-16 0.0000000000000000e+00  5.5000000000000014e-02 1.2925929390622585e-16 0.0000000000000000e+00  5.5000000000000021e-02 -3.0824047632335895e-16 0.0000000000000000e+00  5.5000000000000021e-02 -1.9504967282444456e-16 0.0000000000000000e+00  5.5000000000000021e-02 -3.3140640948960038e-17 0.0000000000000000e+00  5.5000000000000028e-02 -1.1782723048029519e-16 0.0000000000000000e+00  5.5000000000000028e-02 1.9486621887240453e-16 0.0000000000000000e+00  5.5000000000000028e-02 -3.2913519323215269e-16 0.0000000000000000e+00  5.5000000000000028e-02 2.9641780046920810e-16 0.0000000000000000e+00  5.5000000000000028e-02 -7.2619379999212320e-17 0.0000000000000000e+00  5.5000000000000028e-02 1.1691186208794863e-16 0.0000000000000000e+00  5.5000000000000021e-02 2.6667108513315404e-17 0.0000000000000000e+00  5.5000000000000028e-02 -1.5539614224164505e-17 0.0000000000000000e+00  5.5000000000000014e-02 4.1419340774304596e-17 0.0000000000000000e+00  5.5000000000000042e-02 -7.5412330954629999e-18 0.0000000000000000e+00  5.4999999999999973e-02 -4.0376931047149509e-16 0.0000000000000000e+00  5.5000000000000097e-02 7.8207090874912145e-16 0.0000000000000000e+00  5.4999999999999827e-02 -2.3318327891626507e-15 0.0000000000000000e+00  5.5000000000000514e-02 6.4730277971624797e-15 0.0000000000000000e+00  5.4999999999998717e-02 -1.7300689137097066e-14 0.0000000000000000e+00  5.5000000000003366e-02 4.4665972212238274e-14 0.0000000000000000e+00  5.4999999999991549e-02 -1.1297644880523613e-13 0.0000000000000000e+00  5.5000000000021157e-02 2.8219309193875078e-13 0.0000000000000000e+00  5.4999999999948646e-02 -6.8629231302263842e-13 0.0000000000000000e+00  5.5000000000120647e-02 1.6105548230925732e-12 0.0000000000000000e+00  5.4999999999731271e-02 -3.5883318165690890e-12 0.0000000000000000e+00  5.5000000000548797e-02 7.3275188707660862e-12 0.0000000000000000e+00  5.4999999999062653e-02 -1.2516329555954544e-11 0.0000000000000000e+00  5.5000000000867931e-02 1.1587165996582551e-11 0.0000000000000000e+00  5.5000000002705572e-02 3.6143370444053912e-11 0.0000000000000000e+00  5.4999999977450122e-02 -3.0122634566892887e-10 0.0000000000000000e+00  5.5000000106690261e-02 1.4254488772246056e-09 0.0000000000000000e+00  5.4999999574930569e-02 -5.6814436209708588e-09 0.0000000000000000e+00  5.5000001555664771e-02 2.0809056648434028e-08 0.0000000000000000e+00  5.4999994590577361e-02 -7.2467600220536637e-08 0.0000000000000000e+00  5.5000018168099289e-02 2.4410757762893459e-07 0.0000000000000000e+00  5.4999940537916313e-02 -8.0355139532113856e-07 0.0000000000000000e+00  5.5000190514875716e-02 2.6037871057705608e-06 0.0000000000000000e+00  5.4999401746947160e-02 -8.3600763454648719e-06 0.0000000000000000e+00  5.5001835852486664e-02 2.6799926414176196e-05 0.0000000000000000e+00  5.4994550210712451e-02 -8.6742980404943052e-05 0.0000000000000000e+00  5.5015245173756985e-02 2.8814382715671778e-04 0.0000000000000000e+00  5.4962716288160948e-02 -1.0081127817410714e-03 0.0000000000000000e+00  5.5057597369693248e-02 3.8069760602967499e-03 0.0000000000000000e+00  5.5161486885287318e-02 -1.6049129038003086e-02 0.0000000000000000e+00  5.2651783869872078e-02 7.3242022990832378e-02 0.0000000000000000e+00  7.8880217410453243e-02 -4.2956945786916423e-01 0.0000000000000000e+00  1.8465773712618300e-01 -1.9608342433448431e+00 0.0000000000000000e+00  2.7669218890260699e-01 -2.7202409774473910e+00 0.0000000000000000e+00  3.3082514279993880e-01 -3.0698243063258501e+00 0.0000000000000000e+00  3.6053365072052596e-01 -3.2396631021653155e+00 0.0000000000000000e+00  3.7355343396140728e-01 -3.3128701994380378e+00 0.0000000000000000e+00  3.7948747538761046e-01 -3.3475430277666351e+00 0.0000000000000000e+00  3.8056553046972585e-01 -3.3575870932844993e+00 0.0000000000000000e+00  3.7995485412898744e-01 -3.3589295105645576e+00 0.0000000000000000e+00  3.7801258739016513e-01 -3.3535875598121385e+00 0.0000000000000000e+00  3.7564690244396731e-01 -3.3462542789461116e+00 0.0000000000000000e+00  3.7292917701742123e-01 -3.3370029947666144e+00 0.0000000000000000e+00  3.7010258483230302e-01 -3.3272191105592719e+00 0.0000000000000000e+00  3.6717215210540011e-01 -3.3169567629159125e+00 0.0000000000000000e+00  3.6422201447430858e-01 -3.3064851309787646e+00 0.0000000000000000e+00  3.6124699655184933e-01 -3.2958898442732951e+00 0.0000000000000000e+00  3.5826282588315428e-01 -3.2852630108598899e+00 0.0000000000000000e+00  3.5528292790626231e-01 -3.2745778613412737e+00 0.0000000000000000e+00  3.5230414655162612e-01 -3.2638895401925243e+00 0.0000000000000000e+00  3.4932808463869358e-01 -3.2532150861211817e+00 0.0000000000000000e+00  3.4636111000295849e-01 -3.2425295147987407e+00 0.0000000000000000e+00  3.4340084881743110e-01 -3.2318579047573968e+00 0.0000000000000000e+00  3.4044635029995035e-01 -3.2212088918681037e+00 0.0000000000000000e+00  3.3750162879808465e-01 -3.2105669819056666e+00 0.0000000000000000e+00  3.3456546287878391e-01 -3.1999414840975167e+00 0.0000000000000000e+00  3.3163677375576067e-01 -3.1893412803609311e+00 0.0000000000000000e+00  3.2871763261231624e-01 -3.1787580044125718e+00 0.0000000000000000e+00  3.2580815524296647e-01 -3.1681927472672413e+00 0.0000000000000000e+00  3.2290732499266017e-01 -3.1576537113410361e+00 0.0000000000000000e+00  3.2001602320775774e-01 -3.1471375563658186e+00 0.0000000000000000e+00  3.1713492843485608e-01 -3.1366428045870327e+00 0.0000000000000000e+00  3.1426352035398836e-01 -3.1261737368290556e+00 0.0000000000000000e+00  3.1140188689212717e-01 -3.1157318965634637e+00 0.0000000000000000e+00  3.0855072051505178e-01 -3.1053148359709803e+00 0.0000000000000000e+00  3.0571004403495167e-01 -3.0949241825031359e+00 0.0000000000000000e+00  3.0287970126760227e-01 -3.0845622275198061e+00 0.0000000000000000e+00  3.0006001410049404e-01 -3.0742288113908600e+00 0.0000000000000000e+00  2.9725134557135885e-01 -3.0639231859213552e+00 0.0000000000000000e+00  2.9445369659157838e-01 -3.0536469196375586e+00 0.0000000000000000e+00  2.9166708850819911e-01 -3.0434011276222876e+00 0.0000000000000000e+00  2.8889183856179768e-01 -3.0331855326171873e+00 0.0000000000000000e+00  2.8612817467126650e-01 -3.0229999290994307e+00 0.0000000000000000e+00  2.8337619656848251e-01 -3.0128452456046970e+00 0.0000000000000000e+00  2.8063595996552770e-01 -3.0027221938406270e+00 0.0000000000000000e+00  2.7790777424123081e-01 -2.9926304320695802e+00 0.0000000000000000e+00  2.7519184012140124e-01 -2.9825697198426422e+00 0.0000000000000000e+00  2.7248835856731818e-01 -2.9725402796192690e+00 0.0000000000000000e+00  2.6979739669592517e-01 -2.9625425929954852e+00 0.0000000000000000e+00  2.6711926144517290e-01 -2.9525761854600865e+00 0.0000000000000000e+00  2.6445418219878153e-01 -2.9426404789082237e+00 0.0000000000000000e+00  2.6180246519708572e-01 -2.9327349079461293e+00 0.0000000000000000e+00  2.5916423693489360e-01 -2.9228594285946432e+00 0.0000000000000000e+00  2.5653979386382902e-01 -2.9130134567531654e+00 0.0000000000000000e+00  2.5392941517976902e-01 -2.9031959172321238e+00 0.0000000000000000e+00  2.5133351553651795e-01 -2.8934053890433824e+00 0.0000000000000000e+00  2.4875238972137417e-01 -2.8836405706025703e+00 0.0000000000000000e+00  2.4618637243985869e-01 -2.8739004219118831e+00 0.0000000000000000e+00  2.4363579445990946e-01 -2.8641832908669298e+00 0.0000000000000000e+00  2.4110112165978223e-01 -2.8544871820957618e+00 0.0000000000000000e+00  2.3858288353559187e-01 -2.8448090193752891e+00 0.0000000000000000e+00  2.3608163606413660e-01 -2.8351460479287049e+00 0.0000000000000000e+00  2.3359792412833291e-01 -2.8254948880924675e+00 0.0000000000000000e+00  2.3113229455614531e-01 -2.8158526378241895e+00 0.0000000000000000e+00  2.2868538559698759e-01 -2.8062150954924410e+00 0.0000000000000000e+00  2.2625796276343327e-01 -2.7965776904812283e+00 0.0000000000000000e+00  2.2385094398817068e-01 -2.7869341017794804e+00 0.0000000000000000e+00  2.2146537502620442e-01 -2.7772775691634353e+00 0.0000000000000000e+00  2.1910237442351624e-01 -2.7676000542354982e+00 0.0000000000000000e+00  2.1676317578761567e-01 -2.7578931086605682e+00 0.0000000000000000e+00  2.1444909765717091e-01 -2.7481468854384761e+00 0.0000000000000000e+00  2.1216170657608252e-01 -2.7383501639640291e+00 0.0000000000000000e+00  2.0990279299904471e-01 -2.7284893110650743e+00 0.0000000000000000e+00  2.0767456657839983e-01 -2.7185480211668147e+00 0.0000000000000000e+00  2.0547958991086460e-01 -2.70850655906555