<?xml version="1.0"?>
<VTKFile type="UnstructuredGrid"  version="0.1"  >
<UnstructuredGrid>
<Piece  NumberOfPoints="801" NumberOfCells="800">
<Points>
<DataArray  type="Float64"  NumberOfComponents="3"  format="ascii">-5 0 0  -4.9875 0 0  -4.975 0 0  -4.9625 0 0  -4.95 0 0  -4.9375 0 0  -4.925 0 0  -4.9125 0 0  -4.9 0 0  -4.8875 0 0  -4.875 0 0  -4.8625 0 0  -4.85 0 0  -4.8375 0 0  -4.825 0 0  -4.8125 0 0  -4.8 0 0  -4.7875 0 0  -4.775 0 0  -4.7625 0 0  -4.75 0 0  -4.7375 0 0  -4.725 0 0  -4.7125 0 0  -4.7 0 0  -4.6875 0 0  -4.675 0 0  -4.6625 0 0  -4.65 0 0  -4.6375 0 0  -4.625 0 0  -4.6125 0 0  -4.6 0 0  -4.5875 0 0  -4.575 0 0  -4.5625 0 0  -4.55 0 0  -4.5375 0 0  -4.525 0 0  -4.5125 0 0  -4.5 0 0  -4.4875 0 0  -4.475 0 0  -4.4625 0 0  -4.45 0 0  -4.4375 0 0  -4.425 0 0  -4.4125 0 0  -4.4 0 0  -4.3875 0 0  -4.375 0 0  -4.3625 0 0  -4.35 0 0  -4.3375 0 0  -4.325 0 0  -4.3125 0 0  -4.3 0 0  -4.2875 0 0  -4.275 0 0  -4.2625 0 0  -4.25 0 0  -4.2375 0 0  -4.225 0 0  -4.2125 0 0  -4.2 0 0  -4.1875 0 0  -4.175 0 0  -4.1625 0 0  -4.15 0 0  -4.1375 0 0  -4.125 0 0  -4.1125 0 0  -4.1 0 0  -4.0875 0 0  -4.075 0 0  -4.0625 0 0  -4.05 0 0  -4.0375 0 0  -4.025 0 0  -4.0125 0 0  -4 0 0  -3.9875 0 0  -3.975 0 0  -3.9625 0 0  -3.95 0 0  -3.9375 0 0  -3.925 0 0  -3.9125 0 0  -3.9 0 0  -3.8875 0 0  -3.875 0 0  -3.8625 0 0  -3.85 0 0  -3.8375 0 0  -3.825 0 0  -3.8125 0 0  -3.8 0 0  -3.7875 0 0  -3.775 0 0  -3.7625 0 0  -3.75 0 0  -3.7375 0 0  -3.725 0 0  -3.7125 0 0  -3.7 0 0  -3.6875 0 0  -3.675 0 0  -3.6625 0 0  -3.65 0 0  -3.6375 0 0  -3.625 0 0  -3.6125 0 0  -3.6 0 0  -3.5875 0 0  -3.575 0 0  -3.5625 0 0  -3.55 0 0  -3.5375 0 0  -3.525 0 0  -3.5125 0 0  -3.5 0 0  -3.4875 0 0  -3.475 0 0  -3.4625 0 0  -3.45 0 0  -3.4375 0 0  -3.425 0 0  -3.4125 0 0  -3.4 0 0  -3.3875 0 0  -3.375 0 0  -3.3625 0 0  -3.35 0 0  -3.3375 0 0  -3.325 0 0  -3.3125 0 0  -3.3 0 0  -3.2875 0 0  -3.275 0 0  -3.2625 0 0  -3.25 0 0  -3.2375 0 0  -3.225 0 0  -3.2125 0 0  -3.2 0 0  -3.1875 0 0  -3.175 0 0  -3.1625 0 0  -3.15 0 0  -3.1375 0 0  -3.125 0 0  -3.1125 0 0  -3.1 0 0  -3.0875 0 0  -3.075 0 0  -3.0625 0 0  -3.05 0 0  -3.0375 0 0  -3.025 0 0  -3.0125 0 0  -3 0 0  -2.9875 0 0  -2.975 0 0  -2.9625 0 0  -2.95 0 0  -2.9375 0 0  -2.925 0 0  -2.9125 0 0  -2.9 0 0  -2.8875 0 0  -2.875 0 0  -2.8625 0 0  -2.85 0 0  -2.8375 0 0  -2.825 0 0  -2.8125 0 0  -2.8 0 0  -2.7875 0 0  -2.775 0 0  -2.7625 0 0  -2.75 0 0  -2.7375 0 0  -2.725 0 0  -2.7125 0 0  -2.7 0 0  -2.6875 0 0  -2.675 0 0  -2.6625 0 0  -2.65 0 0  -2.6375 0 0  -2.625 0 0  -2.6125 0 0  -2.6 0 0  -2.5875 0 0  -2.575 0 0  -2.5625 0 0  -2.55 0 0  -2.5375 0 0  -2.525 0 0  -2.5125 0 0  -2.5 0 0  -2.4875 0 0  -2.475 0 0  -2.4625 0 0  -2.45 0 0  -2.4375 0 0  -2.425 0 0  -2.4125 0 0  -2.4 0 0  -2.3875 0 0  -2.375 0 0  -2.3625 0 0  -2.35 0 0  -2.3375 0 0  -2.325 0 0  -2.3125 0 0  -2.3 0 0  -2.2875 0 0  -2.275 0 0  -2.2625 0 0  -2.25 0 0  -2.2375 0 0  -2.225 0 0  -2.2125 0 0  -2.2 0 0  -2.1875 0 0  -2.175 0 0  -2.1625 0 0  -2.15 0 0  -2.1375 0 0  -2.125 0 0  -2.1125 0 0  -2.1 0 0  -2.0875 0 0  -2.075 0 0  -2.0625 0 0  -2.05 0 0  -2.0375 0 0  -2.025 0 0  -2.0125 0 0  -2 0 0  -1.9875 0 0  -1.975 0 0  -1.9625 0 0  -1.95 0 0  -1.9375 0 0  -1.925 0 0  -1.9125 0 0  -1.9 0 0  -1.8875 0 0  -1.875 0 0  -1.8625 0 0  -1.85 0 0  -1.8375 0 0  -1.825 0 0  -1.8125 0 0  -1.8 0 0  -1.7875 0 0  -1.775 0 0  -1.7625 0 0  -1.75 0 0  -1.7375 0 0  -1.725 0 0  -1.7125 0 0  -1.7 0 0  -1.6875 0 0  -1.675 0 0  -1.6625 0 0  -1.65 0 0  -1.6375 0 0  -1.625 0 0  -1.6125 0 0  -1.6 0 0  -1.5875 0 0  -1.575 0 0  -1.5625 0 0  -1.55 0 0  -1.5375 0 0  -1.525 0 0  -1.5125 0 0  -1.5 0 0  -1.4875 0 0  -1.475 0 0  -1.4625 0 0  -1.45 0 0  -1.4375 0 0  -1.425 0 0  -1.4125 0 0  -1.4 0 0  -1.3875 0 0  -1.375 0 0  -1.3625 0 0  -1.35 0 0  -1.3375 0 0  -1.325 0 0  -1.3125 0 0  -1.3 0 0  -1.2875 0 0  -1.275 0 0  -1.2625 0 0  -1.25 0 0  -1.2375 0 0  -1.225 0 0  -1.2125 0 0  -1.2 0 0  -1.1875 0 0  -1.175 0 0  -1.1625 0 0  -1.15 0 0  -1.1375 0 0  -1.125 0 0  -1.1125 0 0  -1.1 0 0  -1.0875 0 0  -1.075 0 0  -1.0625 0 0  -1.05 0 0  -1.0375 0 0  -1.025 0 0  -1.0125 0 0  -1 0 0  -0.9874999999999998 0 0  -0.9749999999999996 0 0  -0.9625000000000004 0 0  -0.9500000000000002 0 0  -0.9375 0 0  -0.9249999999999998 0 0  -0.9124999999999996 0 0  -0.9000000000000004 0 0  -0.8875000000000002 0 0  -0.875 0 0  -0.8624999999999998 0 0  -0.8499999999999996 0 0  -0.8375000000000004 0 0  -0.8250000000000002 0 0  -0.8125 0 0  -0.7999999999999998 0 0  -0.7874999999999996 0 0  -0.7750000000000004 0 0  -0.7625000000000002 0 0  -0.75 0 0  -0.7374999999999998 0 0  -0.7249999999999996 0 0  -0.7125000000000004 0 0  -0.7000000000000002 0 0  -0.6875 0 0  -0.6749999999999998 0 0  -0.6624999999999996 0 0  -0.6500000000000004 0 0  -0.6375000000000002 0 0  -0.625 0 0  -0.6124999999999998 0 0  -0.5999999999999996 0 0  -0.5875000000000004 0 0  -0.5750000000000002 0 0  -0.5625 0 0  -0.5499999999999998 0 0  -0.5374999999999996 0 0  -0.5250000000000004 0 0  -0.5125000000000002 0 0  -0.5 0 0  -0.4874999999999998 0 0  -0.4749999999999996 0 0  -0.4625000000000004 0 0  -0.4500000000000002 0 0  -0.4375 0 0  -0.4249999999999998 0 0  -0.4124999999999996 0 0  -0.4000000000000004 0 0  -0.3875000000000002 0 0  -0.375 0 0  -0.3624999999999998 0 0  -0.3499999999999996 0 0  -0.3375000000000004 0 0  -0.3250000000000002 0 0  -0.3125 0 0  -0.2999999999999998 0 0  -0.2874999999999996 0 0  -0.2750000000000004 0 0  -0.2625000000000002 0 0  -0.25 0 0  -0.2374999999999998 0 0  -0.2249999999999996 0 0  -0.2125000000000004 0 0  -0.2000000000000002 0 0  -0.1875 0 0  -0.1749999999999998 0 0  -0.1624999999999996 0 0  -0.1500000000000004 0 0  -0.1375000000000002 0 0  -0.125 0 0  -0.1124999999999998 0 0  -0.09999999999999964 0 0  -0.08750000000000036 0 0  -0.07500000000000018 0 0  -0.0625 0 0  -0.04999999999999982 0 0  -0.03749999999999964 0 0  -0.02500000000000036 0 0  -0.01250000000000018 0 0  0 0 0  0.01250000000000018 0 0  0.02500000000000036 0 0  0.03749999999999964 0 0  0.04999999999999982 0 0  0.0625 0 0  0.07500000000000018 0 0  0.08750000000000036 0 0  0.09999999999999964 0 0  0.1124999999999998 0 0  0.125 0 0  0.1375000000000002 0 0  0.1500000000000004 0 0  0.1624999999999996 0 0  0.1749999999999998 0 0  0.1875 0 0  0.2000000000000002 0 0  0.2125000000000004 0 0  0.2249999999999996 0 0  0.2374999999999998 0 0  0.25 0 0  0.2625000000000002 0 0  0.2750000000000004 0 0  0.2874999999999996 0 0  0.2999999999999998 0 0  0.3125 0 0  0.3250000000000002 0 0  0.3375000000000004 0 0  0.3499999999999996 0 0  0.3624999999999998 0 0  0.375 0 0  0.3875000000000002 0 0  0.4000000000000004 0 0  0.4124999999999996 0 0  0.4249999999999998 0 0  0.4375 0 0  0.4500000000000002 0 0  0.4625000000000004 0 0  0.4749999999999996 0 0  0.4874999999999998 0 0  0.5 0 0  0.5125000000000002 0 0  0.5250000000000004 0 0  0.5374999999999996 0 0  0.5499999999999998 0 0  0.5625 0 0  0.5750000000000002 0 0  0.5875000000000004 0 0  0.5999999999999996 0 0  0.6124999999999998 0 0  0.625 0 0  0.6375000000000002 0 0  0.6500000000000004 0 0  0.6624999999999996 0 0  0.6749999999999998 0 0  0.6875 0 0  0.7000000000000002 0 0  0.7125000000000004 0 0  0.7249999999999996 0 0  0.7374999999999998 0 0  0.75 0 0  0.7625000000000002 0 0  0.7750000000000004 0 0  0.7874999999999996 0 0  0.7999999999999998 0 0  0.8125 0 0  0.8250000000000002 0 0  0.8375000000000004 0 0  0.8499999999999996 0 0  0.8624999999999998 0 0  0.875 0 0  0.8875000000000002 0 0  0.9000000000000004 0 0  0.9124999999999996 0 0  0.9249999999999998 0 0  0.9375 0 0  0.9500000000000002 0 0  0.9625000000000004 0 0  0.9749999999999996 0 0  0.9874999999999998 0 0  1 0 0  1.0125 0 0  1.025 0 0  1.0375 0 0  1.05 0 0  1.0625 0 0  1.075 0 0  1.0875 0 0  1.1 0 0  1.1125 0 0  1.125 0 0  1.1375 0 0  1.15 0 0  1.1625 0 0  1.175 0 0  1.1875 0 0  1.2 0 0  1.2125 0 0  1.225 0 0  1.2375 0 0  1.25 0 0  1.2625 0 0  1.275 0 0  1.2875 0 0  1.3 0 0  1.3125 0 0  1.325 0 0  1.3375 0 0  1.35 0 0  1.3625 0 0  1.375 0 0  1.3875 0 0  1.4 0 0  1.4125 0 0  1.425 0 0  1.4375 0 0  1.45 0 0  1.4625 0 0  1.475 0 0  1.4875 0 0  1.5 0 0  1.5125 0 0  1.525 0 0  1.5375 0 0  1.55 0 0  1.5625 0 0  1.575 0 0  1.5875 0 0  1.6 0 0  1.6125 0 0  1.625 0 0  1.6375 0 0  1.65 0 0  1.6625 0 0  1.675 0 0  1.6875 0 0  1.7 0 0  1.7125 0 0  1.725 0 0  1.7375 0 0  1.75 0 0  1.7625 0 0  1.775 0 0  1.7875 0 0  1.8 0 0  1.8125 0 0  1.825 0 0  1.8375 0 0  1.85 0 0  1.8625 0 0  1.875 0 0  1.8875 0 0  1.9 0 0  1.9125 0 0  1.925 0 0  1.9375 0 0  1.95 0 0  1.9625 0 0  1.975 0 0  1.9875 0 0  2 0 0  2.0125 0 0  2.025 0 0  2.0375 0 0  2.05 0 0  2.0625 0 0  2.075 0 0  2.0875 0 0  2.1 0 0  2.1125 0 0  2.125 0 0  2.1375 0 0  2.15 0 0  2.1625 0 0  2.175 0 0  2.1875 0 0  2.2 0 0  2.2125 0 0  2.225 0 0  2.2375 0 0  2.25 0 0  2.2625 0 0  2.275 0 0  2.2875 0 0  2.3 0 0  2.3125 0 0  2.325 0 0  2.3375 0 0  2.35 0 0  2.3625 0 0  2.375 0 0  2.3875 0 0  2.4 0 0  2.4125 0 0  2.425 0 0  2.4375 0 0  2.45 0 0  2.4625 0 0  2.475 0 0  2.4875 0 0  2.5 0 0  2.5125 0 0  2.525 0 0  2.5375 0 0  2.55 0 0  2.5625 0 0  2.575 0 0  2.5875 0 0  2.6 0 0  2.6125 0 0  2.625 0 0  2.6375 0 0  2.65 0 0  2.6625 0 0  2.675 0 0  2.6875 0 0  2.7 0 0  2.7125 0 0  2.725 0 0  2.7375 0 0  2.75 0 0  2.7625 0 0  2.775 0 0  2.7875 0 0  2.8 0 0  2.8125 0 0  2.825 0 0  2.8375 0 0  2.85 0 0  2.8625 0 0  2.875 0 0  2.8875 0 0  2.9 0 0  2.9125 0 0  2.925 0 0  2.9375 0 0  2.95 0 0  2.9625 0 0  2.975 0 0  2.9875 0 0  3 0 0  3.012499999999999 0 0  3.025 0 0  3.0375 0 0  3.050000000000001 0 0  3.0625 0 0  3.074999999999999 0 0  3.0875 0 0  3.1 0 0  3.112500000000001 0 0  3.125 0 0  3.137499999999999 0 0  3.15 0 0  3.1625 0 0  3.175000000000001 0 0  3.1875 0 0  3.199999999999999 0 0  3.2125 0 0  3.225 0 0  3.237500000000001 0 0  3.25 0 0  3.262499999999999 0 0  3.275 0 0  3.2875 0 0  3.300000000000001 0 0  3.3125 0 0  3.324999999999999 0 0  3.3375 0 0  3.35 0 0  3.362500000000001 0 0  3.375 0 0  3.387499999999999 0 0  3.4 0 0  3.4125 0 0  3.425000000000001 0 0  3.4375 0 0  3.449999999999999 0 0  3.4625 0 0  3.475 0 0  3.4875
[...]
<PointData  Vectors="(h, u)"> 
<DataArray  type="Float64"  Name="(h, u)"  NumberOfComponents="3" format="ascii">3.0691583958573521e-01 0.0000000000000000e+00 0.0000000000000000e+00  3.0805111054606366e-01 8.2715272923610458e-03 0.0000000000000000e+00  3.0691250027777522e-01 1.6435085265604218e-02 0.0000000000000000e+00  3.0804205992772671e-01 2.4814493785520857e-02 0.0000000000000000e+00  3.0690241744432140e-01 3.2870034113773157e-02 0.0000000000000000e+00  3.0802386327499176e-01 4.1359001802313188e-02 0.0000000000000000e+00  3.0688554516031635e-01 4.9306289893552908e-02 0.0000000000000000e+00  3.0799657263070923e-01 5.7906205013938401e-02 0.0000000000000000e+00  3.0686201811045399e-01 6.5743211999226711e-02 0.0000000000000000e+00  3.0796025252170572e-01 7.4455921527554841e-02 0.0000000000000000e+00  3.0683173988112178e-01 8.2181244395891861e-02 0.0000000000000000e+00  3.0791467791547056e-01 9.1010411256672086e-02 0.0000000000000000e+00  3.0679460635168809e-01 9.8621784231540235e-02 0.0000000000000000e+00  3.0785998227350264e-01 1.0757002460169333e-01 0.0000000000000000e+00  3.0675089232236569e-01 1.1506346537345201e-01 0.0000000000000000e+00  3.0779621061202328e-01 1.2413490736679898e-01 0.0000000000000000e+00  3.0670031176369394e-01 1.3150796910012058e-01 0.0000000000000000e+00  3.0772297360618633e-01 1.4070809560140271e-01 0.0000000000000000e+00  3.0664286593182088e-01 1.4795587020186066e-01 0.0000000000000000e+00  3.0764066982463500e-01 1.5728826463988516e-01 0.0000000000000000e+00  3.0657891911969037e-01 1.6440537709149636e-01 0.0000000000000000e+00  3.0754904993001919e-01 1.7387733969837368e-01 0.0000000000000000e+00  3.0650782763992923e-01 1.8086026857559589e-01 0.0000000000000000e+00  3.0744777326028211e-01 1.9047795556123531e-01 0.0000000000000000e+00  3.0643008714881820e-01 1.9731819033839132e-01 0.0000000000000000e+00  3.0733754662296309e-01 2.0708693214784657e-01 0.0000000000000000e+00  3.0634568136889673e-01 2.1377955468396725e-01 0.0000000000000000e+00  3.0721739647068425e-01 2.2371034571095874e-01 0.0000000000000000e+00  3.0625387323303915e-01 2.3024871676287578e-01 0.0000000000000000e+00  3.0708779369240496e-01 2.4034615490930983e-01 0.0000000000000000e+00  3.0615589695674900e-01 2.4671906369977115e-01 0.0000000000000000e+00  3.0694895490271140e-01 2.5699386105045169e-01 0.0000000000000000e+00  3.0605043315256447e-01 2.6319839529555494e-01 0.0000000000000000e+00  3.0679952800474841e-01 2.7366169784229893e-01 0.0000000000000000e+00  3.0593809086798185e-01 2.7968349274124155e-01 0.0000000000000000e+00  3.0664139359021469e-01 2.9033959767500267e-01 0.0000000000000000e+00  3.0581941025163178e-01 2.9617161529207908e-01 0.0000000000000000e+00  3.0647250225363670e-01 3.0703979441344287e-01 0.0000000000000000e+00  3.0569237097825308e-01 3.1267451641370891e-01 0.0000000000000000e+00  3.0629381534814271e-01 3.2375742462257273e-01 0.0000000000000000e+00  3.0555995933341629e-01 3.2917555232657447e-01 0.0000000000000000e+00  3.0610586236470544e-01 3.4049003265347777e-01 0.0000000000000000e+00  3.0541889845898884e-01 3.4569355631471310e-01 0.0000000000000000e+00  3.0590585670398762e-01 3.5725393859141041e-01 0.0000000000000000e+00  3.0527140058529384e-01 3.6221628033553843e-01 0.0000000000000000e+00  3.0569817328382903e-01 3.7402493481867577e-01 0.0000000000000000e+00  3.0511721355388688e-01 3.7874543974485059e-01 0.0000000000000000e+00  3.0547726765710553e-01 3.9083491100711776e-01 0.0000000000000000e+00  3.0495360576213959e-01 3.9529674049223917e-01 0.0000000000000000e+00  3.0524807380982655e-01 4.0765641476533565e-01 0.0000000000000000e+00  3.0478619841045257e-01 4.1183857495047654e-01 0.0000000000000000e+00  3.0500727899765756e-01 4.2450872092483549e-01 0.0000000000000000e+00  3.0460664540713844e-01 4.2841854598656776e-01 0.0000000000000000e+00  3.0475469896266161e-01 4.4139330693568934e-01 0.0000000000000000e+00  3.0442458837113506e-01 4.4498213199006259e-01 0.0000000000000000e+00  3.0449448825450021e-01 4.5828710046612614e-01 0.0000000000000000e+00  3.0423022120432658e-01 4.6158526781376158e-01 0.0000000000000000e+00  3.0421752877909197e-01 4.7524218743782043e-01 0.0000000000000000e+00  3.0403137536114438e-01 4.7818362052845748e-01 0.0000000000000000e+00  3.0393722338435647e-01 4.9218302813476195e-01 0.0000000000000000e+00  3.0382340805229835e-01 4.9480383584152088e-01 0.0000000000000000e+00  3.0363597100429046e-01 5.0920981599082460e-01 0.0000000000000000e+00  3.0360579836869162e-01 5.1144898995952826e-01 0.0000000000000000e+00  3.0333396725614103e-01 5.2620836852728681e-01 0.0000000000000000e+00  3.0338480150428687e-01 5.2808373169035716e-01 0.0000000000000000e+00  3.0300907679500022e-01 5.4330467568615937e-01 0.0000000000000000e+00  3.0314704201202003e-01 5.4478433398596970e-01 0.0000000000000000e+00  3.0268353230616518e-01 5.6037283671273885e-01 0.0000000000000000e+00  3.0291279908766205e-01 5.6143548057008519e-01 0.0000000000000000e+00  3.0233553852734663e-01 5.7753704590745492e-01 0.0000000000000000e+00  3.0265393918006234e-01 5.7819758889133221e-01 0.0000000000000000e+00  3.0198503790297432e-01 5.9468429895880004e-01 0.0000000000000000e+00  3.0240573245291169e-01 5.9486970200476963e-01 0.0000000000000000e+00  3.0161382510148821e-01 6.1191839689533767e-01 0.0000000000000000e+00  3.0212483669155210e-01 6.1169938903684506e-01 0.0000000000000000e+00  3.0123780142179091e-01 6.2914911780247951e-01 0.0000000000000000e+00  3.0186184129167482e-01 6.2839774974576434e-01 0.0000000000000000e+00  3.0084223473107136e-01 6.4646098986062139e-01 0.0000000000000000e+00  3.0155758536124228e-01 6.4530278280027853e-01 0.0000000000000000e+00  3.0044139702338768e-01 6.6377278422527997e-01 0.0000000000000000e+00  3.0127889013112324e-01 6.6203312505060563e-01 0.0000000000000000e+00  3.0001879796515724e-01 6.8117817034709660e-01 0.0000000000000000e+00  3.0094988637646464e-01 6.7902327286724229e-01 0.0000000000000000e+00  2.9959536963495437e-01 6.9855876764438085e-01 0.0000000000000000e+00  3.0065367712089397e-01 6.9579582095107440e-01 0.0000000000000000e+00  2.9914143957524336e-01 7.1608596639689515e-01 0.0000000000000000e+00  3.0029904038758515e-01 7.1287340926178655e-01 0.0000000000000000e+00  2.9869953478601191e-01 7.3351471922795020e-01 0.0000000000000000e+00  2.9998094282240145e-01 7.2971648713365556e-01 0.0000000000000000e+00  2.9820761457019113e-01 7.5119566599865273e-01 0.0000000000000000e+00  2.9960407426290186e-01 7.4687113745627842e-01 0.0000000000000000e+00  2.9775091485151861e-01 7.6864998204976964e-01 0.0000000000000000e+00  2.9925299254753018e-01 7.6383999370590372e-01 0.0000000000000000e+00  2.9721867578522049e-01 7.8651991244473762e-01 0.0000000000000000e+00  2.9885998082807425e-01 7.8101581312759327e-01 0.0000000000000000e+00  2.9674585998150321e-01 8.0401322538181885e-01 0.0000000000000000e+00  2.9846205360199723e-01 7.9821734001224021e-01 0.0000000000000000e+00  2.9617385465473345e-01 8.2201628272085658e-01 0.0000000000000000e+00  2.9806719782737745e-01 8.1538743009909331e-01 0.0000000000000000e+00  2.9566891025547087e-01 8.3963064028301326e-01 0.0000000000000000e+00  2.9760361065564939e-01 8.3286310565765498e-01 0.0000000000000000e+00  2.9508879279641687e-01 8.5772608692812913e-01 0.0000000000000000e+00  2.9719142917591729e-01 8.4997425709534535e-01 0.0000000000000000e+00  2.9452911430976875e-01 8.7562926532483509e-01 0.0000000000000000e+00  2.9668216738294007e-01 8.6776946850334269e-01 0.0000000000000000e+00  2.9393194974711678e-01 8.9352515452324188e-01 0.0000000000000000e+00  2.9625901461755200e-01 8.8516186019199750e-01 0.0000000000000000e+00  2.9328944868718748e-01 9.1173975591015399e-01 0.0000000000000000e+00  2.9569908534724998e-01 9.0297697379664099e-01 0.0000000000000000e+00  2.9274952750884575e-01 9.2982787345068485e-01 0.0000000000000000e+00  2.9514237042038477e-01 9.2037611534170116e-01 0.0000000000000000e+00  2.9207111786057322e-01 9.4861203837082841e-01 0.0000000000000000e+00  2.9461312375708110e-01 9.3829828167140228e-01 0.0000000000000000e+00  2.9141328490740248e-01 9.6607456605117004e-01 0.0000000000000000e+00  2.9407811318574728e-01 9.5731679612820786e-01 0.0000000000000000e+00  2.9059467969705627e-01 9.8423722542605774e-01 0.0000000000000000e+00  2.9358420240160504e-01 9.7478997145612156e-01 0.0000000000000000e+00  2.9000430198035104e-01 1.0037211954120948e+00 0.0000000000000000e+00  2.9255792645080897e-01 9.9233241278654016e-01 0.0000000000000000e+00  2.8971986905960989e-01 1.0229193772870122e+00 0.0000000000000000e+00  2.9177568034953932e-01 1.0101414173246839e+00 0.0000000000000000e+00  2.8856688200244751e-01 1.0416823595658646e+00 0.0000000000000000e+00  2.9182899047061556e-01 1.0306353393291274e+00 0.0000000000000000e+00  2.8711706994636971e-01 1.0562323325646246e+00 0.0000000000000000e+00  2.9128442084154865e-01 1.0542942828201995e+00 0.0000000000000000e+00  2.8678406067329726e-01 1.0736393959151482e+00 0.0000000000000000e+00  2.8948705665085767e-01 1.0681093655621678e+00 0.0000000000000000e+00  2.8724155467421486e-01 1.1044590446566489e+00 0.0000000000000000e+00  2.8752959843112608e-01 1.0743101218967506e+00 0.0000000000000000e+00  2.8679485194404419e-01 1.1295873222764512e+00 0.0000000000000000e+00  2.8754020794380625e-01 1.1021170410690542e+00 0.0000000000000000e+00  2.8342812356091629e-01 1.1256413972668786e+00 0.0000000000000000e+00  2.9018880082018328e-01 1.1523816991116287e+00 0.0000000000000000e+00  2.7928404137979995e-01 1.1219802861062305e+00 0.0000000000000000e+00  2.8983465340754011e-01 1.1715350771990563e+00 0.0000000000000000e+00  2.8195205153615960e-01 1.1763221686576835e+00 0.0000000000000000e+00  2.8057406701797566e-01 1.1284783738454205e+00 0.0000000000000000e+00  2.9086280081129723e-01 1.2652805545886294e+00 0.0000000000000000e+00  2.7241959599230364e-01 1.1055859301242983e+00 0.0000000000000000e+00  2.8783208171022534e-01 1.2648922647664824e+00 0.0000000000000000e+00  2.8443281560929862e-01 1.2288464013668343e+00 0.0000000000000000e+00  2.6319143099899928e-01 1.1172331356321858e+00 0.0000000000000000e+00  3.0637755418099993e-01 1.4138928070590109e+00 0.0000000000000000e+00  2.5015399482510237e-01 1.0347786703670583e+00 0.0000000000000000e+00  2.8863300395643243e-01 1.3766054216372521e+00 0.0000000000000000e+00  2.9270862785676649e-01 1.3103200401541784e+00 0.0000000000000000e+00  2.1516028107860180e-01 9.8463150465926474e-01 0.0000000000000000e+00  3.5331181732366823e-01 1.6169089285478333e+00 0.0000000000000000e+00  9.2275641243010104e-02 3.2145346551852816e-01 0.0000000000000000e+00  4.6549238727871062e-02 -1.6483689912455148e+00 0.0000000000000000e+00  4.3730705282015808e-02 -1.0194315137972576e+00 0.0000000000000000e+00  5.0791231169410464e-02 -1.2229202506825327e+00 0.0000000000000000e+00  4.2099658562056504e-02 -1.1676440180553718e+00 0.0000000000000000e+00  4.9638859450982127e-02 -1.1963480576205712e+00 0.0000000000000000e+00  4.0701682116492222e-02 -1.1779910419259298e+00 0.0000000000000000e+00  4.8741579271176588e-02 -1.2040800956307061e+00 0.0000000000000000e+00  3.9441249683751595e-02 -1.1813864534975538e+00 0.0000000000000000e+00  4.7753621436001072e-02 -1.2095479008486854e+00 0.0000000000000000e+00  3.8427743851457280e-02 -1.1858257090635946e+00 0.0000000000000000e+00  4.6782037216713993e-02 -1.2122426590387181e+00 0.0000000000000000e+00  3.7583366377202825e-02 -1.1893895486101704e+00 0.0000000000000000e+00  4.5911943120195260e-02 -1.2129954981945144e+00 0.0000000000000000e+00  3.6876613562227704e-02 -1.1912354126680864e+00 0.0000000000000000e+00  4.5161520512398891e-02 -1.2120162821285509e+00 0.0000000000000000e+00  3.6294499803101690e-02 -1.1912971290521031e+00 0.0000000000000000e+00  4.4522721393265713e-02 -1.2094282793126030e+00 0.0000000000000000e+00  3.5822238339863456e-02 -1.1897599902103086e+00 0.0000000000000000e+00  4.3980119463083577e-02 -1.2054153764386950e+00 0.0000000000000000e+00  3.5442535660287530e-02 -1.1868737802126026e+00 0.0000000000000000e+00  4.3517335312975178e-02 -1.2001917988966386e+00 0.0000000000000000e+00  3.5138542680749105e-02 -1.1828864334334006e+00 0.0000000000000000e+00  4.3119496493323452e-02 -1.1939623570451352e+00 0.0000000000000000e+00  3.4895586200579573e-02 -1.1780171039479341e+00 0.0000000000000000e+00  4.2774106749403670e-02 -1.1869037246137304e+00 0.0000000000000000e+00  3.4701622558073318e-02 -1.1724478575562005e+00 0.0000000000000000e+00  4.2471107616875808e-02 -1.1791605346429936e+00 0.0000000000000000e+00  3.4547050769700598e-02 -1.1663249345081146e+00 0.0000000000000000e+00  4.2202580513802393e-02 -1.1708482077352995e+00 0.0000000000000000e+00  3.4424308574450925e-02 -1.1597639146655960e+00 0.0000000000000000e+00  4.1962349596467205e-02 -1.1620578804398207e+00 0.0000000000000000e+00  3.4327450584096669e-02 -1.1528556750232752e+00 0.0000000000000000e+00  4.1745606484638147e-02 -1.1528613589015415e+00 0.0000000000000000e+00  3.4251782804162537e-02 -1.1456717894348192e+00 0.0000000000000000e+00  4.1548597546982972e-02 -1.1433153611431004e+00 0.0000000000000000e+00  3.4193570480626205e-02 -1.1382689609157108e+00 0.0000000000000000e+00  4.1368377564868733e-02 -1.1334649106422401e+00 0.0000000000000000e+00  3.4149813798497582e-02 -1.1306924862439354e+00 0.0000000000000000e+00  4.1202620328022244e-02 -1.1233459713438698e+00 0.0000000000000000e+00  3.4118079372617308e-02 -1.1229788932294238e+00 0.0000000000000000e+00  4.1049473955605133e-02 -1.1129874751321736e+00 0.0000000000000000e+00  3.4096375265394531e-02 -1.1151579157921794e+00 0.0000000000000000e+00  4.0907449912581759e-02 -1.1024128875529451e+00 0.0000000000000000e+00  3.4083059126503078e-02 -1.1072539550000078e+00 0.0000000000000000e+00  4.0775336893939904e-02 -1.0916414320876842e+00 0.0000000000000000e+00  3.4076771249706782e-02 -1.0992871465699641e+00 0.0000000000000000e+00  4.0652132997881368e-02 -1.0806890639905511e+00 0.0000000000000000e+00  3.4076386223885258e-02 -1.0912741297603901e+00 0.0000000000000000e+00  4.0536991387433136e-02 -1.0695692606850991e+00 0.0000000000000000e+00  3.4080978345577724e-02 -1.0832285915215709e+00 0.0000000000000000e+00  4.0429176227793878e-02 -1.0582936732722223e+00 0.0000000000000000e+00  3.4089797027961215e-02 -1.0751616444889434e+00 0.0000000000000000e+00  4.0328026473726269e-02 -1.0468726729485773e+00 0.0000000000000000e+00  3.4102249367842438e-02 -1.0670820836406567e+00 0.0000000000000000e+00  4.0232926406866730e-02 -1.0353158062693524e+00 0.0000000000000000e+00  3.4117887219515503e-02 -1.0589965643932362e+00 0.0000000000000000e+00  4.0143281569906389e-02 -1.0236321779452937e+00 0.0000000000000000e+00  3.4136397460370040e-02 -1.0509097233577425e+00 0.0000000000000000e+00  4.0058500402461006e-02 -1.0118307541980784e+00 0.0000000000000000e+00  3.4157592310649583e-02 -1.0428242938721350e+00 0.0000000000000000e+00  3.9977980812294235e-02 -9.9992059726745453e-01 0.0000000000000000e+00  3.4181401237991765e-02 -1.0347411909287891e+00 0.0000000000000000e+00  3.9901101325107872e-02 -9.8791103547846348e-01 0.0000000000000000e+00  3.4207858634638974e-02 -1.0266596630514324e+00 0.0000000000000000e+00  3.9827219849440119e-02 -9.7581172000536254e-01 0.0000000000000000e+00  3.4237092764953930e-02 -1.0185774196853767e+00 0.0000000000000000e+00  3.9755671552685022e-02 -9.6363270209601937e-01 0.0000000000000000e+00  3.4269309801112924e-02 -1.0104908382303188e+00 0.0000000000000000e+00  3.9685782664303150e-02 -9.5138426329968551e-01 0.0000000000000000e+00  3.4304772185539657e-02 -1.0023952636997580e+00 0.0000000000000000e+00  3.9616872473158260e-02 -9.3907693800668557e-01 0.0000000000000000e+00  3.4343789629636572e-02 -9.9428509613870020e-01 0.0000000000000000e+00  3.9548274325366145e-02 -9.2672123812871865e-01 0.0000000000000000e+00  3.4386673880462466e-02 -9.8615448446811138e-01 0.0000000000000000e+00  3.9479359291837886e-02 -9.1432733996700388e-01 0.0000000000000000e+00  3.4433747015925414e-02 -9.7799712436836850e-01 0.0000000000000000e+00  3.9409519401234147e-02 -9.0190541411440095e-01 0.0000000000000000e+00  3.4485295662407330e-02 -9.6980696470026884e-01 0.0000000000000000e+00  3.9338259932668047e-02 -8.8946422408143822e-01 0.0000000000000000e+00  3.4541524252750547e-02 -9.6157892786288035e-01 0.0000000000000000e+00  3.9265123620090825e-02 -8.7701239592690539e-01 0.0000000000000000e+00  3.4602653657476432e-02 -9.5330720022563409e-01 0.0000000000000000e+00  3.9189739288743662e-02 -8.6455770329798876e-01 0.0000000000000000e+00  3.4668694336871343e-02 -9.4498897908098933e-01 0.0000000000000000e+00  3.9111981947022784e-02 -8.5210458385921284e-01 0.0000000000000000e+00  3.4739618502193530e-02 -9.3662152851389291e-01 0.0000000000000000e+00  3.9031569639264352e-02 -8.3966060636629047e-01 0.0000000000000000e+00  3.4815472037805162e-02 -9.2820027092463286e-01 0.0000000000000000e+00  3.8948555300205141e-02 -8.2722868144987394e-01 0.0000000000000000e+00  3.4895697546445920e-02 -9.1973007373215410e-01 0.0000000000000000e+00  3.8863333185550422e-02 -8.1480701101314001e-01 0.0000000000000000e+00  3.4980137749261328e-02 -9.1120839176520352e-01 0.0000000000000000e+00  3.8775474753680227e-02 -8.0240766319616541e-01 0.0000000000000000e+00  3.5068814318562888e-02 -9.0262900639722010e-01 0.0000000000000000e+00  3.8685689370733661e-02 -7.9002533201394720e-01 0.0000000000000000e+00  3.5160021094426695e-02 -8.9401386067732203e-01 0.0000000000000000e+00  3.8595331327877687e-02 -7.7764523732694579e-01 0.0000000000000000e+00  3.5253724236140420e-02 -8.8535610095895378e-01 0.0000000000000000e+00  3.8502672684362915e-02 -7.6530258812281970e-01 0.0000000000000000e+00  3.5351170473006857e-02 -8.7662683064475688e-01 0.0000000000000000e+00  3.8408724609555613e-02 -7.5298954601948087e-01 0.0000000000000000e+00  3.5447999254816065e-02 -8.6789004108664913e-01 0.0000000000000000e+00  3.8318720139283648e-02 -7.4063150912656572e-01 0.0000000000000000e+00  3.5542187319911073e-02 -8.5916957111474890e-01 0.0000000000000000e+00  3.8228424900479618e-02 -7.2830606962788480e-01 0.0000000000000000e+00  3.5641423999446607e-02 -8.5032678216259794e-01 0.0000000000000000e+00  3.8131627507030599e-02 -7.1612316674506871e-01 0.0000000000000000e+00  3.5741942192810218e-02 -8.4141406241313377e-01 0.0000000000000000e+00  3.8043421521990861e-02 -7.0385200859477581e-01 0.0000000000000000e+00  3.5823916796356874e-02 -8.3274977008556839e-01 0.0000000000000000e+00  3.7977250046257911e-02 -6.9128871661979507e-01 0.0000000000000000e+00  3.5892459472845480e-02 -8.2423524115135338e-01 0.0000000000000000e+00  3.7905136043268201e-02 -6.7889455717549130e-01 0.0000000000000000e+00  3.5983436401113428e-02 -8.1526132162806197e-01 0.0000000000000000e+00  3.7796098528838508e-02 -6.6717994339131015e-01 0.0000000000000000e+00  3.6093039457587198e-02 -8.0588132322850814e-01 0.0000000000000000e+00  3.7696655591740874e-02 -6.5541024009551763e-01 0.0000000000000000e+00  3.6135830539617581e-02 -7.9750190952268041e-01 0.0000000000000000e+00  3.7721096896348477e-02 -6.4175913788572969e-01 0.0000000000000000e+00  3.6015007317391427e-02 -7.9171326787760021e-01 0.0000000000000000e+00  3.7941159948523207e-02 -6.2508667774554205e-01 0.0000000000000000e+00  3.5729238364860333e-02 -7.8852598318520550e-01 0.0000000000000000e+00  3.8305480642640596e-02 -6.0623723699882981e-01 0.0000000000000000e+00  3.5387324430223306e-02 -7.8612083573110758e-01 0.0000000000000000e+00  3.8677897493854238e-02 -5.8741312921033562e-01 0.0000000000000000e+00  3.5119626419994304e-02 -7.8230379740616174e-01 0.0000000000000000e+00  3.8940816505629285e-02 -5.7051089231458885e-01 0.0000000000000000e+00  3.4992190724352189e-02 -7.7594824848899113e-01 0.0000000000000000e+00  3.9055351486056225e-02 -5.5616459974558030e-01 0.0000000000000000e+00  3.4997167056955304e-02 -7.6717561400057610e-01 0.0000000000000000e+00  3.9046431735209247e-02 -5.4398799874845694e-01 0.0000000000000000e+00  3.5092463220045958e-02 -7.5669138289396898e-01 0.0000000000000000e+00  3.8959551618458377e-02 -5.3326514384085033e-01 0.0000000000000000e+00  3.5236907101134