<?xml version="1.0"?>
<VTKFile type="UnstructuredGrid"  version="0.1"  >
<UnstructuredGrid>
<Piece  NumberOfPoints="801" NumberOfCells="800">
<Points>
<DataArray  type="Float64"  NumberOfComponents="3"  format="ascii">-5 0 0  -4.9875 0 0  -4.975 0 0  -4.9625 0 0  -4.95 0 0  -4.9375 0 0  -4.925 0 0  -4.9125 0 0  -4.9 0 0  -4.8875 0 0  -4.875 0 0  -4.8625 0 0  -4.85 0 0  -4.8375 0 0  -4.825 0 0  -4.8125 0 0  -4.8 0 0  -4.7875 0 0  -4.775 0 0  -4.7625 0 0  -4.75 0 0  -4.7375 0 0  -4.725 0 0  -4.7125 0 0  -4.7 0 0  -4.6875 0 0  -4.675 0 0  -4.6625 0 0  -4.65 0 0  -4.6375 0 0  -4.625 0 0  -4.6125 0 0  -4.6 0 0  -4.5875 0 0  -4.575 0 0  -4.5625 0 0  -4.55 0 0  -4.5375 0 0  -4.525 0 0  -4.5125 0 0  -4.5 0 0  -4.4875 0 0  -4.475 0 0  -4.4625 0 0  -4.45 0 0  -4.4375 0 0  -4.425 0 0  -4.4125 0 0  -4.4 0 0  -4.3875 0 0  -4.375 0 0  -4.3625 0 0  -4.35 0 0  -4.3375 0 0  -4.325 0 0  -4.3125 0 0  -4.3 0 0  -4.2875 0 0  -4.275 0 0  -4.2625 0 0  -4.25 0 0  -4.2375 0 0  -4.225 0 0  -4.2125 0 0  -4.2 0 0  -4.1875 0 0  -4.175 0 0  -4.1625 0 0  -4.15 0 0  -4.1375 0 0  -4.125 0 0  -4.1125 0 0  -4.1 0 0  -4.0875 0 0  -4.075 0 0  -4.0625 0 0  -4.05 0 0  -4.0375 0 0  -4.025 0 0  -4.0125 0 0  -4 0 0  -3.9875 0 0  -3.975 0 0  -3.9625 0 0  -3.95 0 0  -3.9375 0 0  -3.925 0 0  -3.9125 0 0  -3.9 0 0  -3.8875 0 0  -3.875 0 0  -3.8625 0 0  -3.85 0 0  -3.8375 0 0  -3.825 0 0  -3.8125 0 0  -3.8 0 0  -3.7875 0 0  -3.775 0 0  -3.7625 0 0  -3.75 0 0  -3.7375 0 0  -3.725 0 0  -3.7125 0 0  -3.7 0 0  -3.6875 0 0  -3.675 0 0  -3.6625 0 0  -3.65 0 0  -3.6375 0 0  -3.625 0 0  -3.6125 0 0  -3.6 0 0  -3.5875 0 0  -3.575 0 0  -3.5625 0 0  -3.55 0 0  -3.5375 0 0  -3.525 0 0  -3.5125 0 0  -3.5 0 0  -3.4875 0 0  -3.475 0 0  -3.4625 0 0  -3.45 0 0  -3.4375 0 0  -3.425 0 0  -3.4125 0 0  -3.4 0 0  -3.3875 0 0  -3.375 0 0  -3.3625 0 0  -3.35 0 0  -3.3375 0 0  -3.325 0 0  -3.3125 0 0  -3.3 0 0  -3.2875 0 0  -3.275 0 0  -3.2625 0 0  -3.25 0 0  -3.2375 0 0  -3.225 0 0  -3.2125 0 0  -3.2 0 0  -3.1875 0 0  -3.175 0 0  -3.1625 0 0  -3.15 0 0  -3.1375 0 0  -3.125 0 0  -3.1125 0 0  -3.1 0 0  -3.0875 0 0  -3.075 0 0  -3.0625 0 0  -3.05 0 0  -3.0375 0 0  -3.025 0 0  -3.0125 0 0  -3 0 0  -2.9875 0 0  -2.975 0 0  -2.9625 0 0  -2.95 0 0  -2.9375 0 0  -2.925 0 0  -2.9125 0 0  -2.9 0 0  -2.8875 0 0  -2.875 0 0  -2.8625 0 0  -2.85 0 0  -2.8375 0 0  -2.825 0 0  -2.8125 0 0  -2.8 0 0  -2.7875 0 0  -2.775 0 0  -2.7625 0 0  -2.75 0 0  -2.7375 0 0  -2.725 0 0  -2.7125 0 0  -2.7 0 0  -2.6875 0 0  -2.675 0 0  -2.6625 0 0  -2.65 0 0  -2.6375 0 0  -2.625 0 0  -2.6125 0 0  -2.6 0 0  -2.5875 0 0  -2.575 0 0  -2.5625 0 0  -2.55 0 0  -2.5375 0 0  -2.525 0 0  -2.5125 0 0  -2.5 0 0  -2.4875 0 0  -2.475 0 0  -2.4625 0 0  -2.45 0 0  -2.4375 0 0  -2.425 0 0  -2.4125 0 0  -2.4 0 0  -2.3875 0 0  -2.375 0 0  -2.3625 0 0  -2.35 0 0  -2.3375 0 0  -2.325 0 0  -2.3125 0 0  -2.3 0 0  -2.2875 0 0  -2.275 0 0  -2.2625 0 0  -2.25 0 0  -2.2375 0 0  -2.225 0 0  -2.2125 0 0  -2.2 0 0  -2.1875 0 0  -2.175 0 0  -2.1625 0 0  -2.15 0 0  -2.1375 0 0  -2.125 0 0  -2.1125 0 0  -2.1 0 0  -2.0875 0 0  -2.075 0 0  -2.0625 0 0  -2.05 0 0  -2.0375 0 0  -2.025 0 0  -2.0125 0 0  -2 0 0  -1.9875 0 0  -1.975 0 0  -1.9625 0 0  -1.95 0 0  -1.9375 0 0  -1.925 0 0  -1.9125 0 0  -1.9 0 0  -1.8875 0 0  -1.875 0 0  -1.8625 0 0  -1.85 0 0  -1.8375 0 0  -1.825 0 0  -1.8125 0 0  -1.8 0 0  -1.7875 0 0  -1.775 0 0  -1.7625 0 0  -1.75 0 0  -1.7375 0 0  -1.725 0 0  -1.7125 0 0  -1.7 0 0  -1.6875 0 0  -1.675 0 0  -1.6625 0 0  -1.65 0 0  -1.6375 0 0  -1.625 0 0  -1.6125 0 0  -1.6 0 0  -1.5875 0 0  -1.575 0 0  -1.5625 0 0  -1.55 0 0  -1.5375 0 0  -1.525 0 0  -1.5125 0 0  -1.5 0 0  -1.4875 0 0  -1.475 0 0  -1.4625 0 0  -1.45 0 0  -1.4375 0 0  -1.425 0 0  -1.4125 0 0  -1.4 0 0  -1.3875 0 0  -1.375 0 0  -1.3625 0 0  -1.35 0 0  -1.3375 0 0  -1.325 0 0  -1.3125 0 0  -1.3 0 0  -1.2875 0 0  -1.275 0 0  -1.2625 0 0  -1.25 0 0  -1.2375 0 0  -1.225 0 0  -1.2125 0 0  -1.2 0 0  -1.1875 0 0  -1.175 0 0  -1.1625 0 0  -1.15 0 0  -1.1375 0 0  -1.125 0 0  -1.1125 0 0  -1.1 0 0  -1.0875 0 0  -1.075 0 0  -1.0625 0 0  -1.05 0 0  -1.0375 0 0  -1.025 0 0  -1.0125 0 0  -1 0 0  -0.9874999999999998 0 0  -0.9749999999999996 0 0  -0.9625000000000004 0 0  -0.9500000000000002 0 0  -0.9375 0 0  -0.9249999999999998 0 0  -0.9124999999999996 0 0  -0.9000000000000004 0 0  -0.8875000000000002 0 0  -0.875 0 0  -0.8624999999999998 0 0  -0.8499999999999996 0 0  -0.8375000000000004 0 0  -0.8250000000000002 0 0  -0.8125 0 0  -0.7999999999999998 0 0  -0.7874999999999996 0 0  -0.7750000000000004 0 0  -0.7625000000000002 0 0  -0.75 0 0  -0.7374999999999998 0 0  -0.7249999999999996 0 0  -0.7125000000000004 0 0  -0.7000000000000002 0 0  -0.6875 0 0  -0.6749999999999998 0 0  -0.6624999999999996 0 0  -0.6500000000000004 0 0  -0.6375000000000002 0 0  -0.625 0 0  -0.6124999999999998 0 0  -0.5999999999999996 0 0  -0.5875000000000004 0 0  -0.5750000000000002 0 0  -0.5625 0 0  -0.5499999999999998 0 0  -0.5374999999999996 0 0  -0.5250000000000004 0 0  -0.5125000000000002 0 0  -0.5 0 0  -0.4874999999999998 0 0  -0.4749999999999996 0 0  -0.4625000000000004 0 0  -0.4500000000000002 0 0  -0.4375 0 0  -0.4249999999999998 0 0  -0.4124999999999996 0 0  -0.4000000000000004 0 0  -0.3875000000000002 0 0  -0.375 0 0  -0.3624999999999998 0 0  -0.3499999999999996 0 0  -0.3375000000000004 0 0  -0.3250000000000002 0 0  -0.3125 0 0  -0.2999999999999998 0 0  -0.2874999999999996 0 0  -0.2750000000000004 0 0  -0.2625000000000002 0 0  -0.25 0 0  -0.2374999999999998 0 0  -0.2249999999999996 0 0  -0.2125000000000004 0 0  -0.2000000000000002 0 0  -0.1875 0 0  -0.1749999999999998 0 0  -0.1624999999999996 0 0  -0.1500000000000004 0 0  -0.1375000000000002 0 0  -0.125 0 0  -0.1124999999999998 0 0  -0.09999999999999964 0 0  -0.08750000000000036 0 0  -0.07500000000000018 0 0  -0.0625 0 0  -0.04999999999999982 0 0  -0.03749999999999964 0 0  -0.02500000000000036 0 0  -0.01250000000000018 0 0  0 0 0  0.01250000000000018 0 0  0.02500000000000036 0 0  0.03749999999999964 0 0  0.04999999999999982 0 0  0.0625 0 0  0.07500000000000018 0 0  0.08750000000000036 0 0  0.09999999999999964 0 0  0.1124999999999998 0 0  0.125 0 0  0.1375000000000002 0 0  0.1500000000000004 0 0  0.1624999999999996 0 0  0.1749999999999998 0 0  0.1875 0 0  0.2000000000000002 0 0  0.2125000000000004 0 0  0.2249999999999996 0 0  0.2374999999999998 0 0  0.25 0 0  0.2625000000000002 0 0  0.2750000000000004 0 0  0.2874999999999996 0 0  0.2999999999999998 0 0  0.3125 0 0  0.3250000000000002 0 0  0.3375000000000004 0 0  0.3499999999999996 0 0  0.3624999999999998 0 0  0.375 0 0  0.3875000000000002 0 0  0.4000000000000004 0 0  0.4124999999999996 0 0  0.4249999999999998 0 0  0.4375 0 0  0.4500000000000002 0 0  0.4625000000000004 0 0  0.4749999999999996 0 0  0.4874999999999998 0 0  0.5 0 0  0.5125000000000002 0 0  0.5250000000000004 0 0  0.5374999999999996 0 0  0.5499999999999998 0 0  0.5625 0 0  0.5750000000000002 0 0  0.5875000000000004 0 0  0.5999999999999996 0 0  0.6124999999999998 0 0  0.625 0 0  0.6375000000000002 0 0  0.6500000000000004 0 0  0.6624999999999996 0 0  0.6749999999999998 0 0  0.6875 0 0  0.7000000000000002 0 0  0.7125000000000004 0 0  0.7249999999999996 0 0  0.7374999999999998 0 0  0.75 0 0  0.7625000000000002 0 0  0.7750000000000004 0 0  0.7874999999999996 0 0  0.7999999999999998 0 0  0.8125 0 0  0.8250000000000002 0 0  0.8375000000000004 0 0  0.8499999999999996 0 0  0.8624999999999998 0 0  0.875 0 0  0.8875000000000002 0 0  0.9000000000000004 0 0  0.9124999999999996 0 0  0.9249999999999998 0 0  0.9375 0 0  0.9500000000000002 0 0  0.9625000000000004 0 0  0.9749999999999996 0 0  0.9874999999999998 0 0  1 0 0  1.0125 0 0  1.025 0 0  1.0375 0 0  1.05 0 0  1.0625 0 0  1.075 0 0  1.0875 0 0  1.1 0 0  1.1125 0 0  1.125 0 0  1.1375 0 0  1.15 0 0  1.1625 0 0  1.175 0 0  1.1875 0 0  1.2 0 0  1.2125 0 0  1.225 0 0  1.2375 0 0  1.25 0 0  1.2625 0 0  1.275 0 0  1.2875 0 0  1.3 0 0  1.3125 0 0  1.325 0 0  1.3375 0 0  1.35 0 0  1.3625 0 0  1.375 0 0  1.3875 0 0  1.4 0 0  1.4125 0 0  1.425 0 0  1.4375 0 0  1.45 0 0  1.4625 0 0  1.475 0 0  1.4875 0 0  1.5 0 0  1.5125 0 0  1.525 0 0  1.5375 0 0  1.55 0 0  1.5625 0 0  1.575 0 0  1.5875 0 0  1.6 0 0  1.6125 0 0  1.625 0 0  1.6375 0 0  1.65 0 0  1.6625 0 0  1.675 0 0  1.6875 0 0  1.7 0 0  1.7125 0 0  1.725 0 0  1.7375 0 0  1.75 0 0  1.7625 0 0  1.775 0 0  1.7875 0 0  1.8 0 0  1.8125 0 0  1.825 0 0  1.8375 0 0  1.85 0 0  1.8625 0 0  1.875 0 0  1.8875 0 0  1.9 0 0  1.9125 0 0  1.925 0 0  1.9375 0 0  1.95 0 0  1.9625 0 0  1.975 0 0  1.9875 0 0  2 0 0  2.0125 0 0  2.025 0 0  2.0375 0 0  2.05 0 0  2.0625 0 0  2.075 0 0  2.0875 0 0  2.1 0 0  2.1125 0 0  2.125 0 0  2.1375 0 0  2.15 0 0  2.1625 0 0  2.175 0 0  2.1875 0 0  2.2 0 0  2.2125 0 0  2.225 0 0  2.2375 0 0  2.25 0 0  2.2625 0 0  2.275 0 0  2.2875 0 0  2.3 0 0  2.3125 0 0  2.325 0 0  2.3375 0 0  2.35 0 0  2.3625 0 0  2.375 0 0  2.3875 0 0  2.4 0 0  2.4125 0 0  2.425 0 0  2.4375 0 0  2.45 0 0  2.4625 0 0  2.475 0 0  2.4875 0 0  2.5 0 0  2.5125 0 0  2.525 0 0  2.5375 0 0  2.55 0 0  2.5625 0 0  2.575 0 0  2.5875 0 0  2.6 0 0  2.6125 0 0  2.625 0 0  2.6375 0 0  2.65 0 0  2.6625 0 0  2.675 0 0  2.6875 0 0  2.7 0 0  2.7125 0 0  2.725 0 0  2.7375 0 0  2.75 0 0  2.7625 0 0  2.775 0 0  2.7875 0 0  2.8 0 0  2.8125 0 0  2.825 0 0  2.8375 0 0  2.85 0 0  2.8625 0 0  2.875 0 0  2.8875 0 0  2.9 0 0  2.9125 0 0  2.925 0 0  2.9375 0 0  2.95 0 0  2.9625 0 0  2.975 0 0  2.9875 0 0  3 0 0  3.012499999999999 0 0  3.025 0 0  3.0375 0 0  3.050000000000001 0 0  3.0625 0 0  3.074999999999999 0 0  3.0875 0 0  3.1 0 0  3.112500000000001 0 0  3.125 0 0  3.137499999999999 0 0  3.15 0 0  3.1625 0 0  3.175000000000001 0 0  3.1875 0 0  3.199999999999999 0 0  3.2125 0 0  3.225 0 0  3.237500000000001 0 0  3.25 0 0  3.262499999999999 0 0  3.275 0 0  3.2875 0 0  3.300000000000001 0 0  3.3125 0 0  3.324999999999999 0 0  3.3375 0 0  3.35 0 0  3.362500000000001 0 0  3.375 0 0  3.387499999999999 0 0  3.4 0 0  3.4125 0 0  3.425000000000001 0 0  3.4375 0 0  3.449999999999999 0 0  3.4625 0 0  3.475 0 0  3.4875
[...]
<PointData  Vectors="(h, u)"> 
<DataArray  type="Float64"  Name="(h, u)"  NumberOfComponents="3" format="ascii">5.5000000000000021e-02 0.0000000000000000e+00 0.0000000000000000e+00  5.5000000000000007e-02 -6.1677064521916084e-17 0.0000000000000000e+00  5.5000000000000021e-02 -2.5846890265772075e-16 0.0000000000000000e+00  5.5000000000000007e-02 -9.4115831723312907e-17 0.0000000000000000e+00  5.5000000000000021e-02 -3.4857185179930557e-16 0.0000000000000000e+00  5.5000000000000007e-02 1.4966753883117297e-16 0.0000000000000000e+00  5.5000000000000021e-02 -5.0573055610348510e-16 0.0000000000000000e+00  5.5000000000000021e-02 -1.4367477618671593e-16 0.0000000000000000e+00  5.5000000000000028e-02 -5.3663848815250754e-16 0.0000000000000000e+00  5.5000000000000007e-02 -3.1204412217464852e-17 0.0000000000000000e+00  5.5000000000000028e-02 -5.1860429491922893e-16 0.0000000000000000e+00  5.5000000000000021e-02 -3.7329709436661791e-17 0.0000000000000000e+00  5.5000000000000028e-02 -6.4743852524651055e-16 0.0000000000000000e+00  5.5000000000000021e-02 -1.4108033641796084e-16 0.0000000000000000e+00  5.5000000000000035e-02 -2.3812810158914484e-16 0.0000000000000000e+00  5.5000000000000028e-02 1.9477494620615842e-16 0.0000000000000000e+00  5.5000000000000035e-02 -1.7587284966926974e-16 0.0000000000000000e+00  5.5000000000000021e-02 2.2778876167180839e-16 0.0000000000000000e+00  5.5000000000000028e-02 -4.8453522833420646e-16 0.0000000000000000e+00  5.5000000000000021e-02 3.6476625318793379e-17 0.0000000000000000e+00  5.5000000000000028e-02 -4.2361650042958403e-16 0.0000000000000000e+00  5.5000000000000021e-02 9.1681816460238542e-17 0.0000000000000000e+00  5.5000000000000028e-02 -3.1236710616228090e-16 0.0000000000000000e+00  5.5000000000000021e-02 1.2608041964525097e-16 0.0000000000000000e+00  5.5000000000000028e-02 -2.5234123655905016e-16 0.0000000000000000e+00  5.5000000000000021e-02 1.1391224775428835e-16 0.0000000000000000e+00  5.5000000000000028e-02 -2.0167700075989852e-16 0.0000000000000000e+00  5.5000000000000021e-02 1.3051667806574366e-16 0.0000000000000000e+00  5.5000000000000028e-02 -7.8238926902230195e-17 0.0000000000000000e+00  5.5000000000000021e-02 1.9499444096401162e-16 0.0000000000000000e+00  5.5000000000000028e-02 5.2239401400748967e-17 0.0000000000000000e+00  5.5000000000000021e-02 1.8042547864516969e-16 0.0000000000000000e+00  5.5000000000000028e-02 5.8823641501694759e-17 0.0000000000000000e+00  5.5000000000000021e-02 3.1266469873979392e-17 0.0000000000000000e+00  5.5000000000000028e-02 -1.2611332749791997e-17 0.0000000000000000e+00  5.5000000000000021e-02 -1.1396569751244836e-16 0.0000000000000000e+00  5.5000000000000028e-02 -7.7228408554244514e-19 0.0000000000000000e+00  5.5000000000000021e-02 -1.3653525206777755e-16 0.0000000000000000e+00  5.5000000000000028e-02 1.1180563359999675e-16 0.0000000000000000e+00  5.5000000000000021e-02 -1.2911489686259849e-16 0.0000000000000000e+00  5.5000000000000028e-02 2.0541441089114152e-16 0.0000000000000000e+00  5.5000000000000021e-02 -1.7190029266344822e-16 0.0000000000000000e+00  5.5000000000000028e-02 3.0497866738913977e-16 0.0000000000000000e+00  5.5000000000000021e-02 -1.5887064957623392e-16 0.0000000000000000e+00  5.5000000000000028e-02 6.0033883415203273e-16 0.0000000000000000e+00  5.5000000000000014e-02 -6.8902385675720956e-17 0.0000000000000000e+00  5.5000000000000028e-02 3.7494612199581278e-16 0.0000000000000000e+00  5.5000000000000014e-02 8.5269404701982632e-18 0.0000000000000000e+00  5.5000000000000028e-02 6.6222710175545081e-17 0.0000000000000000e+00  5.5000000000000021e-02 5.8035097157590792e-17 0.0000000000000000e+00  5.5000000000000028e-02 1.7867537167760799e-16 0.0000000000000000e+00  5.5000000000000021e-02 4.6125026235967045e-17 0.0000000000000000e+00  5.5000000000000028e-02 8.6362162376224240e-17 0.0000000000000000e+00  5.5000000000000021e-02 -5.4234705229862080e-17 0.0000000000000000e+00  5.5000000000000028e-02 -7.0407781522018000e-17 0.0000000000000000e+00  5.5000000000000021e-02 -1.9544869312442974e-16 0.0000000000000000e+00  5.5000000000000028e-02 1.5308309697375232e-16 0.0000000000000000e+00  5.5000000000000014e-02 -1.3777943354874987e-16 0.0000000000000000e+00  5.5000000000000028e-02 -8.9862921029555753e-17 0.0000000000000000e+00  5.5000000000000014e-02 -4.9135217770141726e-17 0.0000000000000000e+00  5.5000000000000028e-02 -1.2522021261153049e-16 0.0000000000000000e+00  5.5000000000000014e-02 6.1822027497604616e-17 0.0000000000000000e+00  5.5000000000000028e-02 -2.0158786383958265e-16 0.0000000000000000e+00  5.5000000000000014e-02 3.2424986120272090e-17 0.0000000000000000e+00  5.5000000000000028e-02 -4.6888921518554625e-16 0.0000000000000000e+00  5.5000000000000021e-02 3.2230821083748521e-17 0.0000000000000000e+00  5.5000000000000028e-02 -8.8664461635801441e-17 0.0000000000000000e+00  5.5000000000000021e-02 1.2169803343785599e-16 0.0000000000000000e+00  5.5000000000000028e-02 1.1270998303596254e-16 0.0000000000000000e+00  5.5000000000000021e-02 6.0508774953135026e-17 0.0000000000000000e+00  5.5000000000000028e-02 1.1825293276468506e-16 0.0000000000000000e+00  5.5000000000000021e-02 -4.3914994706800704e-17 0.0000000000000000e+00  5.5000000000000028e-02 1.8707143789261254e-16 0.0000000000000000e+00  5.5000000000000021e-02 6.3585815538227473e-17 0.0000000000000000e+00  5.5000000000000028e-02 5.1822506286708207e-16 0.0000000000000000e+00  5.5000000000000014e-02 3.1514746836903290e-16 0.0000000000000000e+00  5.5000000000000021e-02 1.3102390979140671e-16 0.0000000000000000e+00  5.5000000000000014e-02 -2.6425147995802499e-16 0.0000000000000000e+00  5.5000000000000028e-02 -3.0059526258517159e-16 0.0000000000000000e+00  5.5000000000000021e-02 -1.1375662662184109e-16 0.0000000000000000e+00  5.5000000000000028e-02 -9.6250691539834902e-17 0.0000000000000000e+00  5.5000000000000021e-02 -8.5479825322045986e-17 0.0000000000000000e+00  5.5000000000000028e-02 6.8337155009087837e-17 0.0000000000000000e+00  5.5000000000000021e-02 -8.2388813388812933e-17 0.0000000000000000e+00  5.5000000000000028e-02 2.0966925188180905e-16 0.0000000000000000e+00  5.5000000000000021e-02 -8.2542298090822662e-17 0.0000000000000000e+00  5.5000000000000028e-02 3.3358303424025224e-16 0.0000000000000000e+00  5.5000000000000021e-02 -9.1783896566570570e-17 0.0000000000000000e+00  5.5000000000000028e-02 6.8957845602000843e-17 0.0000000000000000e+00  5.5000000000000014e-02 -1.0602747854782506e-17 0.0000000000000000e+00  5.5000000000000028e-02 -1.7400283746264670e-16 0.0000000000000000e+00  5.5000000000000021e-02 6.0173359555189031e-17 0.0000000000000000e+00  5.5000000000000028e-02 -4.3718117468641992e-16 0.0000000000000000e+00  5.5000000000000021e-02 1.7817757387334199e-16 0.0000000000000000e+00  5.5000000000000028e-02 -1.9484538011737796e-17 0.0000000000000000e+00  5.5000000000000014e-02 5.7920690763880566e-16 0.0000000000000000e+00  5.5000000000000021e-02 -1.3699619995677868e-16 0.0000000000000000e+00  5.5000000000000014e-02 5.4132089803988765e-16 0.0000000000000000e+00  5.5000000000000028e-02 -3.5304965349138536e-16 0.0000000000000000e+00  5.5000000000000028e-02 4.6057599565867441e-16 0.0000000000000000e+00  5.5000000000000028e-02 -2.6318496621994121e-16 0.0000000000000000e+00  5.5000000000000028e-02 2.4126317928445826e-16 0.0000000000000000e+00  5.5000000000000028e-02 -2.9467484679428541e-16 0.0000000000000000e+00  5.5000000000000028e-02 3.4069389079641963e-16 0.0000000000000000e+00  5.5000000000000014e-02 -1.2700992320889011e-16 0.0000000000000000e+00  5.5000000000000021e-02 -1.1743207688961141e-17 0.0000000000000000e+00  5.5000000000000014e-02 -3.1567170139212655e-16 0.0000000000000000e+00  5.5000000000000028e-02 -2.1421922801396497e-16 0.0000000000000000e+00  5.5000000000000021e-02 -1.3168579567768888e-16 0.0000000000000000e+00  5.5000000000000028e-02 7.4070233469133713e-17 0.0000000000000000e+00  5.5000000000000028e-02 -1.0964593099701406e-16 0.0000000000000000e+00  5.5000000000000028e-02 3.5080330962575477e-16 0.0000000000000000e+00  5.5000000000000021e-02 -1.9809910722463148e-16 0.0000000000000000e+00  5.5000000000000028e-02 -1.2062252199830479e-17 0.0000000000000000e+00  5.5000000000000021e-02 -1.6888698234841793e-16 0.0000000000000000e+00  5.5000000000000028e-02 -1.8275995886708066e-16 0.0000000000000000e+00  5.5000000000000021e-02 1.1298801163854681e-16 0.0000000000000000e+00  5.5000000000000021e-02 -2.1705619279873045e-16 0.0000000000000000e+00  5.5000000000000021e-02 -1.6889464179803823e-17 0.0000000000000000e+00  5.5000000000000021e-02 -8.2710847113892671e-17 0.0000000000000000e+00  5.5000000000000028e-02 -7.3745095561281842e-17 0.0000000000000000e+00  5.5000000000000021e-02 1.2331609477417088e-16 0.0000000000000000e+00  5.5000000000000028e-02 -2.1498639397110053e-16 0.0000000000000000e+00  5.5000000000000021e-02 1.0409094623735004e-16 0.0000000000000000e+00  5.5000000000000028e-02 -5.3970072210665269e-16 0.0000000000000000e+00  5.5000000000000028e-02 5.2511463883275742e-17 0.0000000000000000e+00  5.5000000000000028e-02 -2.4643791642554038e-16 0.0000000000000000e+00  5.5000000000000028e-02 9.0860201450159760e-17 0.0000000000000000e+00  5.5000000000000028e-02 -4.7531450242793726e-17 0.0000000000000000e+00  5.5000000000000028e-02 1.4562559896915472e-16 0.0000000000000000e+00  5.5000000000000028e-02 8.6214049420159413e-17 0.0000000000000000e+00  5.5000000000000028e-02 1.0765733098096014e-16 0.0000000000000000e+00  5.5000000000000028e-02 -3.3473301236951922e-17 0.0000000000000000e+00  5.5000000000000028e-02 -6.7913905007378564e-17 0.0000000000000000e+00  5.5000000000000028e-02 -1.3433722250914434e-16 0.0000000000000000e+00  5.5000000000000028e-02 -3.7244461394680813e-17 0.0000000000000000e+00  5.5000000000000028e-02 4.8482287310534490e-17 0.0000000000000000e+00  5.5000000000000028e-02 1.5933907457179719e-16 0.0000000000000000e+00  5.5000000000000028e-02 3.1164800937308337e-16 0.0000000000000000e+00  5.5000000000000028e-02 2.5850068941116078e-16 0.0000000000000000e+00  5.5000000000000028e-02 5.6054816543109931e-16 0.0000000000000000e+00  5.5000000000000021e-02 1.3543654707475528e-16 0.0000000000000000e+00  5.5000000000000028e-02 3.9038775595906596e-16 0.0000000000000000e+00  5.5000000000000014e-02 2.0145837986869508e-16 0.0000000000000000e+00  5.5000000000000021e-02 1.2518741053116196e-16 0.0000000000000000e+00  5.5000000000000014e-02 -3.0989209846322452e-16 0.0000000000000000e+00  5.5000000000000028e-02 -2.7027293238557244e-16 0.0000000000000000e+00  5.5000000000000021e-02 -2.8501419092449115e-16 0.0000000000000000e+00  5.5000000000000014e-02 -9.1630952059883652e-17 0.0000000000000000e+00  5.5000000000000028e-02 3.5939265526418938e-18 0.0000000000000000e+00  5.5000000000000021e-02 1.3767760888665375e-16 0.0000000000000000e+00  5.5000000000000021e-02 -6.1454085379712943e-17 0.0000000000000000e+00  5.5000000000000021e-02 1.5550230959603840e-16 0.0000000000000000e+00  5.5000000000000014e-02 2.6893408075731142e-16 0.0000000000000000e+00  5.5000000000000028e-02 3.1930488310788984e-16 0.0000000000000000e+00  5.4999999999999993e-02 -2.4553173501162919e-16 0.0000000000000000e+00  5.5000000000000153e-02 1.4698044209495141e-15 0.0000000000000000e+00  5.4999999999999591e-02 -5.7448292010912676e-15 0.0000000000000000e+00  5.5000000000001485e-02 1.9191680434827813e-14 0.0000000000000000e+00  5.4999999999995268e-02 -6.3246824746059546e-14 0.0000000000000000e+00  5.5000000000015217e-02 2.0289419777690377e-13 0.0000000000000000e+00  5.4999999999951990e-02 -6.4133988295226692e-13 0.0000000000000000e+00  5.5000000000150005e-02 2.0020164941864486e-12 0.0000000000000000e+00  5.4999999999536274e-02 -6.1925147831732732e-12 0.0000000000000000e+00  5.5000000001422508e-02 1.8993591768589480e-11 0.0000000000000000e+00  5.4999999995667327e-02 -5.7853684066681013e-11 0.0000000000000000e+00  5.5000000013116376e-02 1.7514093827396800e-10 0.0000000000000000e+00  5.4999999960508660e-02 -5.2731779457389744e-10 0.0000000000000000e+00  5.5000000118320770e-02 1.5798854775506770e-09 0.0000000000000000e+00  5.4999999647073222e-02 -4.7123622906740241e-09 0.0000000000000000e+00  5.5000001048415424e-02 1.3998110150158020e-08 0.0000000000000000e+00  5.4999996897286539e-02 -4.1423719578402940e-08 0.0000000000000000e+00  5.5000009150034862e-02 1.2214846660823357e-07 0.0000000000000000e+00  5.4999973105097223e-02 -3.5899016813997557e-07 0.0000000000000000e+00  5.5000078804802878e-02 1.0517767350472649e-06 0.0000000000000000e+00  5.4999769803364303e-02 -3.0727153278160303e-06 0.0000000000000000e+00  5.5000670271286585e-02 8.9546054053667879e-06 0.0000000000000000e+00  5.4998055777208468e-02 -2.6054020033756455e-05 0.0000000000000000e+00  5.5005608581868842e-02 7.5814381491978567e-05 0.0000000000000000e+00  5.4983978917002206e-02 -2.2166682625837777e-04 0.0000000000000000e+00  5.5044840266079399e-02 6.5663937083339826e-04 0.0000000000000000e+00  5.4880382404637829e-02 -2.0163225621601332e-03 0.0000000000000000e+00  5.5280813872103991e-02 6.5908163040304469e-03 0.0000000000000000e+00  5.4612700851909154e-02 -2.4642268209607292e-02 0.0000000000000000e+00  5.3577566166690127e-02 1.0296458378162143e-01 0.0000000000000000e+00  1.0248597758013582e-01 -8.6903593782118194e-01 0.0000000000000000e+00  2.1616712496840967e-01 -2.2150042623864215e+00 0.0000000000000000e+00  2.9106105832154072e-01 -2.7659733970571794e+00 0.0000000000000000e+00  3.3499052981365868e-01 -3.0383528701557130e+00 0.0000000000000000e+00  3.5570020225564886e-01 -3.1551349677585034e+00 0.0000000000000000e+00  3.6489033133026899e-01 -3.2078641420682672e+00 0.0000000000000000e+00  3.6818561033692782e-01 -3.2287483974550901e+00 0.0000000000000000e+00  3.6833825859121094e-01 -3.2333582434059522e+00 0.0000000000000000e+00  3.6719589561401667e-01 -3.2315431956282792e+00 0.0000000000000000e+00  3.6520163982960363e-01 -3.2251950036147958e+00 0.0000000000000000e+00  3.6294246952838816e-01 -3.2175528695844551e+00 0.0000000000000000e+00  3.6043207742010930e-01 -3.2086817559398724e+00 0.0000000000000000e+00  3.5788537294895850e-01 -3.1994589469805725e+00 0.0000000000000000e+00  3.5525948292025644e-01 -3.1899515055323149e+00 0.0000000000000000e+00  3.5263108064788573e-01 -3.1803508794442585e+00 0.0000000000000000e+00  3.4999230586305874e-01 -3.1706410727927254e+00 0.0000000000000000e+00  3.4734571224248317e-01 -3.1609690431175816e+00 0.0000000000000000e+00  3.4470919465862471e-01 -3.1512336772656835e+00 0.0000000000000000e+00  3.4207340872320369e-01 -3.1415252199723014e+00 0.0000000000000000e+00  3.3944038384919367e-01 -3.1318355466008976e+00 0.0000000000000000e+00  3.3681964841338097e-01 -3.1221270200750166e+00 0.0000000000000000e+00  3.3419958476929046e-01 -3.1124612346530767e+00 0.0000000000000000e+00  3.3158847073216713e-01 -3.1028028579255333e+00 0.0000000000000000e+00  3.2898607335333158e-01 -3.0931492579319610e+00 0.0000000000000000e+00  3.2638721639375423e-01 -3.0835364725664411e+00 0.0000000000000000e+00  3.2379824332274920e-01 -3.0739263503575005e+00 0.0000000000000000e+00  3.2121654093877650e-01 -3.0643386849201879e+00 0.0000000000000000e+00  3.1864036177467037e-01 -3.0547814307818739e+00 0.0000000000000000e+00  3.1607402343051166e-01 -3.0452339094881680e+00 0.0000000000000000e+00  3.1351435402718036e-01 -3.0357138351237638e+00 0.0000000000000000e+00  3.1096180916551824e-01 -3.0262199165005792e+00 0.0000000000000000e+00  3.0841847322426508e-01 -3.0167422866432108e+00 0.0000000000000000e+00  3.0588208190544064e-01 -3.0072932758150310e+00 0.0000000000000000e+00  3.0335368022528614e-01 -2.9978699232123045e+00 0.0000000000000000e+00  3.0083394447700185e-01 -2.9884672894731787e+00 0.0000000000000000e+00  2.9832185183350002e-01 -2.9790942551224080e+00 0.0000000000000000e+00  2.9581789911636314e-01 -2.9697470372292303e+00 0.0000000000000000e+00  2.9332267466612449e-01 -2.9604248912745543e+00 0.0000000000000000e+00  2.9083539799127373e-01 -2.9511318431551672e+00 0.0000000000000000e+00  2.8835658336670289e-01 -2.9418669359021683e+00 0.0000000000000000e+00  2.8588643710562545e-01 -2.9326291369447159e+00 0.0000000000000000e+00  2.8342468747702693e-01 -2.9234213326387573e+00 0.0000000000000000e+00  2.8097151943712767e-01 -2.9142432279501511e+00 0.0000000000000000e+00  2.7852715522843535e-01 -2.9050942700772322e+00 0.0000000000000000e+00  2.7609150151490691e-01 -2.8959761616707098e+00 0.0000000000000000e+00  2.7366459460557380e-01 -2.8868891637605616e+00 0.0000000000000000e+00  2.7124667287967713e-01 -2.8778331489859657e+00 0.0000000000000000e+00  2.6883769199856805e-01 -2.8688087711140091e+00 0.0000000000000000e+00  2.6643772634966795e-01 -2.8598168383967324e+00 0.0000000000000000e+00  2.6404686926312265e-01 -2.8508572547528939e+00 0.0000000000000000e+00  2.6166525183666950e-01 -2.8419303236438589e+00 0.0000000000000000e+00  2.5929286269706847e-01 -2.8330367162336398e+00 0.0000000000000000e+00  2.5692983396914237e-01 -2.8241765577081992e+00 0.0000000000000000e+00  2.5457625040049708e-01 -2.8153500501388851e+00 0.0000000000000000e+00  2.5223221993698025e-01 -2.8065573220333886e+00 0.0000000000000000e+00  2.4989778302776161e-01 -2.7977989158127881e+00 0.0000000000000000e+00  2.4757308912814580e-01 -2.7890746240632036e+00 0.0000000000000000e+00  2.4525822479789947e-01 -2.7803846979359563e+00 0.0000000000000000e+00  2.4295332452558049e-01 -2.7717289969612375e+00 0.0000000000000000e+00  2.4065845546621281e-01 -2.7631078405290754e+00 0.0000000000000000e+00  2.3837380030878774e-01 -2.7545207952204929e+00 0.0000000000000000e+00  2.3609945918556649e-01 -2.7459678812550736e+00 0.0000000000000000e+00  2.3383561854818455e-01 -2.7374486585170108e+00 0.0000000000000000e+00  2.3158237010842744e-01 -2.7289631050448873e+00 0.0000000000000000e+00  2.2933994625884821e-01 -2.7205104920436129e+00 0.0000000000000000e+00  2.2710848376682624e-01 -2.7120904106362000e+00 0.0000000000000000e+00  2.2488823878891567e-01 -2.7037019537619571e+00 0.0000000000000000e+00  2.2267935088493132e-01 -2.6953446096679858e+00 0.0000000000000000e+00  2.2048211339797449e-01 -2.6870171753683927e+00 0.0000000000000000e+00  2.1829673163413124e-01 -2.6787186247968049e+00 0.0000000000000000e+00  2.1612355788192802e-01 -2.6704472739180436e+00 0.0000000000000000e+00  2.1396282898423968e-01 -2.6622017998350840e+00 0.0000000000000000e+00  2.1181492264036245e-01 -2.6539802312427745e+00 0.0000000000000000e+00  2.0968014180750438e-01 -2.6457807045542525e+00 0.0000000000000000e+00  2.0755896244100694e-01 -2.6376004336026546e+00 0.0000000000000000e+00  2.0545179844080211e-01 -2.6294366711241546e+00 0.0000000000000000e+00  2.0335919899351537e-01 -2.6212859391386414e+00 0.0000000000000000e+00  2.0128164255984091e-01 -2.6131448847642162e+00 0.0000000000000000e+00  1.9921974854418978e-01 -2.6050093219591255e+00 0.0000000000000000e+00  1.9717413746021234e-01 -2.5968747104403080e+00 0.0000000000000000e+00  1.9514561303233321e-01 -2.5887352969550861e+00 0.0000000000000000e+00  1.9313503050010586e-01 -2.5805846178638561e+00 0.0000000000000000e+00  1.9114340463861915e-01 -2.5724150620922335e+00 0.0000000000000000e+00  1.8917181163629823e-01 -2.5642182344749527e+00 0.0000000000000000e+00  1.8722147290992719e-01 -2.5559845901305369e+00 0.0000000000000000e+00  1.8529374913036720e-01 -2.5477032355745699e+00 0.0000000000000000e+00  1.8339021388307927e-01 -2.5393615092888888e+00 0.0000000000000000e+00  1.8151272042585342e-01 -2.5309443434673193e+00 0.0000000000000000e+00  1.7966342088745621e-01 -2.5224340948543471e+00 0.0000000000000000e+00  1.7784486103162586e-01 -2.5138097965116901e+00 0.0000000000000000e+00  1.7605992346465013e-01 -2.5050474055445555e+00 0.0000000000000000e+00  1.7431193279720825e-01 -2.4961190948444183e+00 0.0000000000000000e+00  1.7260453039353912e-01 -2.4869938837312628e+00 0.0000000000000000e+00  1.7094176886084700e-01 -2.4776371504867849e+00 0.0000000000000000e+00  1.6932791624329468e-01 -2.4680116919742536e+00 0.0000000000000000e+00  1.6776749662317969e-01 -2.4580778135769070e+00 0.0000000000000000e+00  1.6626501990988024e-01 -2