<?xml version="1.0"?>
<VTKFile type="UnstructuredGrid"  version="0.1"  >
<UnstructuredGrid>
<Piece  NumberOfPoints="801" NumberOfCells="800">
<Points>
<DataArray  type="Float64"  NumberOfComponents="3"  format="ascii">-5 0 0  -4.9875 0 0  -4.975 0 0  -4.9625 0 0  -4.95 0 0  -4.9375 0 0  -4.925 0 0  -4.9125 0 0  -4.9 0 0  -4.8875 0 0  -4.875 0 0  -4.8625 0 0  -4.85 0 0  -4.8375 0 0  -4.825 0 0  -4.8125 0 0  -4.8 0 0  -4.7875 0 0  -4.775 0 0  -4.7625 0 0  -4.75 0 0  -4.7375 0 0  -4.725 0 0  -4.7125 0 0  -4.7 0 0  -4.6875 0 0  -4.675 0 0  -4.6625 0 0  -4.65 0 0  -4.6375 0 0  -4.625 0 0  -4.6125 0 0  -4.6 0 0  -4.5875 0 0  -4.575 0 0  -4.5625 0 0  -4.55 0 0  -4.5375 0 0  -4.525 0 0  -4.5125 0 0  -4.5 0 0  -4.4875 0 0  -4.475 0 0  -4.4625 0 0  -4.45 0 0  -4.4375 0 0  -4.425 0 0  -4.4125 0 0  -4.4 0 0  -4.3875 0 0  -4.375 0 0  -4.3625 0 0  -4.35 0 0  -4.3375 0 0  -4.325 0 0  -4.3125 0 0  -4.3 0 0  -4.2875 0 0  -4.275 0 0  -4.2625 0 0  -4.25 0 0  -4.2375 0 0  -4.225 0 0  -4.2125 0 0  -4.2 0 0  -4.1875 0 0  -4.175 0 0  -4.1625 0 0  -4.15 0 0  -4.1375 0 0  -4.125 0 0  -4.1125 0 0  -4.1 0 0  -4.0875 0 0  -4.075 0 0  -4.0625 0 0  -4.05 0 0  -4.0375 0 0  -4.025 0 0  -4.0125 0 0  -4 0 0  -3.9875 0 0  -3.975 0 0  -3.9625 0 0  -3.95 0 0  -3.9375 0 0  -3.925 0 0  -3.9125 0 0  -3.9 0 0  -3.8875 0 0  -3.875 0 0  -3.8625 0 0  -3.85 0 0  -3.8375 0 0  -3.825 0 0  -3.8125 0 0  -3.8 0 0  -3.7875 0 0  -3.775 0 0  -3.7625 0 0  -3.75 0 0  -3.7375 0 0  -3.725 0 0  -3.7125 0 0  -3.7 0 0  -3.6875 0 0  -3.675 0 0  -3.6625 0 0  -3.65 0 0  -3.6375 0 0  -3.625 0 0  -3.6125 0 0  -3.6 0 0  -3.5875 0 0  -3.575 0 0  -3.5625 0 0  -3.55 0 0  -3.5375 0 0  -3.525 0 0  -3.5125 0 0  -3.5 0 0  -3.4875 0 0  -3.475 0 0  -3.4625 0 0  -3.45 0 0  -3.4375 0 0  -3.425 0 0  -3.4125 0 0  -3.4 0 0  -3.3875 0 0  -3.375 0 0  -3.3625 0 0  -3.35 0 0  -3.3375 0 0  -3.325 0 0  -3.3125 0 0  -3.3 0 0  -3.2875 0 0  -3.275 0 0  -3.2625 0 0  -3.25 0 0  -3.2375 0 0  -3.225 0 0  -3.2125 0 0  -3.2 0 0  -3.1875 0 0  -3.175 0 0  -3.1625 0 0  -3.15 0 0  -3.1375 0 0  -3.125 0 0  -3.1125 0 0  -3.1 0 0  -3.0875 0 0  -3.075 0 0  -3.0625 0 0  -3.05 0 0  -3.0375 0 0  -3.025 0 0  -3.0125 0 0  -3 0 0  -2.9875 0 0  -2.975 0 0  -2.9625 0 0  -2.95 0 0  -2.9375 0 0  -2.925 0 0  -2.9125 0 0  -2.9 0 0  -2.8875 0 0  -2.875 0 0  -2.8625 0 0  -2.85 0 0  -2.8375 0 0  -2.825 0 0  -2.8125 0 0  -2.8 0 0  -2.7875 0 0  -2.775 0 0  -2.7625 0 0  -2.75 0 0  -2.7375 0 0  -2.725 0 0  -2.7125 0 0  -2.7 0 0  -2.6875 0 0  -2.675 0 0  -2.6625 0 0  -2.65 0 0  -2.6375 0 0  -2.625 0 0  -2.6125 0 0  -2.6 0 0  -2.5875 0 0  -2.575 0 0  -2.5625 0 0  -2.55 0 0  -2.5375 0 0  -2.525 0 0  -2.5125 0 0  -2.5 0 0  -2.4875 0 0  -2.475 0 0  -2.4625 0 0  -2.45 0 0  -2.4375 0 0  -2.425 0 0  -2.4125 0 0  -2.4 0 0  -2.3875 0 0  -2.375 0 0  -2.3625 0 0  -2.35 0 0  -2.3375 0 0  -2.325 0 0  -2.3125 0 0  -2.3 0 0  -2.2875 0 0  -2.275 0 0  -2.2625 0 0  -2.25 0 0  -2.2375 0 0  -2.225 0 0  -2.2125 0 0  -2.2 0 0  -2.1875 0 0  -2.175 0 0  -2.1625 0 0  -2.15 0 0  -2.1375 0 0  -2.125 0 0  -2.1125 0 0  -2.1 0 0  -2.0875 0 0  -2.075 0 0  -2.0625 0 0  -2.05 0 0  -2.0375 0 0  -2.025 0 0  -2.0125 0 0  -2 0 0  -1.9875 0 0  -1.975 0 0  -1.9625 0 0  -1.95 0 0  -1.9375 0 0  -1.925 0 0  -1.9125 0 0  -1.9 0 0  -1.8875 0 0  -1.875 0 0  -1.8625 0 0  -1.85 0 0  -1.8375 0 0  -1.825 0 0  -1.8125 0 0  -1.8 0 0  -1.7875 0 0  -1.775 0 0  -1.7625 0 0  -1.75 0 0  -1.7375 0 0  -1.725 0 0  -1.7125 0 0  -1.7 0 0  -1.6875 0 0  -1.675 0 0  -1.6625 0 0  -1.65 0 0  -1.6375 0 0  -1.625 0 0  -1.6125 0 0  -1.6 0 0  -1.5875 0 0  -1.575 0 0  -1.5625 0 0  -1.55 0 0  -1.5375 0 0  -1.525 0 0  -1.5125 0 0  -1.5 0 0  -1.4875 0 0  -1.475 0 0  -1.4625 0 0  -1.45 0 0  -1.4375 0 0  -1.425 0 0  -1.4125 0 0  -1.4 0 0  -1.3875 0 0  -1.375 0 0  -1.3625 0 0  -1.35 0 0  -1.3375 0 0  -1.325 0 0  -1.3125 0 0  -1.3 0 0  -1.2875 0 0  -1.275 0 0  -1.2625 0 0  -1.25 0 0  -1.2375 0 0  -1.225 0 0  -1.2125 0 0  -1.2 0 0  -1.1875 0 0  -1.175 0 0  -1.1625 0 0  -1.15 0 0  -1.1375 0 0  -1.125 0 0  -1.1125 0 0  -1.1 0 0  -1.0875 0 0  -1.075 0 0  -1.0625 0 0  -1.05 0 0  -1.0375 0 0  -1.025 0 0  -1.0125 0 0  -1 0 0  -0.9874999999999998 0 0  -0.9749999999999996 0 0  -0.9625000000000004 0 0  -0.9500000000000002 0 0  -0.9375 0 0  -0.9249999999999998 0 0  -0.9124999999999996 0 0  -0.9000000000000004 0 0  -0.8875000000000002 0 0  -0.875 0 0  -0.8624999999999998 0 0  -0.8499999999999996 0 0  -0.8375000000000004 0 0  -0.8250000000000002 0 0  -0.8125 0 0  -0.7999999999999998 0 0  -0.7874999999999996 0 0  -0.7750000000000004 0 0  -0.7625000000000002 0 0  -0.75 0 0  -0.7374999999999998 0 0  -0.7249999999999996 0 0  -0.7125000000000004 0 0  -0.7000000000000002 0 0  -0.6875 0 0  -0.6749999999999998 0 0  -0.6624999999999996 0 0  -0.6500000000000004 0 0  -0.6375000000000002 0 0  -0.625 0 0  -0.6124999999999998 0 0  -0.5999999999999996 0 0  -0.5875000000000004 0 0  -0.5750000000000002 0 0  -0.5625 0 0  -0.5499999999999998 0 0  -0.5374999999999996 0 0  -0.5250000000000004 0 0  -0.5125000000000002 0 0  -0.5 0 0  -0.4874999999999998 0 0  -0.4749999999999996 0 0  -0.4625000000000004 0 0  -0.4500000000000002 0 0  -0.4375 0 0  -0.4249999999999998 0 0  -0.4124999999999996 0 0  -0.4000000000000004 0 0  -0.3875000000000002 0 0  -0.375 0 0  -0.3624999999999998 0 0  -0.3499999999999996 0 0  -0.3375000000000004 0 0  -0.3250000000000002 0 0  -0.3125 0 0  -0.2999999999999998 0 0  -0.2874999999999996 0 0  -0.2750000000000004 0 0  -0.2625000000000002 0 0  -0.25 0 0  -0.2374999999999998 0 0  -0.2249999999999996 0 0  -0.2125000000000004 0 0  -0.2000000000000002 0 0  -0.1875 0 0  -0.1749999999999998 0 0  -0.1624999999999996 0 0  -0.1500000000000004 0 0  -0.1375000000000002 0 0  -0.125 0 0  -0.1124999999999998 0 0  -0.09999999999999964 0 0  -0.08750000000000036 0 0  -0.07500000000000018 0 0  -0.0625 0 0  -0.04999999999999982 0 0  -0.03749999999999964 0 0  -0.02500000000000036 0 0  -0.01250000000000018 0 0  0 0 0  0.01250000000000018 0 0  0.02500000000000036 0 0  0.03749999999999964 0 0  0.04999999999999982 0 0  0.0625 0 0  0.07500000000000018 0 0  0.08750000000000036 0 0  0.09999999999999964 0 0  0.1124999999999998 0 0  0.125 0 0  0.1375000000000002 0 0  0.1500000000000004 0 0  0.1624999999999996 0 0  0.1749999999999998 0 0  0.1875 0 0  0.2000000000000002 0 0  0.2125000000000004 0 0  0.2249999999999996 0 0  0.2374999999999998 0 0  0.25 0 0  0.2625000000000002 0 0  0.2750000000000004 0 0  0.2874999999999996 0 0  0.2999999999999998 0 0  0.3125 0 0  0.3250000000000002 0 0  0.3375000000000004 0 0  0.3499999999999996 0 0  0.3624999999999998 0 0  0.375 0 0  0.3875000000000002 0 0  0.4000000000000004 0 0  0.4124999999999996 0 0  0.4249999999999998 0 0  0.4375 0 0  0.4500000000000002 0 0  0.4625000000000004 0 0  0.4749999999999996 0 0  0.4874999999999998 0 0  0.5 0 0  0.5125000000000002 0 0  0.5250000000000004 0 0  0.5374999999999996 0 0  0.5499999999999998 0 0  0.5625 0 0  0.5750000000000002 0 0  0.5875000000000004 0 0  0.5999999999999996 0 0  0.6124999999999998 0 0  0.625 0 0  0.6375000000000002 0 0  0.6500000000000004 0 0  0.6624999999999996 0 0  0.6749999999999998 0 0  0.6875 0 0  0.7000000000000002 0 0  0.7125000000000004 0 0  0.7249999999999996 0 0  0.7374999999999998 0 0  0.75 0 0  0.7625000000000002 0 0  0.7750000000000004 0 0  0.7874999999999996 0 0  0.7999999999999998 0 0  0.8125 0 0  0.8250000000000002 0 0  0.8375000000000004 0 0  0.8499999999999996 0 0  0.8624999999999998 0 0  0.875 0 0  0.8875000000000002 0 0  0.9000000000000004 0 0  0.9124999999999996 0 0  0.9249999999999998 0 0  0.9375 0 0  0.9500000000000002 0 0  0.9625000000000004 0 0  0.9749999999999996 0 0  0.9874999999999998 0 0  1 0 0  1.0125 0 0  1.025 0 0  1.0375 0 0  1.05 0 0  1.0625 0 0  1.075 0 0  1.0875 0 0  1.1 0 0  1.1125 0 0  1.125 0 0  1.1375 0 0  1.15 0 0  1.1625 0 0  1.175 0 0  1.1875 0 0  1.2 0 0  1.2125 0 0  1.225 0 0  1.2375 0 0  1.25 0 0  1.2625 0 0  1.275 0 0  1.2875 0 0  1.3 0 0  1.3125 0 0  1.325 0 0  1.3375 0 0  1.35 0 0  1.3625 0 0  1.375 0 0  1.3875 0 0  1.4 0 0  1.4125 0 0  1.425 0 0  1.4375 0 0  1.45 0 0  1.4625 0 0  1.475 0 0  1.4875 0 0  1.5 0 0  1.5125 0 0  1.525 0 0  1.5375 0 0  1.55 0 0  1.5625 0 0  1.575 0 0  1.5875 0 0  1.6 0 0  1.6125 0 0  1.625 0 0  1.6375 0 0  1.65 0 0  1.6625 0 0  1.675 0 0  1.6875 0 0  1.7 0 0  1.7125 0 0  1.725 0 0  1.7375 0 0  1.75 0 0  1.7625 0 0  1.775 0 0  1.7875 0 0  1.8 0 0  1.8125 0 0  1.825 0 0  1.8375 0 0  1.85 0 0  1.8625 0 0  1.875 0 0  1.8875 0 0  1.9 0 0  1.9125 0 0  1.925 0 0  1.9375 0 0  1.95 0 0  1.9625 0 0  1.975 0 0  1.9875 0 0  2 0 0  2.0125 0 0  2.025 0 0  2.0375 0 0  2.05 0 0  2.0625 0 0  2.075 0 0  2.0875 0 0  2.1 0 0  2.1125 0 0  2.125 0 0  2.1375 0 0  2.15 0 0  2.1625 0 0  2.175 0 0  2.1875 0 0  2.2 0 0  2.2125 0 0  2.225 0 0  2.2375 0 0  2.25 0 0  2.2625 0 0  2.275 0 0  2.2875 0 0  2.3 0 0  2.3125 0 0  2.325 0 0  2.3375 0 0  2.35 0 0  2.3625 0 0  2.375 0 0  2.3875 0 0  2.4 0 0  2.4125 0 0  2.425 0 0  2.4375 0 0  2.45 0 0  2.4625 0 0  2.475 0 0  2.4875 0 0  2.5 0 0  2.5125 0 0  2.525 0 0  2.5375 0 0  2.55 0 0  2.5625 0 0  2.575 0 0  2.5875 0 0  2.6 0 0  2.6125 0 0  2.625 0 0  2.6375 0 0  2.65 0 0  2.6625 0 0  2.675 0 0  2.6875 0 0  2.7 0 0  2.7125 0 0  2.725 0 0  2.7375 0 0  2.75 0 0  2.7625 0 0  2.775 0 0  2.7875 0 0  2.8 0 0  2.8125 0 0  2.825 0 0  2.8375 0 0  2.85 0 0  2.8625 0 0  2.875 0 0  2.8875 0 0  2.9 0 0  2.9125 0 0  2.925 0 0  2.9375 0 0  2.95 0 0  2.9625 0 0  2.975 0 0  2.9875 0 0  3 0 0  3.012499999999999 0 0  3.025 0 0  3.0375 0 0  3.050000000000001 0 0  3.0625 0 0  3.074999999999999 0 0  3.0875 0 0  3.1 0 0  3.112500000000001 0 0  3.125 0 0  3.137499999999999 0 0  3.15 0 0  3.1625 0 0  3.175000000000001 0 0  3.1875 0 0  3.199999999999999 0 0  3.2125 0 0  3.225 0 0  3.237500000000001 0 0  3.25 0 0  3.262499999999999 0 0  3.275 0 0  3.2875 0 0  3.300000000000001 0 0  3.3125 0 0  3.324999999999999 0 0  3.3375 0 0  3.35 0 0  3.362500000000001 0 0  3.375 0 0  3.387499999999999 0 0  3.4 0 0  3.4125 0 0  3.425000000000001 0 0  3.4375 0 0  3.449999999999999 0 0  3.4625 0 0  3.475 0 0  3.4875
[...]
<PointData  Vectors="(h, u)"> 
<DataArray  type="Float64"  Name="(h, u)"  NumberOfComponents="3" format="ascii">2.5820234298857209e-01 0.0000000000000000e+00 0.0000000000000000e+00  2.5813727172133683e-01 7.1868579295772195e-03 0.0000000000000000e+00  2.5819934231337394e-01 1.4728348186415129e-02 0.0000000000000000e+00  2.5813099406715651e-01 2.1561088091866173e-02 0.0000000000000000e+00  2.5819029548898803e-01 2.9457457714736617e-02 0.0000000000000000e+00  2.5811840777604950e-01 3.5936274215131382e-02 0.0000000000000000e+00  2.5817520856096199e-01 4.4187425019887670e-02 0.0000000000000000e+00  2.5809956572085085e-01 5.0312754045245371e-02 0.0000000000000000e+00  2.5815408603244638e-01 5.8918914971189444e-02 0.0000000000000000e+00  2.5807443618873449e-01 6.4691661948085316e-02 0.0000000000000000e+00  2.5812684328217828e-01 7.3652790038899199e-02 0.0000000000000000e+00  2.5804301474561492e-01 7.9073514891584554e-02 0.0000000000000000e+00  2.5809350701603251e-01 8.8388944510321574e-02 0.0000000000000000e+00  2.5800537590396277e-01 9.3458578962613018e-02 0.0000000000000000e+00  2.5805402924582732e-01 1.0312803946595002e-01 0.0000000000000000e+00  2.5796143950573236e-01 1.0784830793419116e-01 0.0000000000000000e+00  2.5800829058942015e-01 1.1787098343495728e-01 0.0000000000000000e+00  2.5791125051481451e-01 1.2224313200936622e-01 0.0000000000000000e+00  2.5795636159655677e-01 1.3261727462793663e-01 0.0000000000000000e+00  2.5785488769632287e-01 1.3664337112724087e-01 0.0000000000000000e+00  2.5789810508320055e-01 1.4736784982491230e-01 0.0000000000000000e+00  2.5779219762179706e-01 1.5105096490936068e-01 0.0000000000000000e+00  2.5783340642977209e-01 1.6212343967625542e-01 0.0000000000000000e+00  2.5772332616073751e-01 1.6546586589794376e-01 0.0000000000000000e+00  2.5776239602390805e-01 1.7688309031864918e-01 0.0000000000000000e+00  2.5764828260458544e-01 1.7988886078522756e-01 0.0000000000000000e+00  2.5768478445964232e-01 1.9164851449595779e-01 0.0000000000000000e+00  2.5756685242855759e-01 1.9432222958050488e-01 0.0000000000000000e+00  2.5760058164968919e-01 2.0641960968468137e-01 0.0000000000000000e+00  2.5747934195202726e-01 2.0876495119240301e-01 0.0000000000000000e+00  2.5750990872262697e-01 2.2119550147774331e-01 0.0000000000000000e+00  2.5738552292535993e-01 2.2321922429213997e-01 0.0000000000000000e+00  2.5741230122779274e-01 2.3597896812876398e-01 0.0000000000000000e+00  2.5728528100664266e-01 2.3768656714771494e-01 0.0000000000000000e+00  2.5730809296470514e-01 2.5076795562485860e-01 0.0000000000000000e+00  2.5717901091158452e-01 2.5216529390436626e-01 0.0000000000000000e+00  2.5719711580855786e-01 2.6556349834329601e-01 0.0000000000000000e+00  2.5706607944254733e-01 2.6665996210810955e-01 0.0000000000000000e+00  2.5707897765536586e-01 2.8036803893571877e-01 0.0000000000000000e+00  2.5694685546979495e-01 2.8116888865659512e-01 0.0000000000000000e+00  2.5695435338517197e-01 2.9517754214578507e-01 0.0000000000000000e+00  2.5682133076322444e-01 2.9569268255304271e-01 0.0000000000000000e+00  2.5682240036844567e-01 3.0999736863554472e-01 0.0000000000000000e+00  2.5668877530568862e-01 3.1023631921730493e-01 0.0000000000000000e+00  2.5668352896411850e-01 3.2482517433817421e-01 0.0000000000000000e+00  2.5655018742347474e-01 3.2479400936892311e-01 0.0000000000000000e+00  2.5653795417929831e-01 3.3965989384597606e-01 0.0000000000000000e+00  2.5640438476899990e-01 3.3937343662947345e-01 0.0000000000000000e+00  2.5638460098356980e-01 3.5450846004902814e-01 0.0000000000000000e+00  2.5625181425612314e-01 3.5397212890095414e-01 0.0000000000000000e+00  2.5622501956107574e-01 3.6936163421096013e-01 0.0000000000000000e+00  2.5609274811248889e-01 3.6858864809159586e-01 0.0000000000000000e+00  2.5605760288442947e-01 3.8422968973445859e-01 0.0000000000000000e+00  2.5592560091781913e-01 3.8323303886705490e-01 0.0000000000000000e+00  2.5588322568716315e-01 3.9910760398856482e-01 0.0000000000000000e+00  2.5575245674271962e-01 3.9789257271175865e-01 0.0000000000000000e+00  2.5570215597633256e-01 4.1399413258978490e-01 0.0000000000000000e+00  2.5557076176572902e-01 4.1258326311918242e-01 0.0000000000000000e+00  2.5551260464124698e-01 4.2890071942400360e-01 0.0000000000000000e+00  2.5538209395672928e-01 4.2729545785468337e-01 0.0000000000000000e+00  2.5531750983086715e-01 4.4380962423272219e-01 0.0000000000000000e+00  2.5518586108767882e-01 4.4203298792535178e-01 0.0000000000000000e+00  2.5511317377645520e-01 4.5874412506812917e-01 0.0000000000000000e+00  2.5498039713176529e-01 4.5680633182762959e-01 0.0000000000000000e+00  2.5490293486394672e-01 4.7368397425054881e-01 0.0000000000000000e+00  2.5476880439441479e-01 4.7159635276577788e-01 0.0000000000000000e+00  2.5468445945310025e-01 4.8864402918339839e-01 0.0000000000000000e+00  2.5454594034700700e-01 4.8643514890951534e-01 0.0000000000000000e+00  2.5445792631520381e-01 5.0362355896753119e-01 0.0000000000000000e+00  2.5431717318059255e-01 5.0128947405165336e-01 0.0000000000000000e+00  2.5422541987803521e-01 5.1861007054296671e-01 0.0000000000000000e+00  2.5407672110582430e-01 5.1619544731460509e-01 0.0000000000000000e+00  2.5398204789072049e-01 5.3363423685254052e-01 0.0000000000000000e+00  2.5382849231831717e-01 5.3112887109539042e-01 0.0000000000000000e+00  2.5373473795859841e-01 5.4865350104902222e-01 0.0000000000000000e+00  2.5357003485570612e-01 5.4610517836779293e-01 0.0000000000000000e+00  2.5347465865597862e-01 5.6372300159625655e-01 0.0000000000000000e+00  2.5330021954785531e-01 5.6113153514673786e-01 0.0000000000000000e+00  2.5321114350795326e-01 5.7878516802138669e-01 0.0000000000000000e+00  2.5302263950202386e-01 5.7618572439699933e-01 0.0000000000000000e+00  2.5293479024428150e-01 5.9389875188059493e-01 0.0000000000000000e+00  2.5272955761406612e-01 5.9131613129738780e-01 0.0000000000000000e+00  2.5265353564791065e-01 6.0901475312846109e-01 0.0000000000000000e+00  2.5243096673972576e-01 6.0646059081043191e-01 0.0000000000000000e+00  2.5236120259272232e-01 6.2417195686852200e-01 0.0000000000000000e+00  2.5211324806549595e-01 6.2170426596673833e-01 0.0000000000000000e+00  2.5206089769922713e-01 6.3935132092733282e-01 0.0000000000000000e+00  2.5179118784281351e-01 6.3695498129798234e-01 0.0000000000000000e+00  2.5175249830143631e-01 6.5455399765809186e-01 0.0000000000000000e+00  2.5144742863416358e-01 6.5232136962110188e-01 0.0000000000000000e+00  2.5143211438722179e-01 6.6980448530227565e-01 0.0000000000000000e+00  2.5109910879837288e-01 6.6769643614362895e-01 0.0000000000000000e+00  2.5110718022539125e-01 6.8505682327628559e-01 0.0000000000000000e+00  2.5072753571338091e-01 6.8319731788328208e-01 0.0000000000000000e+00  2.5076577970632391e-01 7.0038560233387770e-01 0.0000000000000000e+00  2.5034998067807718e-01 6.9871605947242277e-01 0.0000000000000000e+00  2.5042362435953186e-01 7.1569309101079548e-01 0.0000000000000000e+00  2.4994819201758850e-01 7.1436721206557507e-01 0.0000000000000000e+00  2.5006001603956157e-01 7.3110886352879279e-01 0.0000000000000000e+00  2.4953832587265337e-01 7.3004967136872101e-01 0.0000000000000000e+00  2.4969998717419095e-01 7.4647671723165998e-01 0.0000000000000000e+00  2.4910298576347639e-01 7.4587280821284363e-01 0.0000000000000000e+00  2.4931230130085691e-01 7.6199240882643282e-01 0.0000000000000000e+00  2.4865788090306570e-01 7.6173817889657691e-01 0.0000000000000000e+00  2.4893401546655236e-01 7.7742412021875185e-01 0.0000000000000000e+00  2.4818402365205147e-01 7.7776533810958504e-01 0.0000000000000000e+00  2.4851938988512023e-01 7.9305891607673162e-01 0.0000000000000000e+00  2.4770176100931340e-01 7.9382652521698782e-01 0.0000000000000000e+00  2.4812248193334135e-01 8.0855785552104265e-01 0.0000000000000000e+00  2.4718120053275178e-01 8.1011014170798912e-01 0.0000000000000000e+00  2.4767774176131124e-01 8.2433299221307754e-01 0.0000000000000000e+00  2.4666269602498900e-01 8.2636225096782900e-01 0.0000000000000000e+00  2.4725950224246526e-01 8.3991725119674521e-01 0.0000000000000000e+00  2.4608177985475985e-01 8.4298955112603091e-01 0.0000000000000000e+00  2.4678524950812714e-01 8.5583021547843385e-01 0.0000000000000000e+00  2.4553189000880946e-01 8.5940285841461228e-01 0.0000000000000000e+00  2.4633307570873211e-01 8.7158035781075760e-01 0.0000000000000000e+00  2.4487297024158783e-01 8.7648690452486899e-01 0.0000000000000000e+00  2.4584364273231457e-01 8.8754177252604360e-01 0.0000000000000000e+00  2.4429236286194206e-01 8.9305819971197420e-01 0.0000000000000000e+00  2.4532324851347029e-01 9.0367591237087874e-01 0.0000000000000000e+00  2.4355211938270016e-01 9.1062228678875257e-01 0.0000000000000000e+00  2.4485285965066828e-01 9.1946974767050660e-01 0.0000000000000000e+00  2.4290489045001246e-01 9.2758008431785988e-01 0.0000000000000000e+00  2.4421731758769410e-01 9.3628811470707318e-01 0.0000000000000000e+00  2.4213689361254981e-01 9.4528674923460665e-01 0.0000000000000000e+00  2.4377751596625416e-01 9.5184051013057203e-01 0.0000000000000000e+00  2.4131373290499453e-01 9.6332835986105669e-01 0.0000000000000000e+00  2.4305439560514541e-01 9.6917130268274254e-01 0.0000000000000000e+00  2.4062194401922912e-01 9.8051760842534275e-01 0.0000000000000000e+00  2.4250673835074224e-01 9.8536432508721239e-01 0.0000000000000000e+00  2.3954369083146146e-01 1.0001520472380241e+00 0.0000000000000000e+00  2.4190834684896531e-01 1.0018573842044949e+00 0.0000000000000000e+00  2.3884198350747171e-01 1.0173722890373667e+00 0.0000000000000000e+00  2.4099011903355361e-01 1.0203711537258671e+00 0.0000000000000000e+00  2.3779751784000822e-01 1.0367693604172785e+00 0.0000000000000000e+00  2.4059600473171439e-01 1.0355079892228152e+00 0.0000000000000000e+00  2.3659038654233699e-01 1.0571926124962094e+00 0.0000000000000000e+00  2.3957863648108821e-01 1.0546274912400446e+00 0.0000000000000000e+00  2.3596715110680080e-01 1.0738511160606985e+00 0.0000000000000000e+00  2.3863778574521730e-01 1.0732399154914347e+00 0.0000000000000000e+00  2.3442729913012597e-01 1.0963968203041574e+00 0.0000000000000000e+00  2.3831896278552092e-01 1.0878008768027487e+00 0.0000000000000000e+00  2.3319477973519687e-01 1.1169827904248029e+00 0.0000000000000000e+00  2.3681869249853718e-01 1.1099627256247828e+00 0.0000000000000000e+00  2.3273372127586714e-01 1.1325466833271414e+00 0.0000000000000000e+00  2.3575266599467434e-01 1.1293668565872743e+00 0.0000000000000000e+00  2.3080394474454821e-01 1.1575343044933610e+00 0.0000000000000000e+00  2.3578861767340595e-01 1.1416210102963475e+00 0.0000000000000000e+00  2.2921626468806017e-01 1.1803794779362580e+00 0.0000000000000000e+00  2.3416250688872497e-01 1.1644941885512006e+00 0.0000000000000000e+00  2.2950020744905114e-01 1.1912292002655920e+00 0.0000000000000000e+00  2.3209593763073397e-01 1.1901527647580412e+00 0.0000000000000000e+00  2.2853350460273750e-01 1.2100491976350372e+00 0.0000000000000000e+00  2.3245356101148354e-01 1.2003779244896937e+00 0.0000000000000000e+00  2.2565981234530411e-01 1.2408281258753731e+00 0.0000000000000000e+00  2.3330181341336653e-01 1.2076456447364183e+00 0.0000000000000000e+00  2.2437441394842639e-01 1.2614561561566260e+00 0.0000000000000000e+00  2.3150953228258236e-01 1.2313088868009427e+00 0.0000000000000000e+00  2.2631334779880566e-01 1.2622309712706290e+00 0.0000000000000000e+00  2.2737106246842864e-01 1.2693239931644105e+00 0.0000000000000000e+00  2.2957596354763990e-01 1.2541558902446437e+00 0.0000000000000000e+00  2.2321618586880571e-01 1.3092325002439207e+00 0.0000000000000000e+00  2.3196470865576779e-01 1.2485691517974868e+00 0.0000000000000000e+00  2.2044783052836425e-01 1.3432647315854813e+00 0.0000000000000000e+00  2.3311632763740570e-01 1.2499888470750042e+00 0.0000000000000000e+00  2.1864488614756922e-01 1.3680554251787456e+00 0.0000000000000000e+00  2.3396800761651779e-01 1.2605471726286026e+00 0.0000000000000000e+00  2.1693583458269189e-01 1.3832301929467383e+00 0.0000000000000000e+00  2.3480081061704575e-01 1.2771724701201115e+00 0.0000000000000000e+00  2.1587988461762403e-01 1.3966906853466832e+00 0.0000000000000000e+00  2.3430469419504316e-01 1.2884334831981179e+00 0.0000000000000000e+00  2.1683211652595319e-01 1.4195074064227806e+00 0.0000000000000000e+00  2.3202303062643592e-01 1.2900108271094992e+00 0.0000000000000000e+00  2.1843793926043248e-01 1.4437437503445465e+00 0.0000000000000000e+00  2.3124456553229172e-01 1.3031699883589793e+00 0.0000000000000000e+00  2.1642595485316315e-01 1.4421203468164712e+00 0.0000000000000000e+00  2.3505469982454563e-01 1.3480489149471304e+00 0.0000000000000000e+00  2.1132732204487942e-01 1.4180436090184467e+00 0.0000000000000000e+00  2.3774293566062327e-01 1.3862231129742126e+00 0.0000000000000000e+00  2.1311837552828400e-01 1.4387249114800578e+00 0.0000000000000000e+00  2.2883564904888723e-01 1.3488823109555175e+00 0.0000000000000000e+00  2.2652025838487250e-01 1.5343979696083834e+00 0.0000000000000000e+00  2.1495405270281387e-01 1.2754901365547708e+00 0.0000000000000000e+00  2.3150092574127731e-01 1.5747166546003368e+00 0.0000000000000000e+00  2.2395320308717942e-01 1.3610437596835974e+00 0.0000000000000000e+00  2.0371310696693098e-01 1.4029986818839000e+00 0.0000000000000000e+00  2.5955407030200028e-01 1.6084083550037764e+00 0.0000000000000000e+00  1.7065094176617499e-01 1.1901735819492230e+00 0.0000000000000000e+00  2.6236823948381260e-01 1.5931106934623007e+00 0.0000000000000000e+00  1.6525541315891160e-01 1.4585973766172129e+00 0.0000000000000000e+00  2.0747360919838722e-02 -1.6916619178406163e+00 0.0000000000000000e+00  3.2682113177731335e-02 -6.9256136263513890e-01 0.0000000000000000e+00  3.7098334258875709e-02 -1.1087007624341327e+00 0.0000000000000000e+00  2.9019973375522947e-02 -9.0716369117830409e-01 0.0000000000000000e+00  3.7302680439472789e-02 -1.0220810638987572e+00 0.0000000000000000e+00  2.9141611105632383e-02 -9.2752403956808083e-01 0.0000000000000000e+00  3.7248875804004405e-02 -1.0063606909214751e+00 0.0000000000000000e+00  2.9025618214086439e-02 -9.1798259581842356e-01 0.0000000000000000e+00  3.7375359782936421e-02 -1.0000024673123726e+00 0.0000000000000000e+00  2.8833784716025820e-02 -9.0531025256157815e-01 0.0000000000000000e+00  3.7528865979946820e-02 -9.9415912869251055e-01 0.0000000000000000e+00  2.8640016843894538e-02 -8.9269356009831691e-01 0.0000000000000000e+00  3.7682728543055544e-02 -9.8803933201459149e-01 0.0000000000000000e+00  2.8451250733905895e-02 -8.8029106185696493e-01 0.0000000000000000e+00  3.7835476850919592e-02 -9.8165789687519400e-01 0.0000000000000000e+00  2.8267688585382367e-02 -8.6808532030406194e-01 0.0000000000000000e+00  3.7986317882230988e-02 -9.7501980814284561e-01 0.0000000000000000e+00  2.8090137106799039e-02 -8.5609930212148078e-01 0.0000000000000000e+00  3.8133992356096047e-02 -9.6810476507436216e-01 0.0000000000000000e+00  2.7919610344946756e-02 -8.4437049614113868e-01 0.0000000000000000e+00  3.8277250901617210e-02 -9.6088791164121057e-01 0.0000000000000000e+00  2.7757043915464238e-02 -8.3293647854836361e-01 0.0000000000000000e+00  3.8414990216008270e-02 -9.5334631814897419e-01 0.0000000000000000e+00  2.7603231942086467e-02 -8.2183131943868415e-01 0.0000000000000000e+00  3.8546272207058148e-02 -9.4546048384281167e-01 0.0000000000000000e+00  2.7458816148221352e-02 -8.1108450499529738e-01 0.0000000000000000e+00  3.8670343198052688e-02 -9.3721451504258302e-01 0.0000000000000000e+00  2.7324262790332537e-02 -8.0072076125741276e-01 0.0000000000000000e+00  3.8786623670598701e-02 -9.2859644129233554e-01 0.0000000000000000e+00  2.7199896909823600e-02 -7.9075921737302390e-01 0.0000000000000000e+00  3.8894694710790392e-02 -9.1959837979615000e-01 0.0000000000000000e+00  2.7085885375716798e-02 -7.8121364708375551e-01 0.0000000000000000e+00  3.8994275983891949e-02 -9.1021685770369942e-01 0.0000000000000000e+00  2.6982325015812027e-02 -7.7209069244140949e-01 0.0000000000000000e+00  3.9085165250157046e-02 -9.0045408174564090e-01 0.0000000000000000e+00  2.6889186970609050e-02 -7.6339013578441972e-01 0.0000000000000000e+00  3.9167305245079942e-02 -8.9031758596227462e-01 0.0000000000000000e+00  2.6806399726331604e-02 -7.5510215397595004e-01 0.0000000000000000e+00  3.9240624654157313e-02 -8.7982406228999410e-01 0.0000000000000000e+00  2.6733802751866084e-02 -7.4720663214595351e-01 0.0000000000000000e+00  3.9305306044138441e-02 -8.6899607625645625e-01 0.0000000000000000e+00  2.6671056348092307e-02 -7.3967368122815869e-01 0.0000000000000000e+00  3.9361451419909758e-02 -8.5786821960636150e-01 0.0000000000000000e+00  2.6617948236579866e-02 -7.3245828997594808e-01 0.0000000000000000e+00  3.9409406528270151e-02 -8.4648105128454942e-01 0.0000000000000000e+00  2.6573758267356581e-02 -7.2551336746922535e-01 0.0000000000000000e+00  3.9449638612367610e-02 -8.3488102349048765e-01 0.0000000000000000e+00  2.6538310215255542e-02 -7.1877456683086616e-01 0.0000000000000000e+00  3.9482156711903631e-02 -8.2312652612891968e-01 0.0000000000000000e+00  2.6510903256379493e-02 -7.1218412135422460e-01 0.0000000000000000e+00  3.9508020924299975e-02 -8.1125842976959606e-01 0.0000000000000000e+00  2.6490848276839438e-02 -7.0568667510025107e-01 0.0000000000000000e+00  3.9526633451232855e-02 -7.9934055962846495e-01 0.0000000000000000e+00  2.6478833003259122e-02 -6.9920998658080180e-01 0.0000000000000000e+00  3.9538530532849427e-02 -7.8740932281460752e-01 0.0000000000000000e+00  2.6472725421755158e-02 -6.9274360173419203e-01 0.0000000000000000e+00  3.9544852819297427e-02 -7.7548012383559473e-01 0.0000000000000000e+00  2.6474033430523514e-02 -6.8622596157943683e-01 0.0000000000000000e+00  3.9542290357522950e-02 -7.6362984364035491e-01 0.0000000000000000e+00  2.6483236895797280e-02 -6.7962827309556928e-01 0.0000000000000000e+00  3.9534857130389706e-02 -7.5180194276387835e-01 0.0000000000000000e+00  2.6495118549365503e-02 -6.7303680257797038e-01 0.0000000000000000e+00  3.9521863492506103e-02 -7.4000794757385335e-01 0.0000000000000000e+00  2.6517289525180881e-02 -6.6631980943373792e-01 0.0000000000000000e+00  3.9495060332029694e-02 -7.2837608449206770e-01 0.0000000000000000e+00  2.6547203186351575e-02 -6.5953518633916119e-01 0.0000000000000000e+00  3.9468853788811147e-02 -7.1665318509289155e-01 0.0000000000000000e+00  2.6570578354520504e-02 -6.5295516842236767e-01 0.0000000000000000e+00  3.9440028043486716e-02 -7.0487624476060962e-01 0.0000000000000000e+00  2.6609901927777756e-02 -6.4619693240779197e-01 0.0000000000000000e+00  3.9381022487226407e-02 -6.9348429911706955e-01 0.0000000000000000e+00  2.6666360750032061e-02 -6.3925849838612081e-01 0.0000000000000000e+00  3.9327849610833361e-02 -6.8186173346228074e-01 0.0000000000000000e+00  2.6686613339018096e-02 -6.3310986480893283e-01 0.0000000000000000e+00  3.9311049435638942e-02 -6.6948873953861443e-01 0.0000000000000000e+00  2.6697609044519961e-02 -6.2728255177972891e-01 0.0000000000000000e+00  3.9239482698754505e-02 -6.5787048149716243e-01 0.0000000000000000e+00  2.6790038150711768e-02 -6.2016580322790893e-01 0.0000000000000000e+00  3.9070376931001481e-02 -6.4770922335442582e-01 0.0000000000000000e+00  2.6891955453711355e-02 -6.1305289419496656e-01 0.0000000000000000e+00  3.8998103194924374e-02 -6.3576261877936069e-01 0.0000000000000000e+00  2.6765649493778555e-02 -6.1019495781783628e-01 0.0000000000000000e+00  3.9268494559640044e-02 -6.1793884211535566e-01 0.0000000000000000e+00  2.6320178176956519e-02 -6.1324286737946121e-01 0.0000000000000000e+00  3.9847469998788548e-02 -5.9482954170549673e-01 0.0000000000000000e+00  2.5794594381691283e-02 -6.1794115685191697e-01 0.0000000000000000e+00  4.0413702369822758e-02 -5.7179012882018643e-01 0.0000000000000000e+00  2.5502242122396518e-02 -6.1861987274013297e-01 0.0000000000000000e+00  4.0695657788913042e-02 -5.5332041332871684e-01 0.0000000000000000e+00  2.5518101577156081e-02 -6.1388361220135812e-01 0.0000000000000000e+00  4.0678473654220088e-02 -5.3966561543273217e-01 0.0000000000000000e+00  2.5731418039353287e-02 -6.0573524301448844e-01 0.00000000