<?xml version="1.0"?>
<VTKFile type="UnstructuredGrid"  version="0.1"  >
<UnstructuredGrid>
<Piece  NumberOfPoints="801" NumberOfCells="800">
<Points>
<DataArray  type="Float64"  NumberOfComponents="3"  format="ascii">-5 0 0  -4.9875 0 0  -4.975 0 0  -4.9625 0 0  -4.95 0 0  -4.9375 0 0  -4.925 0 0  -4.9125 0 0  -4.9 0 0  -4.8875 0 0  -4.875 0 0  -4.8625 0 0  -4.85 0 0  -4.8375 0 0  -4.825 0 0  -4.8125 0 0  -4.8 0 0  -4.7875 0 0  -4.775 0 0  -4.7625 0 0  -4.75 0 0  -4.7375 0 0  -4.725 0 0  -4.7125 0 0  -4.7 0 0  -4.6875 0 0  -4.675 0 0  -4.6625 0 0  -4.65 0 0  -4.6375 0 0  -4.625 0 0  -4.6125 0 0  -4.6 0 0  -4.5875 0 0  -4.575 0 0  -4.5625 0 0  -4.55 0 0  -4.5375 0 0  -4.525 0 0  -4.5125 0 0  -4.5 0 0  -4.4875 0 0  -4.475 0 0  -4.4625 0 0  -4.45 0 0  -4.4375 0 0  -4.425 0 0  -4.4125 0 0  -4.4 0 0  -4.3875 0 0  -4.375 0 0  -4.3625 0 0  -4.35 0 0  -4.3375 0 0  -4.325 0 0  -4.3125 0 0  -4.3 0 0  -4.2875 0 0  -4.275 0 0  -4.2625 0 0  -4.25 0 0  -4.2375 0 0  -4.225 0 0  -4.2125 0 0  -4.2 0 0  -4.1875 0 0  -4.175 0 0  -4.1625 0 0  -4.15 0 0  -4.1375 0 0  -4.125 0 0  -4.1125 0 0  -4.1 0 0  -4.0875 0 0  -4.075 0 0  -4.0625 0 0  -4.05 0 0  -4.0375 0 0  -4.025 0 0  -4.0125 0 0  -4 0 0  -3.9875 0 0  -3.975 0 0  -3.9625 0 0  -3.95 0 0  -3.9375 0 0  -3.925 0 0  -3.9125 0 0  -3.9 0 0  -3.8875 0 0  -3.875 0 0  -3.8625 0 0  -3.85 0 0  -3.8375 0 0  -3.825 0 0  -3.8125 0 0  -3.8 0 0  -3.7875 0 0  -3.775 0 0  -3.7625 0 0  -3.75 0 0  -3.7375 0 0  -3.725 0 0  -3.7125 0 0  -3.7 0 0  -3.6875 0 0  -3.675 0 0  -3.6625 0 0  -3.65 0 0  -3.6375 0 0  -3.625 0 0  -3.6125 0 0  -3.6 0 0  -3.5875 0 0  -3.575 0 0  -3.5625 0 0  -3.55 0 0  -3.5375 0 0  -3.525 0 0  -3.5125 0 0  -3.5 0 0  -3.4875 0 0  -3.475 0 0  -3.4625 0 0  -3.45 0 0  -3.4375 0 0  -3.425 0 0  -3.4125 0 0  -3.4 0 0  -3.3875 0 0  -3.375 0 0  -3.3625 0 0  -3.35 0 0  -3.3375 0 0  -3.325 0 0  -3.3125 0 0  -3.3 0 0  -3.2875 0 0  -3.275 0 0  -3.2625 0 0  -3.25 0 0  -3.2375 0 0  -3.225 0 0  -3.2125 0 0  -3.2 0 0  -3.1875 0 0  -3.175 0 0  -3.1625 0 0  -3.15 0 0  -3.1375 0 0  -3.125 0 0  -3.1125 0 0  -3.1 0 0  -3.0875 0 0  -3.075 0 0  -3.0625 0 0  -3.05 0 0  -3.0375 0 0  -3.025 0 0  -3.0125 0 0  -3 0 0  -2.9875 0 0  -2.975 0 0  -2.9625 0 0  -2.95 0 0  -2.9375 0 0  -2.925 0 0  -2.9125 0 0  -2.9 0 0  -2.8875 0 0  -2.875 0 0  -2.8625 0 0  -2.85 0 0  -2.8375 0 0  -2.825 0 0  -2.8125 0 0  -2.8 0 0  -2.7875 0 0  -2.775 0 0  -2.7625 0 0  -2.75 0 0  -2.7375 0 0  -2.725 0 0  -2.7125 0 0  -2.7 0 0  -2.6875 0 0  -2.675 0 0  -2.6625 0 0  -2.65 0 0  -2.6375 0 0  -2.625 0 0  -2.6125 0 0  -2.6 0 0  -2.5875 0 0  -2.575 0 0  -2.5625 0 0  -2.55 0 0  -2.5375 0 0  -2.525 0 0  -2.5125 0 0  -2.5 0 0  -2.4875 0 0  -2.475 0 0  -2.4625 0 0  -2.45 0 0  -2.4375 0 0  -2.425 0 0  -2.4125 0 0  -2.4 0 0  -2.3875 0 0  -2.375 0 0  -2.3625 0 0  -2.35 0 0  -2.3375 0 0  -2.325 0 0  -2.3125 0 0  -2.3 0 0  -2.2875 0 0  -2.275 0 0  -2.2625 0 0  -2.25 0 0  -2.2375 0 0  -2.225 0 0  -2.2125 0 0  -2.2 0 0  -2.1875 0 0  -2.175 0 0  -2.1625 0 0  -2.15 0 0  -2.1375 0 0  -2.125 0 0  -2.1125 0 0  -2.1 0 0  -2.0875 0 0  -2.075 0 0  -2.0625 0 0  -2.05 0 0  -2.0375 0 0  -2.025 0 0  -2.0125 0 0  -2 0 0  -1.9875 0 0  -1.975 0 0  -1.9625 0 0  -1.95 0 0  -1.9375 0 0  -1.925 0 0  -1.9125 0 0  -1.9 0 0  -1.8875 0 0  -1.875 0 0  -1.8625 0 0  -1.85 0 0  -1.8375 0 0  -1.825 0 0  -1.8125 0 0  -1.8 0 0  -1.7875 0 0  -1.775 0 0  -1.7625 0 0  -1.75 0 0  -1.7375 0 0  -1.725 0 0  -1.7125 0 0  -1.7 0 0  -1.6875 0 0  -1.675 0 0  -1.6625 0 0  -1.65 0 0  -1.6375 0 0  -1.625 0 0  -1.6125 0 0  -1.6 0 0  -1.5875 0 0  -1.575 0 0  -1.5625 0 0  -1.55 0 0  -1.5375 0 0  -1.525 0 0  -1.5125 0 0  -1.5 0 0  -1.4875 0 0  -1.475 0 0  -1.4625 0 0  -1.45 0 0  -1.4375 0 0  -1.425 0 0  -1.4125 0 0  -1.4 0 0  -1.3875 0 0  -1.375 0 0  -1.3625 0 0  -1.35 0 0  -1.3375 0 0  -1.325 0 0  -1.3125 0 0  -1.3 0 0  -1.2875 0 0  -1.275 0 0  -1.2625 0 0  -1.25 0 0  -1.2375 0 0  -1.225 0 0  -1.2125 0 0  -1.2 0 0  -1.1875 0 0  -1.175 0 0  -1.1625 0 0  -1.15 0 0  -1.1375 0 0  -1.125 0 0  -1.1125 0 0  -1.1 0 0  -1.0875 0 0  -1.075 0 0  -1.0625 0 0  -1.05 0 0  -1.0375 0 0  -1.025 0 0  -1.0125 0 0  -1 0 0  -0.9874999999999998 0 0  -0.9749999999999996 0 0  -0.9625000000000004 0 0  -0.9500000000000002 0 0  -0.9375 0 0  -0.9249999999999998 0 0  -0.9124999999999996 0 0  -0.9000000000000004 0 0  -0.8875000000000002 0 0  -0.875 0 0  -0.8624999999999998 0 0  -0.8499999999999996 0 0  -0.8375000000000004 0 0  -0.8250000000000002 0 0  -0.8125 0 0  -0.7999999999999998 0 0  -0.7874999999999996 0 0  -0.7750000000000004 0 0  -0.7625000000000002 0 0  -0.75 0 0  -0.7374999999999998 0 0  -0.7249999999999996 0 0  -0.7125000000000004 0 0  -0.7000000000000002 0 0  -0.6875 0 0  -0.6749999999999998 0 0  -0.6624999999999996 0 0  -0.6500000000000004 0 0  -0.6375000000000002 0 0  -0.625 0 0  -0.6124999999999998 0 0  -0.5999999999999996 0 0  -0.5875000000000004 0 0  -0.5750000000000002 0 0  -0.5625 0 0  -0.5499999999999998 0 0  -0.5374999999999996 0 0  -0.5250000000000004 0 0  -0.5125000000000002 0 0  -0.5 0 0  -0.4874999999999998 0 0  -0.4749999999999996 0 0  -0.4625000000000004 0 0  -0.4500000000000002 0 0  -0.4375 0 0  -0.4249999999999998 0 0  -0.4124999999999996 0 0  -0.4000000000000004 0 0  -0.3875000000000002 0 0  -0.375 0 0  -0.3624999999999998 0 0  -0.3499999999999996 0 0  -0.3375000000000004 0 0  -0.3250000000000002 0 0  -0.3125 0 0  -0.2999999999999998 0 0  -0.2874999999999996 0 0  -0.2750000000000004 0 0  -0.2625000000000002 0 0  -0.25 0 0  -0.2374999999999998 0 0  -0.2249999999999996 0 0  -0.2125000000000004 0 0  -0.2000000000000002 0 0  -0.1875 0 0  -0.1749999999999998 0 0  -0.1624999999999996 0 0  -0.1500000000000004 0 0  -0.1375000000000002 0 0  -0.125 0 0  -0.1124999999999998 0 0  -0.09999999999999964 0 0  -0.08750000000000036 0 0  -0.07500000000000018 0 0  -0.0625 0 0  -0.04999999999999982 0 0  -0.03749999999999964 0 0  -0.02500000000000036 0 0  -0.01250000000000018 0 0  0 0 0  0.01250000000000018 0 0  0.02500000000000036 0 0  0.03749999999999964 0 0  0.04999999999999982 0 0  0.0625 0 0  0.07500000000000018 0 0  0.08750000000000036 0 0  0.09999999999999964 0 0  0.1124999999999998 0 0  0.125 0 0  0.1375000000000002 0 0  0.1500000000000004 0 0  0.1624999999999996 0 0  0.1749999999999998 0 0  0.1875 0 0  0.2000000000000002 0 0  0.2125000000000004 0 0  0.2249999999999996 0 0  0.2374999999999998 0 0  0.25 0 0  0.2625000000000002 0 0  0.2750000000000004 0 0  0.2874999999999996 0 0  0.2999999999999998 0 0  0.3125 0 0  0.3250000000000002 0 0  0.3375000000000004 0 0  0.3499999999999996 0 0  0.3624999999999998 0 0  0.375 0 0  0.3875000000000002 0 0  0.4000000000000004 0 0  0.4124999999999996 0 0  0.4249999999999998 0 0  0.4375 0 0  0.4500000000000002 0 0  0.4625000000000004 0 0  0.4749999999999996 0 0  0.4874999999999998 0 0  0.5 0 0  0.5125000000000002 0 0  0.5250000000000004 0 0  0.5374999999999996 0 0  0.5499999999999998 0 0  0.5625 0 0  0.5750000000000002 0 0  0.5875000000000004 0 0  0.5999999999999996 0 0  0.6124999999999998 0 0  0.625 0 0  0.6375000000000002 0 0  0.6500000000000004 0 0  0.6624999999999996 0 0  0.6749999999999998 0 0  0.6875 0 0  0.7000000000000002 0 0  0.7125000000000004 0 0  0.7249999999999996 0 0  0.7374999999999998 0 0  0.75 0 0  0.7625000000000002 0 0  0.7750000000000004 0 0  0.7874999999999996 0 0  0.7999999999999998 0 0  0.8125 0 0  0.8250000000000002 0 0  0.8375000000000004 0 0  0.8499999999999996 0 0  0.8624999999999998 0 0  0.875 0 0  0.8875000000000002 0 0  0.9000000000000004 0 0  0.9124999999999996 0 0  0.9249999999999998 0 0  0.9375 0 0  0.9500000000000002 0 0  0.9625000000000004 0 0  0.9749999999999996 0 0  0.9874999999999998 0 0  1 0 0  1.0125 0 0  1.025 0 0  1.0375 0 0  1.05 0 0  1.0625 0 0  1.075 0 0  1.0875 0 0  1.1 0 0  1.1125 0 0  1.125 0 0  1.1375 0 0  1.15 0 0  1.1625 0 0  1.175 0 0  1.1875 0 0  1.2 0 0  1.2125 0 0  1.225 0 0  1.2375 0 0  1.25 0 0  1.2625 0 0  1.275 0 0  1.2875 0 0  1.3 0 0  1.3125 0 0  1.325 0 0  1.3375 0 0  1.35 0 0  1.3625 0 0  1.375 0 0  1.3875 0 0  1.4 0 0  1.4125 0 0  1.425 0 0  1.4375 0 0  1.45 0 0  1.4625 0 0  1.475 0 0  1.4875 0 0  1.5 0 0  1.5125 0 0  1.525 0 0  1.5375 0 0  1.55 0 0  1.5625 0 0  1.575 0 0  1.5875 0 0  1.6 0 0  1.6125 0 0  1.625 0 0  1.6375 0 0  1.65 0 0  1.6625 0 0  1.675 0 0  1.6875 0 0  1.7 0 0  1.7125 0 0  1.725 0 0  1.7375 0 0  1.75 0 0  1.7625 0 0  1.775 0 0  1.7875 0 0  1.8 0 0  1.8125 0 0  1.825 0 0  1.8375 0 0  1.85 0 0  1.8625 0 0  1.875 0 0  1.8875 0 0  1.9 0 0  1.9125 0 0  1.925 0 0  1.9375 0 0  1.95 0 0  1.9625 0 0  1.975 0 0  1.9875 0 0  2 0 0  2.0125 0 0  2.025 0 0  2.0375 0 0  2.05 0 0  2.0625 0 0  2.075 0 0  2.0875 0 0  2.1 0 0  2.1125 0 0  2.125 0 0  2.1375 0 0  2.15 0 0  2.1625 0 0  2.175 0 0  2.1875 0 0  2.2 0 0  2.2125 0 0  2.225 0 0  2.2375 0 0  2.25 0 0  2.2625 0 0  2.275 0 0  2.2875 0 0  2.3 0 0  2.3125 0 0  2.325 0 0  2.3375 0 0  2.35 0 0  2.3625 0 0  2.375 0 0  2.3875 0 0  2.4 0 0  2.4125 0 0  2.425 0 0  2.4375 0 0  2.45 0 0  2.4625 0 0  2.475 0 0  2.4875 0 0  2.5 0 0  2.5125 0 0  2.525 0 0  2.5375 0 0  2.55 0 0  2.5625 0 0  2.575 0 0  2.5875 0 0  2.6 0 0  2.6125 0 0  2.625 0 0  2.6375 0 0  2.65 0 0  2.6625 0 0  2.675 0 0  2.6875 0 0  2.7 0 0  2.7125 0 0  2.725 0 0  2.7375 0 0  2.75 0 0  2.7625 0 0  2.775 0 0  2.7875 0 0  2.8 0 0  2.8125 0 0  2.825 0 0  2.8375 0 0  2.85 0 0  2.8625 0 0  2.875 0 0  2.8875 0 0  2.9 0 0  2.9125 0 0  2.925 0 0  2.9375 0 0  2.95 0 0  2.9625 0 0  2.975 0 0  2.9875 0 0  3 0 0  3.012499999999999 0 0  3.025 0 0  3.0375 0 0  3.050000000000001 0 0  3.0625 0 0  3.074999999999999 0 0  3.0875 0 0  3.1 0 0  3.112500000000001 0 0  3.125 0 0  3.137499999999999 0 0  3.15 0 0  3.1625 0 0  3.175000000000001 0 0  3.1875 0 0  3.199999999999999 0 0  3.2125 0 0  3.225 0 0  3.237500000000001 0 0  3.25 0 0  3.262499999999999 0 0  3.275 0 0  3.2875 0 0  3.300000000000001 0 0  3.3125 0 0  3.324999999999999 0 0  3.3375 0 0  3.35 0 0  3.362500000000001 0 0  3.375 0 0  3.387499999999999 0 0  3.4 0 0  3.4125 0 0  3.425000000000001 0 0  3.4375 0 0  3.449999999999999 0 0  3.4625 0 0  3.475 0 0  3.4875
[...]
<PointData  Vectors="(h, u)"> 
<DataArray  type="Float64"  Name="(h, u)"  NumberOfComponents="3" format="ascii">5.5000000000000014e-02 0.0000000000000000e+00 0.0000000000000000e+00  5.5000000000000007e-02 1.9029105448489470e-16 0.0000000000000000e+00  5.5000000000000042e-02 -8.3732878455697437e-17 0.0000000000000000e+00  5.4999999999999966e-02 -5.0149944098447244e-16 0.0000000000000000e+00  5.5000000000000021e-02 8.0090090486619735e-16 0.0000000000000000e+00  5.5000000000000007e-02 -7.4649550793237725e-17 0.0000000000000000e+00  5.5000000000000021e-02 -4.9945884831652650e-16 0.0000000000000000e+00  5.5000000000000007e-02 2.7575419523466120e-17 0.0000000000000000e+00  5.5000000000000021e-02 -1.3860748020387047e-15 0.0000000000000000e+00  5.5000000000000000e-02 2.2369806932232585e-16 0.0000000000000000e+00  5.5000000000000035e-02 -9.9112435075246447e-16 0.0000000000000000e+00  5.5000000000000028e-02 -3.6102994661416777e-17 0.0000000000000000e+00  5.5000000000000028e-02 -1.1941913055471409e-15 0.0000000000000000e+00  5.5000000000000035e-02 3.2903315414597107e-16 0.0000000000000000e+00  5.5000000000000035e-02 3.1998593317782020e-16 0.0000000000000000e+00  5.5000000000000028e-02 3.6775814517685919e-16 0.0000000000000000e+00  5.5000000000000028e-02 -1.6554262014484225e-16 0.0000000000000000e+00  5.5000000000000021e-02 1.0512578919362159e-15 0.0000000000000000e+00  5.5000000000000014e-02 4.6044582648499060e-16 0.0000000000000000e+00  5.5000000000000014e-02 1.2022125789357247e-15 0.0000000000000000e+00  5.5000000000000007e-02 1.7940806445354002e-16 0.0000000000000000e+00  5.5000000000000007e-02 2.6868474314577932e-18 0.0000000000000000e+00  5.5000000000000007e-02 -1.5262292250374469e-16 0.0000000000000000e+00  5.5000000000000007e-02 -2.4425499875936448e-16 0.0000000000000000e+00  5.5000000000000007e-02 2.6008831016444280e-16 0.0000000000000000e+00  5.5000000000000000e-02 5.3129324876174277e-17 0.0000000000000000e+00  5.5000000000000007e-02 -5.2030932363934992e-16 0.0000000000000000e+00  5.5000000000000007e-02 4.5971174928030850e-16 0.0000000000000000e+00  5.4999999999999993e-02 1.4807204927406466e-16 0.0000000000000000e+00  5.5000000000000007e-02 -1.0673014083757294e-16 0.0000000000000000e+00  5.5000000000000028e-02 3.5491122659063641e-16 0.0000000000000000e+00  5.5000000000000035e-02 -4.2892584979360150e-16 0.0000000000000000e+00  5.5000000000000007e-02 4.5010439145019708e-16 0.0000000000000000e+00  5.5000000000000077e-02 -7.6475376506182388e-16 0.0000000000000000e+00  5.5000000000000028e-02 -1.0505626631638334e-17 0.0000000000000000e+00  5.4999999999999993e-02 -9.1097102595749067e-16 0.0000000000000000e+00  5.5000000000000000e-02 4.4603626525497082e-16 0.0000000000000000e+00  5.5000000000000007e-02 -2.3062067713053681e-16 0.0000000000000000e+00  5.5000000000000007e-02 9.8346948027509027e-16 0.0000000000000000e+00  5.5000000000000007e-02 6.5628542283436559e-16 0.0000000000000000e+00  5.5000000000000028e-02 1.1133945593571126e-15 0.0000000000000000e+00  5.4999999999999993e-02 8.2772650296810235e-16 0.0000000000000000e+00  5.5000000000000014e-02 -3.9028985716086037e-16 0.0000000000000000e+00  5.4999999999999993e-02 -3.1988265116630718e-16 0.0000000000000000e+00  5.5000000000000035e-02 -3.2196758091923326e-16 0.0000000000000000e+00  5.5000000000000000e-02 4.6840111802037009e-17 0.0000000000000000e+00  5.5000000000000014e-02 -1.5053463655285838e-18 0.0000000000000000e+00  5.4999999999999993e-02 1.8169849957792745e-18 0.0000000000000000e+00  5.5000000000000014e-02 -4.6072770067375142e-16 0.0000000000000000e+00  5.5000000000000000e-02 -6.1973964891582621e-16 0.0000000000000000e+00  5.5000000000000028e-02 -5.7926318918638137e-16 0.0000000000000000e+00  5.5000000000000007e-02 2.7720665074995166e-16 0.0000000000000000e+00  5.5000000000000035e-02 -8.3336392709742266e-16 0.0000000000000000e+00  5.5000000000000014e-02 1.7929269501241286e-17 0.0000000000000000e+00  5.5000000000000035e-02 -5.4823500720454213e-16 0.0000000000000000e+00  5.5000000000000021e-02 5.2009916066733773e-16 0.0000000000000000e+00  5.5000000000000028e-02 2.8504299201103717e-19 0.0000000000000000e+00  5.5000000000000007e-02 3.1583410980754509e-17 0.0000000000000000e+00  5.5000000000000028e-02 -8.5941325001199877e-16 0.0000000000000000e+00  5.5000000000000021e-02 -3.3305516614262512e-17 0.0000000000000000e+00  5.5000000000000021e-02 -9.1486521668094375e-16 0.0000000000000000e+00  5.5000000000000028e-02 1.9685178938763539e-16 0.0000000000000000e+00  5.5000000000000014e-02 -1.9315430582281634e-16 0.0000000000000000e+00  5.5000000000000021e-02 3.6479372610021629e-16 0.0000000000000000e+00  5.5000000000000007e-02 -4.2456570386690711e-16 0.0000000000000000e+00  5.5000000000000028e-02 -1.7375948388078540e-16 0.0000000000000000e+00  5.5000000000000014e-02 4.5435519891627524e-16 0.0000000000000000e+00  5.5000000000000028e-02 5.2960567444024363e-17 0.0000000000000000e+00  5.5000000000000028e-02 5.7334338122157650e-16 0.0000000000000000e+00  5.5000000000000000e-02 4.3380881900936924e-17 0.0000000000000000e+00  5.5000000000000014e-02 2.5377166885800677e-16 0.0000000000000000e+00  5.5000000000000035e-02 -2.2204402711037251e-17 0.0000000000000000e+00  5.5000000000000021e-02 4.4019362765282622e-17 0.0000000000000000e+00  5.5000000000000007e-02 -1.0663825815494239e-16 0.0000000000000000e+00  5.5000000000000028e-02 8.1998817519432816e-17 0.0000000000000000e+00  5.5000000000000028e-02 -1.6037507303978064e-16 0.0000000000000000e+00  5.5000000000000042e-02 6.4637680786449056e-16 0.0000000000000000e+00  5.5000000000000028e-02 3.7513201084919291e-16 0.0000000000000000e+00  5.5000000000000028e-02 3.5734601629923982e-16 0.0000000000000000e+00  5.5000000000000035e-02 -3.3782941400279948e-17 0.0000000000000000e+00  5.5000000000000021e-02 3.6828823403511867e-17 0.0000000000000000e+00  5.4999999999999966e-02 -4.5594190106801681e-16 0.0000000000000000e+00  5.5000000000000007e-02 5.5691541625799828e-16 0.0000000000000000e+00  5.5000000000000035e-02 3.4581882305084725e-16 0.0000000000000000e+00  5.5000000000000000e-02 4.2282203971581682e-16 0.0000000000000000e+00  5.5000000000000035e-02 -7.8534143788589063e-16 0.0000000000000000e+00  5.5000000000000028e-02 7.5713464663558620e-17 0.0000000000000000e+00  5.5000000000000014e-02 -2.8950308307018630e-16 0.0000000000000000e+00  5.5000000000000028e-02 6.1391617486663293e-16 0.0000000000000000e+00  5.5000000000000007e-02 5.9584594029392568e-16 0.0000000000000000e+00  5.5000000000000021e-02 1.1788223472967393e-16 0.0000000000000000e+00  5.5000000000000007e-02 -1.1944056292066589e-16 0.0000000000000000e+00  5.5000000000000021e-02 -8.0145899436569637e-17 0.0000000000000000e+00  5.5000000000000007e-02 -9.2741562631752535e-17 0.0000000000000000e+00  5.5000000000000021e-02 -2.2346164077533498e-16 0.0000000000000000e+00  5.5000000000000007e-02 6.7976776954848363e-16 0.0000000000000000e+00  5.5000000000000007e-02 4.9875178871066596e-16 0.0000000000000000e+00  5.5000000000000000e-02 5.9697722066418696e-16 0.0000000000000000e+00  5.5000000000000007e-02 2.6682745200070879e-16 0.0000000000000000e+00  5.4999999999999993e-02 6.3909308758144075e-16 0.0000000000000000e+00  5.5000000000000014e-02 -8.8065366505120955e-16 0.0000000000000000e+00  5.5000000000000000e-02 3.2490012665240100e-16 0.0000000000000000e+00  5.5000000000000007e-02 -4.9876333867888491e-16 0.0000000000000000e+00  5.5000000000000000e-02 2.0922580971614148e-16 0.0000000000000000e+00  5.5000000000000014e-02 -6.3519785929840243e-16 0.0000000000000000e+00  5.5000000000000035e-02 3.7973934470051542e-16 0.0000000000000000e+00  5.5000000000000021e-02 -4.5951431688055640e-16 0.0000000000000000e+00  5.5000000000000028e-02 -1.4809155609783220e-16 0.0000000000000000e+00  5.5000000000000014e-02 -1.1353809626398802e-15 0.0000000000000000e+00  5.5000000000000035e-02 3.2783735829198949e-17 0.0000000000000000e+00  5.5000000000000014e-02 1.5658672111061360e-16 0.0000000000000000e+00  5.5000000000000021e-02 7.1114592807289443e-16 0.0000000000000000e+00  5.5000000000000007e-02 2.4647624973337882e-16 0.0000000000000000e+00  5.5000000000000014e-02 6.4372234367615730e-16 0.0000000000000000e+00  5.5000000000000007e-02 2.2924809677480572e-16 0.0000000000000000e+00  5.5000000000000021e-02 -6.4593914696839882e-16 0.0000000000000000e+00  5.5000000000000014e-02 1.2814931252104878e-16 0.0000000000000000e+00  5.5000000000000021e-02 1.7256745466957309e-16 0.0000000000000000e+00  5.4999999999999973e-02 3.9632396009824826e-16 0.0000000000000000e+00  5.5000000000000014e-02 -6.5460802292192419e-16 0.0000000000000000e+00  5.5000000000000007e-02 4.2413765398568758e-16 0.0000000000000000e+00  5.5000000000000007e-02 -4.9935364267733224e-16 0.0000000000000000e+00  5.5000000000000014e-02 9.9310735415731715e-17 0.0000000000000000e+00  5.5000000000000007e-02 4.4821348058533509e-16 0.0000000000000000e+00  5.5000000000000007e-02 1.6656102133430461e-16 0.0000000000000000e+00  5.5000000000000007e-02 -1.9756130412520697e-17 0.0000000000000000e+00  5.5000000000000007e-02 2.3934652494456351e-16 0.0000000000000000e+00  5.5000000000000000e-02 -4.4230527525774772e-16 0.0000000000000000e+00  5.5000000000000007e-02 2.4663811483421905e-16 0.0000000000000000e+00  5.4999999999999993e-02 -3.9499205640180891e-17 0.0000000000000000e+00  5.5000000000000007e-02 -6.1418276767428062e-16 0.0000000000000000e+00  5.5000000000000007e-02 1.1530594129825131e-17 0.0000000000000000e+00  5.5000000000000014e-02 -2.4579189259930181e-16 0.0000000000000000e+00  5.5000000000000007e-02 4.9976394206836878e-16 0.0000000000000000e+00  5.5000000000000007e-02 -2.4711458221344751e-16 0.0000000000000000e+00  5.5000000000000007e-02 3.4152046818252777e-16 0.0000000000000000e+00  5.5000000000000007e-02 -3.5620565786491090e-16 0.0000000000000000e+00  5.5000000000000007e-02 -2.6229067251573675e-17 0.0000000000000000e+00  5.5000000000000007e-02 5.7517976512186565e-16 0.0000000000000000e+00  5.5000000000000000e-02 -1.6912555677377289e-16 0.0000000000000000e+00  5.5000000000000007e-02 -4.2582547096641303e-17 0.0000000000000000e+00  5.5000000000000007e-02 -3.5827474730489141e-16 0.0000000000000000e+00  5.5000000000000007e-02 -9.8691566773003227e-17 0.0000000000000000e+00  5.5000000000000007e-02 6.8778740100164376e-16 0.0000000000000000e+00  5.5000000000000000e-02 -1.9615139235722467e-16 0.0000000000000000e+00  5.5000000000000007e-02 -4.3134839473797071e-17 0.0000000000000000e+00  5.5000000000000007e-02 -2.8022653204320403e-16 0.0000000000000000e+00  5.5000000000000000e-02 -9.4149927139408303e-17 0.0000000000000000e+00  5.5000000000000007e-02 5.9912648918725956e-16 0.0000000000000000e+00  5.5000000000000000e-02 -1.8086743918104820e-16 0.0000000000000000e+00  5.5000000000000007e-02 -3.1360579629763917e-17 0.0000000000000000e+00  5.5000000000000007e-02 -3.5741446816148379e-16 0.0000000000000000e+00  5.5000000000000007e-02 -9.5793629601323429e-17 0.0000000000000000e+00  5.5000000000000007e-02 6.8077794626045504e-16 0.0000000000000000e+00  5.5000000000000000e-02 -2.0160508338123571e-16 0.0000000000000000e+00  5.5000000000000007e-02 -2.3704615843061917e-17 0.0000000000000000e+00  5.5000000000000007e-02 -3.6065119875381097e-16 0.0000000000000000e+00  5.5000000000000007e-02 -9.4397779148273902e-17 0.0000000000000000e+00  5.5000000000000007e-02 6.8018070645433757e-16 0.0000000000000000e+00  5.5000000000000000e-02 -2.0135232475394598e-16 0.0000000000000000e+00  5.5000000000000007e-02 -2.3810567820941599e-17 0.0000000000000000e+00  5.5000000000000007e-02 -3.6060714259559380e-16 0.0000000000000000e+00  5.5000000000000007e-02 -9.4415970408352800e-17 0.0000000000000000e+00  5.5000000000000007e-02 6.8018817113214443e-16 0.0000000000000000e+00  5.5000000000000000e-02 -2.0135537066522858e-16 0.0000000000000000e+00  5.5000000000000007e-02 -2.3809331257381488e-17 0.0000000000000000e+00  5.5000000000000007e-02 -3.6060764232244224e-16 0.0000000000000000e+00  5.5000000000000007e-02 -9.4415769272112359e-17 0.0000000000000000e+00  5.5000000000000007e-02 6.8018809046023483e-16 0.0000000000000000e+00  5.5000000000000000e-02 -2.0135533840435390e-16 0.0000000000000000e+00  5.5000000000000007e-02 -2.3809344128225093e-17 0.0000000000000000e+00  5.5000000000000007e-02 -3.6060763719758557e-16 0.0000000000000000e+00  5.5000000000000007e-02 -9.4415771305623111e-17 0.0000000000000000e+00  5.5000000000000007e-02 6.8018809125192577e-16 0.0000000000000000e+00  5.5000000000000000e-02 -2.0135533867035701e-16 0.0000000000000000e+00  5.5000000000000007e-02 -2.3809344158846368e-17 0.0000000000000000e+00  5.5000000000000007e-02 -3.6060763680870905e-16 0.0000000000000000e+00  5.5000000000000007e-02 -9.4415772493946884e-17 0.0000000000000000e+00  5.5000000000000007e-02 6.8018809454777263e-16 0.0000000000000000e+00  5.5000000000000000e-02 -2.0135534766016194e-16 0.0000000000000000e+00  5.5000000000000007e-02 -2.3809319782419280e-17 0.0000000000000000e+00  5.5000000000000007e-02 -3.6060770261699628e-16 0.0000000000000000e+00  5.5000000000000007e-02 -9.4415595589656338e-17 0.0000000000000000e+00  5.5000000000000007e-02 6.8018762107242125e-16 0.0000000000000000e+00  5.5000000000000000e-02 -2.0135408618373727e-16 0.0000000000000000e+00  5.5000000000000007e-02 -2.3812664642439692e-17 0.0000000000000000e+00  5.5000000000000007e-02 -3.6059887884930510e-16 0.0000000000000000e+00  5.5000000000000007e-02 -9.4438744156534455e-17 0.0000000000000000e+00  5.5000000000000007e-02 6.8024798224847804e-16 0.0000000000000000e+00  5.5000000000000000e-02 -2.0151044074617087e-16 0.0000000000000000e+00  5.5000000000000007e-02 -2.3410419479195059e-17 0.0000000000000000e+00  5.5000000000000007e-02 -3.6162818200291099e-16 0.0000000000000000e+00  5.5000000000000007e-02 -9.1799859641485702e-17 0.0000000000000000e+00  5.5000000000000007e-02 6.7330703990236183e-16 0.0000000000000000e+00  5.5000000000000000e-02 -1.8161798878405695e-16 0.0000000000000000e+00  5.5000000000000007e-02 -9.2210923654792173e-17 0.0000000000000000e+00  5.5000000000000014e-02 -2.6459560672312756e-16 0.0000000000000000e+00  5.4999999999999986e-02 3.8811885296568993e-17 0.0000000000000000e+00  5.4999999999999993e-02 1.5845116511435737e-16 0.0000000000000000e+00  5.5000000000000104e-02 7.8843607676756243e-16 0.0000000000000000e+00  5.4999999999999764e-02 -3.3738130037333171e-15 0.0000000000000000e+00  5.5000000000000888e-02 1.1644361513464840e-14 0.0000000000000000e+00  5.4999999999996878e-02 -4.1124060408033596e-14 0.0000000000000000e+00  5.5000000000010776e-02 1.4357251873231589e-13 0.0000000000000000e+00  5.4999999999963287e-02 -4.9087734904877169e-13 0.0000000000000000e+00  5.5000000000123464e-02 1.6496445750414215e-12 0.0000000000000000e+00  5.4999999999590723e-02 -5.4688616916159279e-12 0.0000000000000000e+00  5.5000000001340664e-02 1.7910223775057715e-11 0.0000000000000000e+00  5.4999999995657252e-02 -5.7985720381773770e-11 0.0000000000000000e+00  5.5000000013920164e-02 1.8567950308993865e-10 0.0000000000000000e+00  5.4999999955825711e-02 -5.8815165890092888e-10 0.0000000000000000e+00  5.5000000138832106e-02 1.8424545824337150e-09 0.0000000000000000e+00  5.4999999567761082e-02 -5.7044479054991453e-09 0.0000000000000000e+00  5.5000001333517630e-02 1.7435662661466865e-08 0.0000000000000000e+00  5.4999995921547883e-02 -5.2510494714425946e-08 0.0000000000000000e+00  5.5000012374130852e-02 1.5535300514820122e-07 0.0000000000000000e+00  5.4999962711873449e-02 -4.4931052754439855e-07 0.0000000000000000e+00  5.5000111818037004e-02 1.2601598142126092e-06 0.0000000000000000e+00  5.4999665294571592e-02 -3.3790627038311675e-06 0.0000000000000000e+00  5.5001004460513599e-02 8.4254938689842686e-06 0.0000000000000000e+00  5.4996960641344274e-02 -1.8297271265164412e-05 0.0000000000000000e+00  5.5009329429549218e-02 2.7373863035122202e-05 0.0000000000000000e+00  5.4970822308251191e-02 2.2811229217834874e-05 0.0000000000000000e+00  5.5092931024811873e-02 -4.5454919635040723e-04 0.0000000000000000e+00  5.4701888463345519e-02 2.7065954606548511e-03 0.0000000000000000e+00  5.5944190453954275e-02 -1.2464325420923839e-02 0.0000000000000000e+00  5.2284874008739074e-02 4.8080274359826355e-02 0.0000000000000000e+00  6.2432847835082100e-02 -1.8176369764222514e-01 0.0000000000000000e+00  2.4425349328543772e-01 -2.6826430566056727e+00 0.0000000000000000e+00  3.8283673220582648e-01 -3.4066126804206482e+00 0.0000000000000000e+00  3.8530766156253443e-01 -3.4500726604038197e+00 0.0000000000000000e+00  4.0459609225011028e-01 -3.5465904247602738e+00 0.0000000000000000e+00  3.9810197482193027e-01 -3.5203966240095674e+00 0.0000000000000000e+00  3.9591851751469109e-01 -3.5148854473786093e+00 0.0000000000000000e+00  3.9412583132197337e-01 -3.5113231371814764e+00 0.0000000000000000e+00  3.8904447023037364e-01 -3.4914081056584134e+00 0.0000000000000000e+00  3.8679572830437858e-01 -3.4855944625754649e+00 0.0000000000000000e+00  3.8279188991470264e-01 -3.4709890589029508e+00 0.0000000000000000e+00  3.7950957825529802e-01 -3.4599395302748457e+00 0.0000000000000000e+00  3.7614976314940107e-01 -3.4485145231677832e+00 0.0000000000000000e+00  3.7262526553086656e-01 -3.4361887464653837e+00 0.0000000000000000e+00  3.6931391565124583e-01 -3.4249415047478569e+00 0.0000000000000000e+00  3.6587209878436816e-01 -3.4129874645971769e+00 0.0000000000000000e+00  3.6250753667298247e-01 -3.4013980506382770e+00 0.0000000000000000e+00  3.5913630951447079e-01 -3.3897541989548015e+00 0.0000000000000000e+00  3.5577008976653024e-01 -3.3780881481661851e+00 0.0000000000000000e+00  3.5242549824335345e-01 -3.3665245869273863e+00 0.0000000000000000e+00  3.4908491038493777e-01 -3.3549267299050505e+00 0.0000000000000000e+00  3.4575821312029864e-01 -3.3433924905864201e+00 0.0000000000000000e+00  3.4244430414919069e-01 -3.3318726659685809e+00 0.0000000000000000e+00  3.3913990516635545e-01 -3.3203849561450913e+00 0.0000000000000000e+00  3.3585009524048642e-01 -3.3089325518668504e+00 0.0000000000000000e+00  3.3257115850786312e-01 -3.2975040349341835e+00 0.0000000000000000e+00  3.2930543010396962e-01 -3.2861182115933425e+00 0.0000000000000000e+00  3.2605290215658933e-01 -3.2747533519696330e+00 0.0000000000000000e+00  3.2281262706639341e-01 -3.2634358922288138e+00 0.0000000000000000e+00  3.1958679629148179e-01 -3.2521388031851250e+00 0.0000000000000000e+00  3.1637358657820674e-01 -3.2408893841438773e+00 0.0000000000000000e+00  3.1317482089006987e-01 -3.2296648007335516e+00 0.0000000000000000e+00  3.0999011522591324e-01 -3.2184822956868078e+00 0.0000000000000000e+00  3.0681918433352157e-01 -3.2073330297237606e+00 0.0000000000000000e+00  3.0366403710039619e-01 -3.1962177807689454e+00 0.0000000000000000e+00  3.0052228466634701e-01 -3.1851429428127482e+00 0.0000000000000000e+00  2.9739738134361865e-01 -3.1740970935612478e+00 0.0000000000000000e+00  2.9428658554387715e-01 -3.1630926976331710e+00 0.0000000000000000e+00  2.9119261918444950e-01 -3.1521180538618556e+00 0.0000000000000000e+00  2.8811455683040677e-01 -3.1411794945361775e+00 0.0000000000000000e+00  2.8505275798269625e-01 -3.1302743899407592e+00 0.0000000000000000e+00  2.8200885399045378e-01 -3.1193984660498049e+00 0.0000000000000000e+00  2.7898121127699588e-01 -3.1085563433483268e+00 0.0000000000000000e+00  2.7597269762013765e-01 -3.0977403233090537e+00 0.0000000000000000e+00  2.7298162894174699e-01 -3.0869515025432372e+00 0.0000000000000000e+00  2.7001016847015386e-01 -3.0761893742923934e+00 0.0000000000000000e+00  2.6705801683798858e-01 -3.0654439093808223e+00 0.0000000000000000e+00  2.6412617257427445e-01 -3.0547234083079946e+00 0.0000000000000000e+00  2.6121522462857832e-01 -3.0440108541177584e+00 0.0000000000000000e+00  2.5832625933557740e-01 -3.0333144397731995e+00 0.0000000000000000e+00  2.5545941046580001e-01 -3.0226196155398726e+00 0.0000000000000000e+00  2.5261681482145393e-01 -3.0119271318345944e+00 0.0000000000000000e+00  2.4979806723214068e-01 -3.0012267192085096e+00 0.0000000000000000e+00  2.4700573600564368e-01 -2.9905140879682777e+00 0.0000000000000000e+00  2.4424001223207362e-01 -2.9797773391819260e