<?xml version="1.0"?>
<VTKFile type="UnstructuredGrid"  version="0.1"  >
<UnstructuredGrid>
<Piece  NumberOfPoints="801" NumberOfCells="800">
<Points>
<DataArray  type="Float64"  NumberOfComponents="3"  format="ascii">-5 0 0  -4.9875 0 0  -4.975 0 0  -4.9625 0 0  -4.95 0 0  -4.9375 0 0  -4.925 0 0  -4.9125 0 0  -4.9 0 0  -4.8875 0 0  -4.875 0 0  -4.8625 0 0  -4.85 0 0  -4.8375 0 0  -4.825 0 0  -4.8125 0 0  -4.8 0 0  -4.7875 0 0  -4.775 0 0  -4.7625 0 0  -4.75 0 0  -4.7375 0 0  -4.725 0 0  -4.7125 0 0  -4.7 0 0  -4.6875 0 0  -4.675 0 0  -4.6625 0 0  -4.65 0 0  -4.6375 0 0  -4.625 0 0  -4.6125 0 0  -4.6 0 0  -4.5875 0 0  -4.575 0 0  -4.5625 0 0  -4.55 0 0  -4.5375 0 0  -4.525 0 0  -4.5125 0 0  -4.5 0 0  -4.4875 0 0  -4.475 0 0  -4.4625 0 0  -4.45 0 0  -4.4375 0 0  -4.425 0 0  -4.4125 0 0  -4.4 0 0  -4.3875 0 0  -4.375 0 0  -4.3625 0 0  -4.35 0 0  -4.3375 0 0  -4.325 0 0  -4.3125 0 0  -4.3 0 0  -4.2875 0 0  -4.275 0 0  -4.2625 0 0  -4.25 0 0  -4.2375 0 0  -4.225 0 0  -4.2125 0 0  -4.2 0 0  -4.1875 0 0  -4.175 0 0  -4.1625 0 0  -4.15 0 0  -4.1375 0 0  -4.125 0 0  -4.1125 0 0  -4.1 0 0  -4.0875 0 0  -4.075 0 0  -4.0625 0 0  -4.05 0 0  -4.0375 0 0  -4.025 0 0  -4.0125 0 0  -4 0 0  -3.9875 0 0  -3.975 0 0  -3.9625 0 0  -3.95 0 0  -3.9375 0 0  -3.925 0 0  -3.9125 0 0  -3.9 0 0  -3.8875 0 0  -3.875 0 0  -3.8625 0 0  -3.85 0 0  -3.8375 0 0  -3.825 0 0  -3.8125 0 0  -3.8 0 0  -3.7875 0 0  -3.775 0 0  -3.7625 0 0  -3.75 0 0  -3.7375 0 0  -3.725 0 0  -3.7125 0 0  -3.7 0 0  -3.6875 0 0  -3.675 0 0  -3.6625 0 0  -3.65 0 0  -3.6375 0 0  -3.625 0 0  -3.6125 0 0  -3.6 0 0  -3.5875 0 0  -3.575 0 0  -3.5625 0 0  -3.55 0 0  -3.5375 0 0  -3.525 0 0  -3.5125 0 0  -3.5 0 0  -3.4875 0 0  -3.475 0 0  -3.4625 0 0  -3.45 0 0  -3.4375 0 0  -3.425 0 0  -3.4125 0 0  -3.4 0 0  -3.3875 0 0  -3.375 0 0  -3.3625 0 0  -3.35 0 0  -3.3375 0 0  -3.325 0 0  -3.3125 0 0  -3.3 0 0  -3.2875 0 0  -3.275 0 0  -3.2625 0 0  -3.25 0 0  -3.2375 0 0  -3.225 0 0  -3.2125 0 0  -3.2 0 0  -3.1875 0 0  -3.175 0 0  -3.1625 0 0  -3.15 0 0  -3.1375 0 0  -3.125 0 0  -3.1125 0 0  -3.1 0 0  -3.0875 0 0  -3.075 0 0  -3.0625 0 0  -3.05 0 0  -3.0375 0 0  -3.025 0 0  -3.0125 0 0  -3 0 0  -2.9875 0 0  -2.975 0 0  -2.9625 0 0  -2.95 0 0  -2.9375 0 0  -2.925 0 0  -2.9125 0 0  -2.9 0 0  -2.8875 0 0  -2.875 0 0  -2.8625 0 0  -2.85 0 0  -2.8375 0 0  -2.825 0 0  -2.8125 0 0  -2.8 0 0  -2.7875 0 0  -2.775 0 0  -2.7625 0 0  -2.75 0 0  -2.7375 0 0  -2.725 0 0  -2.7125 0 0  -2.7 0 0  -2.6875 0 0  -2.675 0 0  -2.6625 0 0  -2.65 0 0  -2.6375 0 0  -2.625 0 0  -2.6125 0 0  -2.6 0 0  -2.5875 0 0  -2.575 0 0  -2.5625 0 0  -2.55 0 0  -2.5375 0 0  -2.525 0 0  -2.5125 0 0  -2.5 0 0  -2.4875 0 0  -2.475 0 0  -2.4625 0 0  -2.45 0 0  -2.4375 0 0  -2.425 0 0  -2.4125 0 0  -2.4 0 0  -2.3875 0 0  -2.375 0 0  -2.3625 0 0  -2.35 0 0  -2.3375 0 0  -2.325 0 0  -2.3125 0 0  -2.3 0 0  -2.2875 0 0  -2.275 0 0  -2.2625 0 0  -2.25 0 0  -2.2375 0 0  -2.225 0 0  -2.2125 0 0  -2.2 0 0  -2.1875 0 0  -2.175 0 0  -2.1625 0 0  -2.15 0 0  -2.1375 0 0  -2.125 0 0  -2.1125 0 0  -2.1 0 0  -2.0875 0 0  -2.075 0 0  -2.0625 0 0  -2.05 0 0  -2.0375 0 0  -2.025 0 0  -2.0125 0 0  -2 0 0  -1.9875 0 0  -1.975 0 0  -1.9625 0 0  -1.95 0 0  -1.9375 0 0  -1.925 0 0  -1.9125 0 0  -1.9 0 0  -1.8875 0 0  -1.875 0 0  -1.8625 0 0  -1.85 0 0  -1.8375 0 0  -1.825 0 0  -1.8125 0 0  -1.8 0 0  -1.7875 0 0  -1.775 0 0  -1.7625 0 0  -1.75 0 0  -1.7375 0 0  -1.725 0 0  -1.7125 0 0  -1.7 0 0  -1.6875 0 0  -1.675 0 0  -1.6625 0 0  -1.65 0 0  -1.6375 0 0  -1.625 0 0  -1.6125 0 0  -1.6 0 0  -1.5875 0 0  -1.575 0 0  -1.5625 0 0  -1.55 0 0  -1.5375 0 0  -1.525 0 0  -1.5125 0 0  -1.5 0 0  -1.4875 0 0  -1.475 0 0  -1.4625 0 0  -1.45 0 0  -1.4375 0 0  -1.425 0 0  -1.4125 0 0  -1.4 0 0  -1.3875 0 0  -1.375 0 0  -1.3625 0 0  -1.35 0 0  -1.3375 0 0  -1.325 0 0  -1.3125 0 0  -1.3 0 0  -1.2875 0 0  -1.275 0 0  -1.2625 0 0  -1.25 0 0  -1.2375 0 0  -1.225 0 0  -1.2125 0 0  -1.2 0 0  -1.1875 0 0  -1.175 0 0  -1.1625 0 0  -1.15 0 0  -1.1375 0 0  -1.125 0 0  -1.1125 0 0  -1.1 0 0  -1.0875 0 0  -1.075 0 0  -1.0625 0 0  -1.05 0 0  -1.0375 0 0  -1.025 0 0  -1.0125 0 0  -1 0 0  -0.9874999999999998 0 0  -0.9749999999999996 0 0  -0.9625000000000004 0 0  -0.9500000000000002 0 0  -0.9375 0 0  -0.9249999999999998 0 0  -0.9124999999999996 0 0  -0.9000000000000004 0 0  -0.8875000000000002 0 0  -0.875 0 0  -0.8624999999999998 0 0  -0.8499999999999996 0 0  -0.8375000000000004 0 0  -0.8250000000000002 0 0  -0.8125 0 0  -0.7999999999999998 0 0  -0.7874999999999996 0 0  -0.7750000000000004 0 0  -0.7625000000000002 0 0  -0.75 0 0  -0.7374999999999998 0 0  -0.7249999999999996 0 0  -0.7125000000000004 0 0  -0.7000000000000002 0 0  -0.6875 0 0  -0.6749999999999998 0 0  -0.6624999999999996 0 0  -0.6500000000000004 0 0  -0.6375000000000002 0 0  -0.625 0 0  -0.6124999999999998 0 0  -0.5999999999999996 0 0  -0.5875000000000004 0 0  -0.5750000000000002 0 0  -0.5625 0 0  -0.5499999999999998 0 0  -0.5374999999999996 0 0  -0.5250000000000004 0 0  -0.5125000000000002 0 0  -0.5 0 0  -0.4874999999999998 0 0  -0.4749999999999996 0 0  -0.4625000000000004 0 0  -0.4500000000000002 0 0  -0.4375 0 0  -0.4249999999999998 0 0  -0.4124999999999996 0 0  -0.4000000000000004 0 0  -0.3875000000000002 0 0  -0.375 0 0  -0.3624999999999998 0 0  -0.3499999999999996 0 0  -0.3375000000000004 0 0  -0.3250000000000002 0 0  -0.3125 0 0  -0.2999999999999998 0 0  -0.2874999999999996 0 0  -0.2750000000000004 0 0  -0.2625000000000002 0 0  -0.25 0 0  -0.2374999999999998 0 0  -0.2249999999999996 0 0  -0.2125000000000004 0 0  -0.2000000000000002 0 0  -0.1875 0 0  -0.1749999999999998 0 0  -0.1624999999999996 0 0  -0.1500000000000004 0 0  -0.1375000000000002 0 0  -0.125 0 0  -0.1124999999999998 0 0  -0.09999999999999964 0 0  -0.08750000000000036 0 0  -0.07500000000000018 0 0  -0.0625 0 0  -0.04999999999999982 0 0  -0.03749999999999964 0 0  -0.02500000000000036 0 0  -0.01250000000000018 0 0  0 0 0  0.01250000000000018 0 0  0.02500000000000036 0 0  0.03749999999999964 0 0  0.04999999999999982 0 0  0.0625 0 0  0.07500000000000018 0 0  0.08750000000000036 0 0  0.09999999999999964 0 0  0.1124999999999998 0 0  0.125 0 0  0.1375000000000002 0 0  0.1500000000000004 0 0  0.1624999999999996 0 0  0.1749999999999998 0 0  0.1875 0 0  0.2000000000000002 0 0  0.2125000000000004 0 0  0.2249999999999996 0 0  0.2374999999999998 0 0  0.25 0 0  0.2625000000000002 0 0  0.2750000000000004 0 0  0.2874999999999996 0 0  0.2999999999999998 0 0  0.3125 0 0  0.3250000000000002 0 0  0.3375000000000004 0 0  0.3499999999999996 0 0  0.3624999999999998 0 0  0.375 0 0  0.3875000000000002 0 0  0.4000000000000004 0 0  0.4124999999999996 0 0  0.4249999999999998 0 0  0.4375 0 0  0.4500000000000002 0 0  0.4625000000000004 0 0  0.4749999999999996 0 0  0.4874999999999998 0 0  0.5 0 0  0.5125000000000002 0 0  0.5250000000000004 0 0  0.5374999999999996 0 0  0.5499999999999998 0 0  0.5625 0 0  0.5750000000000002 0 0  0.5875000000000004 0 0  0.5999999999999996 0 0  0.6124999999999998 0 0  0.625 0 0  0.6375000000000002 0 0  0.6500000000000004 0 0  0.6624999999999996 0 0  0.6749999999999998 0 0  0.6875 0 0  0.7000000000000002 0 0  0.7125000000000004 0 0  0.7249999999999996 0 0  0.7374999999999998 0 0  0.75 0 0  0.7625000000000002 0 0  0.7750000000000004 0 0  0.7874999999999996 0 0  0.7999999999999998 0 0  0.8125 0 0  0.8250000000000002 0 0  0.8375000000000004 0 0  0.8499999999999996 0 0  0.8624999999999998 0 0  0.875 0 0  0.8875000000000002 0 0  0.9000000000000004 0 0  0.9124999999999996 0 0  0.9249999999999998 0 0  0.9375 0 0  0.9500000000000002 0 0  0.9625000000000004 0 0  0.9749999999999996 0 0  0.9874999999999998 0 0  1 0 0  1.0125 0 0  1.025 0 0  1.0375 0 0  1.05 0 0  1.0625 0 0  1.075 0 0  1.0875 0 0  1.1 0 0  1.1125 0 0  1.125 0 0  1.1375 0 0  1.15 0 0  1.1625 0 0  1.175 0 0  1.1875 0 0  1.2 0 0  1.2125 0 0  1.225 0 0  1.2375 0 0  1.25 0 0  1.2625 0 0  1.275 0 0  1.2875 0 0  1.3 0 0  1.3125 0 0  1.325 0 0  1.3375 0 0  1.35 0 0  1.3625 0 0  1.375 0 0  1.3875 0 0  1.4 0 0  1.4125 0 0  1.425 0 0  1.4375 0 0  1.45 0 0  1.4625 0 0  1.475 0 0  1.4875 0 0  1.5 0 0  1.5125 0 0  1.525 0 0  1.5375 0 0  1.55 0 0  1.5625 0 0  1.575 0 0  1.5875 0 0  1.6 0 0  1.6125 0 0  1.625 0 0  1.6375 0 0  1.65 0 0  1.6625 0 0  1.675 0 0  1.6875 0 0  1.7 0 0  1.7125 0 0  1.725 0 0  1.7375 0 0  1.75 0 0  1.7625 0 0  1.775 0 0  1.7875 0 0  1.8 0 0  1.8125 0 0  1.825 0 0  1.8375 0 0  1.85 0 0  1.8625 0 0  1.875 0 0  1.8875 0 0  1.9 0 0  1.9125 0 0  1.925 0 0  1.9375 0 0  1.95 0 0  1.9625 0 0  1.975 0 0  1.9875 0 0  2 0 0  2.0125 0 0  2.025 0 0  2.0375 0 0  2.05 0 0  2.0625 0 0  2.075 0 0  2.0875 0 0  2.1 0 0  2.1125 0 0  2.125 0 0  2.1375 0 0  2.15 0 0  2.1625 0 0  2.175 0 0  2.1875 0 0  2.2 0 0  2.2125 0 0  2.225 0 0  2.2375 0 0  2.25 0 0  2.2625 0 0  2.275 0 0  2.2875 0 0  2.3 0 0  2.3125 0 0  2.325 0 0  2.3375 0 0  2.35 0 0  2.3625 0 0  2.375 0 0  2.3875 0 0  2.4 0 0  2.4125 0 0  2.425 0 0  2.4375 0 0  2.45 0 0  2.4625 0 0  2.475 0 0  2.4875 0 0  2.5 0 0  2.5125 0 0  2.525 0 0  2.5375 0 0  2.55 0 0  2.5625 0 0  2.575 0 0  2.5875 0 0  2.6 0 0  2.6125 0 0  2.625 0 0  2.6375 0 0  2.65 0 0  2.6625 0 0  2.675 0 0  2.6875 0 0  2.7 0 0  2.7125 0 0  2.725 0 0  2.7375 0 0  2.75 0 0  2.7625 0 0  2.775 0 0  2.7875 0 0  2.8 0 0  2.8125 0 0  2.825 0 0  2.8375 0 0  2.85 0 0  2.8625 0 0  2.875 0 0  2.8875 0 0  2.9 0 0  2.9125 0 0  2.925 0 0  2.9375 0 0  2.95 0 0  2.9625 0 0  2.975 0 0  2.9875 0 0  3 0 0  3.012499999999999 0 0  3.025 0 0  3.0375 0 0  3.050000000000001 0 0  3.0625 0 0  3.074999999999999 0 0  3.0875 0 0  3.1 0 0  3.112500000000001 0 0  3.125 0 0  3.137499999999999 0 0  3.15 0 0  3.1625 0 0  3.175000000000001 0 0  3.1875 0 0  3.199999999999999 0 0  3.2125 0 0  3.225 0 0  3.237500000000001 0 0  3.25 0 0  3.262499999999999 0 0  3.275 0 0  3.2875 0 0  3.300000000000001 0 0  3.3125 0 0  3.324999999999999 0 0  3.3375 0 0  3.35 0 0  3.362500000000001 0 0  3.375 0 0  3.387499999999999 0 0  3.4 0 0  3.4125 0 0  3.425000000000001 0 0  3.4375 0 0  3.449999999999999 0 0  3.4625 0 0  3.475 0 0  3.4875
[...]
<PointData  Vectors="(h, u)"> 
<DataArray  type="Float64"  Name="(h, u)"  NumberOfComponents="3" format="ascii">1.0695161295323638e-01 0.0000000000000000e+00 0.0000000000000000e+00  1.0308522751927497e-01 1.5426169952275589e-03 0.0000000000000000e+00  1.0700149460878779e-01 1.2615387261196565e-02 0.0000000000000000e+00  1.0298119739514634e-01 4.5759985723875110e-03 0.0000000000000000e+00  1.0714956048163997e-01 2.5317382147219264e-02 0.0000000000000000e+00  1.0277636205663372e-01 7.4619296902643240e-03 0.0000000000000000e+00  1.0739097538116525e-01 3.8176771412796254e-02 0.0000000000000000e+00  1.0247734577596823e-01 1.0128614247342469e-02 0.0000000000000000e+00  1.0771738762660539e-01 5.1234192682982536e-02 0.0000000000000000e+00  1.0209445747763490e-01 1.2542159788512704e-02 0.0000000000000000e+00  1.0811660092083346e-01 6.4488721261191193e-02 0.0000000000000000e+00  1.0164197038176431e-01 1.4717915337813732e-02 0.0000000000000000e+00  1.0857231929316762e-01 7.7890633085554467e-02 0.0000000000000000e+00  1.0113824692580772e-01 1.6727778706804461e-02 0.0000000000000000e+00  1.0906412774858926e-01 9.1339323213706330e-02 0.0000000000000000e+00  1.0060555472277095e-01 1.8702195281910531e-02 0.0000000000000000e+00  1.0956786240358937e-01 1.0468694013463116e-01 0.0000000000000000e+00  1.0006944529661163e-01 2.0825745711339255e-02 0.0000000000000000e+00  1.1005648159120453e-01 1.1774775199916435e-01 0.0000000000000000e+00  9.9557623873053905e-02 2.3325676361614693e-02 0.0000000000000000e+00  1.1050147610234373e-01 1.3031263866165743e-01 0.0000000000000000e+00  9.9098320021814665e-02 2.6453514573103576e-02 0.0000000000000000e+00  1.1087476108735635e-01 1.4216747690728784e-01 0.0000000000000000e+00  9.8718264553272497e-02 3.0460993974954016e-02 0.0000000000000000e+00  1.1115088918774232e-01 1.5311363954077203e-01 0.0000000000000000e+00  9.8440471870950369e-02 3.5572734389842389e-02 0.0000000000000000e+00  1.1130933392371943e-01 1.6298844196930087e-01 0.0000000000000000e+00  9.8282099691281530e-02 4.1959193754059813e-02 0.0000000000000000e+00  1.1133653520809382e-01 1.7168320848374921e-01 0.0000000000000000e+00  9.8252690629679659e-02 4.9713986304149929e-02 0.0000000000000000e+00  1.1122739254962866e-01 1.7915673968773194e-01 0.0000000000000000e+00  9.8353079162447579e-02 5.8839441096264877e-02 0.0000000000000000e+00  1.1098594478585651e-01 1.8544235954225219e-01 0.0000000000000000e+00  9.8575170212733099e-02 6.9243147662789453e-02 0.0000000000000000e+00  1.1062508382725064e-01 1.9064738871673695e-01 0.0000000000000000e+00  9.8902672678954917e-02 8.0746379320213391e-02 0.0000000000000000e+00  1.1016529560083810e-01 1.9494477645361435e-01 0.0000000000000000e+00  9.9312725099205384e-02 9.3103143713827441e-02 0.0000000000000000e+00  1.0963257557776031e-01 1.9855763057755355e-01 0.0000000000000000e+00  9.9778210641660411e-02 1.0602673930926783e-01 0.0000000000000000e+00  1.0905579793432658e-01 2.0173837698743430e-01 0.0000000000000000e+00  1.0027045335998518e-01 1.1921954916361717e-01 0.0000000000000000e+00  1.0846390079615449e-01 2.0474509284596998e-01 0.0000000000000000e+00  1.0076193685975796e-01 1.3240158663183563e-01 0.0000000000000000e+00  1.0788326913478029e-01 2.0781804046343402e-01 0.0000000000000000e+00  1.0122869577590293e-01 1.4533396406743823e-01 0.0000000000000000e+00  1.0733564791794670e-01 2.1115947390833442e-01 0.0000000000000000e+00  1.0165209303711108e-01 1.5783472948504240e-01 0.0000000000000000e+00  1.0683681225547177e-01 2.1491933861819762e-01 0.0000000000000000e+00  1.0201979960233432e-01 1.6978604514327728e-01 0.0000000000000000e+00  1.0639608438276897e-01 2.1918853667693872e-01 0.0000000000000000e+00  1.0232592375330346e-01 1.8113310624021103e-01 0.0000000000000000e+00  1.0601665096586142e-01 2.2400010849101626e-01 0.0000000000000000e+00  1.0257037332241647e-01 1.9187627976131133e-01 0.0000000000000000e+00  1.0569652294860246e-01 2.2933727669285292e-01 0.0000000000000000e+00  1.0275764822093979e-01 2.0205861154637905e-01 0.0000000000000000e+00  1.0542990778308217e-01 2.3514618321029954e-01 0.0000000000000000e+00  1.0289532797068617e-01 2.1175111444698538e-01 0.0000000000000000e+00  1.0520873861989409e-01 2.4135058732983147e-01 0.0000000000000000e+00  1.0299253056725494e-01 2.2103812613336948e-01 0.0000000000000000e+00  1.0502412715020210e-01 2.4786585546306594e-01 0.0000000000000000e+00  1.0305857612411280e-01 2.3000459839811049e-01 0.0000000000000000e+00  1.0486755889440558e-01 2.5461023425889345e-01 0.0000000000000000e+00  1.0310199699558759e-01 2.3872665085775310e-01 0.0000000000000000e+00  1.0473170878069503e-01 2.6151249434396312e-01 0.0000000000000000e+00  1.0312992328733149e-01 2.4726617184943159e-01 0.0000000000000000e+00  1.0461082469827009e-01 2.6851608031607321e-01 0.0000000000000000e+00  1.0314779735120742e-01 2.5566946904347493e-01 0.0000000000000000e+00  1.0450072832985820e-01 2.7558032394384091e-01 0.0000000000000000e+00  1.0315936665127229e-01 2.6396891521914700e-01 0.0000000000000000e+00  1.0439858667940080e-01 2.8267912967807274e-01 0.0000000000000000e+00  1.0316691884141725e-01 2.7218585272911289e-01 0.0000000000000000e+00  1.0430262843354469e-01 2.8979760661326415e-01 0.0000000000000000e+00  1.0317168227684512e-01 2.8033341846608434e-01 0.0000000000000000e+00  1.0421189531905779e-01 2.9692770547010400e-01 0.0000000000000000e+00  1.0317425443289968e-01 2.8841895217560798e-01 0.0000000000000000e+00  1.0412603300837085e-01 3.0406421219761492e-01 0.0000000000000000e+00  1.0317493757836053e-01 2.9644610313689695e-01 0.0000000000000000e+00  1.0404511117473997e-01 3.1120195530882333e-01 0.0000000000000000e+00  1.0317393826945452e-01 3.0441662575448525e-01 0.0000000000000000e+00  1.0396945826524327e-01 3.1833454846579351e-01 0.0000000000000000e+00  1.0317144050066319e-01 3.1233182889867489e-01 0.0000000000000000e+00  1.0389949104367320e-01 3.2545463450969447e-01 0.0000000000000000e+00  1.0316762533749671e-01 3.2019331839665471e-01 0.0000000000000000e+00  1.0383558728020899e-01 3.3255472225133303e-01 0.0000000000000000e+00  1.0316276854978723e-01 3.2800219012379189e-01 0.0000000000000000e+00  1.0377806267392789e-01 3.3962754828239988e-01 0.0000000000000000e+00  1.0315738713270642e-01 3.3575734742080970e-01 0.0000000000000000e+00  1.0372711245212293e-01 3.4666693596764708e-01 0.0000000000000000e+00  1.0315215335909263e-01 3.4345596287547692e-01 0.0000000000000000e+00  1.0368255680239617e-01 3.5367048789506877e-01 0.0000000000000000e+00  1.0314754349924896e-01 3.5109657522483712e-01 0.0000000000000000e+00  1.0364368325868784e-01 3.6064120078508394e-01 0.0000000000000000e+00  1.0314371571428889e-01 3.5868010664912037e-01 0.0000000000000000e+00  1.0360954132852848e-01 3.6758461368056533e-01 0.0000000000000000e+00  1.0314085402244325e-01 3.6620656028703741e-01 0.0000000000000000e+00  1.0357921345840553e-01 3.7450623698174990e-01 0.0000000000000000e+00  1.0313957952900139e-01 3.7367130325005588e-01 0.0000000000000000e+00  1.0355133581244137e-01 3.8141641306556001e-01 0.0000000000000000e+00  1.0314140024902632e-01 3.8106115442275218e-01 0.0000000000000000e+00  1.0352308540788903e-01 3.8834048411119620e-01 0.0000000000000000e+00  1.0314962199901151e-01 3.8834602329997303e-01 0.0000000000000000e+00  1.0348924123727088e-01 3.9532823464440781e-01 0.0000000000000000e+00  1.0317039524827427e-01 3.9546909745148140e-01 0.0000000000000000e+00  1.0344170502306382e-01 4.0245871221875784e-01 0.0000000000000000e+00  1.0321308403405463e-01 4.0234340315257650e-01 0.0000000000000000e+00  1.0337010726671055e-01 4.0983431184325303e-01 0.0000000000000000e+00  1.0328918765178709e-01 4.0886232126495609e-01 0.0000000000000000e+00  1.0326361269014471e-01 4.1756320024719717e-01 0.0000000000000000e+00  1.0340907892626623e-01 4.1493149101595089e-01 0.0000000000000000e+00  1.0311375768754270e-01 4.2573194542072845e-01 0.0000000000000000e+00  1.0357786596704358e-01 4.2050946368352382e-01 0.0000000000000000e+00  1.0291894303967426e-01 4.3436213642867505e-01 0.0000000000000000e+00  1.0379258853877814e-01 4.2563503826500271e-01 0.0000000000000000e+00  1.0268844835609457e-01 4.4337088144541692e-01 0.0000000000000000e+00  1.0403994560491125e-01 4.3044799730783723e-01 0.0000000000000000e+00  1.0244206949764326e-01 4.5257192871334467e-01 0.0000000000000000e+00  1.0429565595711487e-01 4.3519171007439428e-01 0.0000000000000000e+00  1.0220715760967471e-01 4.6170006344758496e-01 0.0000000000000000e+00  1.0452922686264025e-01 4.4016174726686635e-01 0.0000000000000000e+00  1.0201461227336960e-01 4.7044584688244617e-01 0.0000000000000000e+00  1.0471081852716690e-01 4.4563594156087061e-01 0.0000000000000000e+00  1.0189132756904681e-01 4.7852835712843667e-01 0.0000000000000000e+00  1.0481663143723523e-01 4.5182389155963792e-01 0.0000000000000000e+00  1.0185330023190985e-01 4.8576703591611931e-01 0.0000000000000000e+00  1.0483446853277566e-01 4.5882001779938225e-01 0.0000000000000000e+00  1.0190310420722133e-01 4.9211503632971620e-01 0.0000000000000000e+00  1.0476645397136002e-01 4.6658632394848865e-01 0.0000000000000000e+00  1.0203022807132893e-01 4.9766397556750674e-01 0.0000000000000000e+00  1.0462799195138765e-01 4.7496874714410203e-01 0.0000000000000000e+00  1.0221476431052319e-01 5.0261102398842139e-01 0.0000000000000000e+00  1.0444308603035117e-01 4.8374280069751480e-01 0.0000000000000000e+00  1.0243085336916338e-01 5.0722210133198664e-01 0.0000000000000000e+00  1.0423736824109515e-01 4.9267613623844486e-01 0.0000000000000000e+00  1.0265319374030973e-01 5.1176161921386309e-01 0.0000000000000000e+00  1.0403596700524753e-01 5.0154197068920636e-01 0.0000000000000000e+00  1.0286322008787450e-01 5.1642583519978413e-01 0.0000000000000000e+00  1.0385727149918840e-01 5.1017452621591985e-01 0.0000000000000000e+00  1.0304638799911145e-01 5.2136559668464966e-01 0.0000000000000000e+00  1.0370956639610342e-01 5.1849995741465860e-01 0.0000000000000000e+00  1.0319677106612588e-01 5.2664148601182381e-01 0.0000000000000000e+00  1.0359740148347442e-01 5.2647529308254848e-01 0.0000000000000000e+00  1.0331592428287159e-01 5.3223695170200569e-01 0.0000000000000000e+00  1.0351789771275585e-01 5.3412680780536015e-01 0.0000000000000000e+00  1.0340582550188658e-01 5.3812936474763895e-01 0.0000000000000000e+00  1.0346562365445820e-01 5.4150459843847065e-01 0.0000000000000000e+00  1.0347210578131470e-01 5.4426033711021782e-01 0.0000000000000000e+00  1.0343640744226233e-01 5.4864673379210049e-01 0.0000000000000000e+00  1.0351862335557069e-01 5.5058940077080321e-01 0.0000000000000000e+00  1.0342638839338790e-01 5.5558893450648295e-01 0.0000000000000000e+00  1.0354876136809120e-01 5.5708152646190390e-01 0.0000000000000000e+00  1.0343322472142218e-01 5.6235279653626613e-01 0.0000000000000000e+00  1.0356253498282833e-01 5.6373516215800079e-01 0.0000000000000000e+00  1.0345415355044045e-01 5.6896447160343788e-01 0.0000000000000000e+00  1.0356372978312427e-01 5.7051255649335886e-01 0.0000000000000000e+00  1.0349027449423528e-01 5.7541289543529051e-01 0.0000000000000000e+00  1.0355353802029771e-01 5.7740167044513147e-01 0.0000000000000000e+00  1.0353349952336369e-01 5.8177666502767511e-01 0.0000000000000000e+00  1.0353380643597891e-01 5.8438443643146565e-01 0.0000000000000000e+00  1.0358489577333452e-01 5.8804551027780139e-01 0.0000000000000000e+00  1.0351343238558885e-01 5.9137457880180122e-01 0.0000000000000000e+00  1.0363683971370079e-01 5.9429397626227676e-01 0.0000000000000000e+00  1.0349073744342044e-01 5.9838897374558320e-01 0.0000000000000000e+00  1.0368630417205318e-01 6.0055185007165623e-01 0.0000000000000000e+00  1.0347536672853160e-01 6.0533440499642521e-01 0.0000000000000000e+00  1.0373122839484254e-01 6.0683949942385307e-01 0.0000000000000000e+00  1.0346410820420460e-01 6.1224266819019735e-01 0.0000000000000000e+00  1.0376870114361755e-01 6.1318529222003859e-01 0.0000000000000000e+00  1.0346148080688480e-01 6.1907013520970111e-01 0.0000000000000000e+00  1.0379869504024956e-01 6.1958933650319525e-01 0.0000000000000000e+00  1.0346276173128645e-01 6.2586283629430028e-01 0.0000000000000000e+00  1.0382419205918982e-01 6.2602224434189691e-01 0.0000000000000000e+00  1.0347309818634079e-01 6.3257067789739096e-01 0.0000000000000000e+00  1.0384313939274624e-01 6.3250360305183218e-01 0.0000000000000000e+00  1.0348148995934761e-01 6.3930044323844692e-01 0.0000000000000000e+00  1.0386139580016503e-01 6.3897596200523676e-01 0.0000000000000000e+00  1.0350043233887216e-01 6.4593051348853081e-01 0.0000000000000000e+00  1.0387606906393809e-01 6.4546725771628888e-01 0.0000000000000000e+00  1.0351192035015554e-01 6.5263578995460581e-01 0.0000000000000000e+00  1.0389044732809344e-01 6.5194527192417306e-01 0.0000000000000000e+00  1.0353494809197168e-01 6.5923156630142343e-01 0.0000000000000000e+00  1.0390178669224101e-01 6.5843680146443173e-01 0.0000000000000000e+00  1.0354943311891333e-01 6.6591300684660260e-01 0.0000000000000000e+00  1.0391428975281024e-01 6.6490100471792235e-01 0.0000000000000000e+00  1.0357391188212152e-01 6.7249995424569464e-01 0.0000000000000000e+00  1.0392049794775150e-01 6.7141073439169474e-01 0.0000000000000000e+00  1.0359228267628139e-01 6.7914883560328898e-01 0.0000000000000000e+00  1.0393391779015922e-01 6.7783485124278908e-01 0.0000000000000000e+00  1.0361429700179241e-01 6.8576492785991316e-01 0.0000000000000000e+00  1.0393502338056992e-01 6.8436361180662064e-01 0.0000000000000000e+00  1.0363896770959671e-01 6.9235764710870296e-01 0.0000000000000000e+00  1.0395009250474299e-01 6.9074182445516952e-01 0.0000000000000000e+00  1.0365365306413517e-01 6.9904986445317041e-01 0.0000000000000000e+00  1.0394868965285309e-01 6.9726572486404936e-01 0.0000000000000000e+00  1.0368769292048040e-01 7.0555622834429532e-01 0.0000000000000000e+00  1.0395996459114419e-01 7.0365235046643759e-01 0.0000000000000000e+00  1.0369602367325476e-01 7.1231449082508647e-01 0.0000000000000000e+00  1.0396546179878917e-01 7.1008129691782962e-01 0.0000000000000000e+00  1.0373355020399259e-01 7.1879102761627500e-01 0.0000000000000000e+00  1.0395954434806647e-01 7.1660789225762223e-01 0.0000000000000000e+00  1.0374622642010341e-01 7.2551047683230752e-01 0.0000000000000000e+00  1.0397940563813193e-01 7.2287071099353661e-01 0.0000000000000000e+00  1.0377249842014208e-01 7.3209938066470959e-01 0.0000000000000000e+00  1.0396595523735996e-01 7.2944468986714994e-01 0.0000000000000000e+00  1.0381188752836874e-01 7.3856184805135106e-01 0.0000000000000000e+00  1.0397428197816777e-01 7.3579470687073423e-01 0.0000000000000000e+00  1.0380967227198397e-01 7.4542911212358565e-01 0.0000000000000000e+00  1.0398176066508910e-01 7.4214088487029228e-01 0.0000000000000000e+00  1.0385486681469949e-01 7.5183645115319975e-01 0.0000000000000000e+00  1.0394867793578799e-01 7.4886996994284605e-01 0.0000000000000000e+00  1.0388524427207120e-01 7.5838734383564299e-01 0.0000000000000000e+00  1.0398629197228418e-01 7.5490109150239748e-01 0.0000000000000000e+00  1.0388445968947282e-01 7.6524065803147467e-01 0.0000000000000000e+00  1.0397591466559042e-01 7.6138827724993552e-01 0.0000000000000000e+00  1.0396557960859305e-01 7.7129787046734122e-01 0.0000000000000000e+00  1.0393789504632660e-01 7.6813475271272069e-01 0.0000000000000000e+00  1.0397710969971298e-01 7.7802878827528188e-01 0.0000000000000000e+00  1.0398499596696985e-01 7.7404511176121060e-01 0.0000000000000000e+00  1.0396293662356471e-01 7.8500724729833005e-01 0.0000000000000000e+00  1.0395744154270678e-01 7.8067272117364950e-01 0.0000000000000000e+00  1.0405825321104620e-01 7.9091978289016485e-01 0.0000000000000000e+00  1.0387983055745044e-01 7.8777980682457160e-01 0.0000000000000000e+00  1.0409175483036938e-01 7.9742771225549336e-01 0.0000000000000000e+00  1.0394115771265452e-01 7.9353082425765464e-01 0.0000000000000000e+00  1.0401697565994329e-01 8.0498189300211132e-01 0.0000000000000000e+00  1.0398797258983528e-01 7.9941745639373341e-01 0.0000000000000000e+00  1.0408487553264355e-01 8.1114578282317695e-01 0.0000000000000000e+00  1.0387003290071882e-01 8.0690134205577413e-01 0.0000000000000000e+00  1.0421232725013457e-01 8.1672377412883856e-01 0.0000000000000000e+00  1.0386019835293826e-01 8.1333269235070371e-01 0.0000000000000000e+00  1.0411742818218231e-01 8.2445084637099819e-01 0.0000000000000000e+00  1.0405469397445273e-01 8.1777725720454475e-01 0.0000000000000000e+00  1.0394955895421780e-01 8.3287696389540433e-01 0.0000000000000000e+00  1.0414806051979275e-01 8.2320386678263868e-01 0.0000000000000000e+00  1.0400572494078428e-01 8.3911938489255700e-01 0.0000000000000000e+00  1.0400097213546440e-01 8.3096844745526133e-01 0.0000000000000000e+00  1.0421603444920566e-01 8.4385363446735928e-01 0.0000000000000000e+00  1.0385281751965866e-01 8.3874628832176346e-01 0.0000000000000000e+00  1.0426944905406997e-01 8.5009573350842138e-01 0.0000000000000000e+00  1.0396442410320292e-01 8.4400487604457408e-01 0.0000000000000000e+00  1.0403995696986101e-01 8.5906786232034371e-01 0.0000000000000000e+00  1.0429288052464258e-01 8.4716161508077659e-01 0.0000000000000000e+00  1.0370461221062199e-01 8.6905151459344765e-01 0.0000000000000000e+00  1.0459853264083868e-01 8.5054603477766788e-01 0.0000000000000000e+00  1.0348765602900044e-01 8.7787025923659068e-01 0.0000000000000000e+00  1.0473484244539885e-01 8.5558466204823624e-01 0.0000000000000000e+00  1.0345152715514261e-01 8.8491605026662556e-01 0.0000000000000000e+00  1.0471780486827278e-01 8.6212477178017766e-01 0.0000000000000000e+00  1.0354314997056749e-01 8.9070054863369208e-01 0.0000000000000000e+00  1.0463097828225913e-01 8.6935698472838463e-01 0.0000000000000000e+00  1.0369006687226952e-01 8.9592382622847222e-01 0.0000000000000000e+00  1.0455612669031608e-01 8.7648953736578517e-01 0.0000000000000000e+00  1.0386044129098895e-01 9.0089312282637446e-01 0.0000000000000000e+00  1.0449724348175266e-01 8.8348530709299078e-01 0.0000000000000000e+00  1.0401312838003078e-01 9.0600692052685505e-01 0.0000000000000000e+00  1.0447226354666234e-01 8.9017006547499666e-01 0.0000000000000000e+00  1.0392026128795666e-01 9.1347586024658134e-01 0.0000000000000000e+00  1.0453002365607500e-01 8.9606561919337624e-01 0.0000000000000000e+00  1.0388526269667642e-01 9.2036310034458113e-01 0.0000000000000000e+00  1.0405716819832855e-01 9.0711866123544416e-01 0.0000000000000000e+00  1.0435677335803865e-01 9.2231940335553286e-01 0.0000000000000000e+00  1.0404827389007516e-01 9.1366646316670586e-01 0.0000000000000000e+00  1.0361704471095971e-01 9.3602945603448517e-01 0.0000000000000000e+00  1.0523143683560747e-01 9.0862350041115747e-01 0.0000000000000000e+00  1.0255469754665582e-01 9.5289811042446970e-01 0.0000000000000000e+00  1.0573501215434782e-01 9.1013754162762150e-01 0.0000000000000000e+00  1.0235520515353032e-01 9.6142544995045442e-01 0.0000000000000000e+00  1.0573420276673003e-01 9.1649855736080899e-01 0.0000000000000000e+00  1.0257480343116583e-01 9.6592579429726055e-01 0.0000000000000000e+00  1.0558175985743122e-01 9.2427520003789487e-01 0.0000000000000000e+00  1.0350935707206305e-01 9.6353943947402110e-01 0.0000000000000000e+00  1.0548660856535116e-01 9.3144673341286843e-01 0.0000000000000000e+00  1.0546731340041017e-01 9.5134690986565107e-01 0.0000000000000000e+00  1.0526235141985434e-01 9.3982973412147885e-01 0.0000000000000000e+00  1.0873410980015398e-01 9.2676622838022493e-01 0.0000000000000000e+00  1.0777882370996707e-01 9.2200129175898482e-01 0.0000000000000000e+00  1.1078501096179268e-01 9.1412189132600907e-01 0.0000000000000000e+00  9.1898109529411715e-02 1.0830091882843051e+00 0.0000000000000000e+00  1.0991604390624349e-01 9.2910902817757990e-01 0.0000000000000000e+00  9.8291459180804341e-02 1.0258319759591836e+00 0.0000000000000000e+00  1.0450307892269087e-01 9.8825001275615365e-01 0.0000000000000000e+00  1.1049096956273020e-01 9.1383648491615699e-01 0.0000000000000000e+00  9.6961677069249089e-02 1.0680761367764855e+00 0.0000000000000000e+00  1.1081303082566034e-01 9.1709925177183815e-01 0.0000000000000000e+00  1.004951