<?xml version="1.0"?>
<VTKFile type="UnstructuredGrid"  version="0.1"  >
<UnstructuredGrid>
<Piece  NumberOfPoints="801" NumberOfCells="800">
<Points>
<DataArray  type="Float64"  NumberOfComponents="3"  format="ascii">-5 0 0  -4.9875 0 0  -4.975 0 0  -4.9625 0 0  -4.95 0 0  -4.9375 0 0  -4.925 0 0  -4.9125 0 0  -4.9 0 0  -4.8875 0 0  -4.875 0 0  -4.8625 0 0  -4.85 0 0  -4.8375 0 0  -4.825 0 0  -4.8125 0 0  -4.8 0 0  -4.7875 0 0  -4.775 0 0  -4.7625 0 0  -4.75 0 0  -4.7375 0 0  -4.725 0 0  -4.7125 0 0  -4.7 0 0  -4.6875 0 0  -4.675 0 0  -4.6625 0 0  -4.65 0 0  -4.6375 0 0  -4.625 0 0  -4.6125 0 0  -4.6 0 0  -4.5875 0 0  -4.575 0 0  -4.5625 0 0  -4.55 0 0  -4.5375 0 0  -4.525 0 0  -4.5125 0 0  -4.5 0 0  -4.4875 0 0  -4.475 0 0  -4.4625 0 0  -4.45 0 0  -4.4375 0 0  -4.425 0 0  -4.4125 0 0  -4.4 0 0  -4.3875 0 0  -4.375 0 0  -4.3625 0 0  -4.35 0 0  -4.3375 0 0  -4.325 0 0  -4.3125 0 0  -4.3 0 0  -4.2875 0 0  -4.275 0 0  -4.2625 0 0  -4.25 0 0  -4.2375 0 0  -4.225 0 0  -4.2125 0 0  -4.2 0 0  -4.1875 0 0  -4.175 0 0  -4.1625 0 0  -4.15 0 0  -4.1375 0 0  -4.125 0 0  -4.1125 0 0  -4.1 0 0  -4.0875 0 0  -4.075 0 0  -4.0625 0 0  -4.05 0 0  -4.0375 0 0  -4.025 0 0  -4.0125 0 0  -4 0 0  -3.9875 0 0  -3.975 0 0  -3.9625 0 0  -3.95 0 0  -3.9375 0 0  -3.925 0 0  -3.9125 0 0  -3.9 0 0  -3.8875 0 0  -3.875 0 0  -3.8625 0 0  -3.85 0 0  -3.8375 0 0  -3.825 0 0  -3.8125 0 0  -3.8 0 0  -3.7875 0 0  -3.775 0 0  -3.7625 0 0  -3.75 0 0  -3.7375 0 0  -3.725 0 0  -3.7125 0 0  -3.7 0 0  -3.6875 0 0  -3.675 0 0  -3.6625 0 0  -3.65 0 0  -3.6375 0 0  -3.625 0 0  -3.6125 0 0  -3.6 0 0  -3.5875 0 0  -3.575 0 0  -3.5625 0 0  -3.55 0 0  -3.5375 0 0  -3.525 0 0  -3.5125 0 0  -3.5 0 0  -3.4875 0 0  -3.475 0 0  -3.4625 0 0  -3.45 0 0  -3.4375 0 0  -3.425 0 0  -3.4125 0 0  -3.4 0 0  -3.3875 0 0  -3.375 0 0  -3.3625 0 0  -3.35 0 0  -3.3375 0 0  -3.325 0 0  -3.3125 0 0  -3.3 0 0  -3.2875 0 0  -3.275 0 0  -3.2625 0 0  -3.25 0 0  -3.2375 0 0  -3.225 0 0  -3.2125 0 0  -3.2 0 0  -3.1875 0 0  -3.175 0 0  -3.1625 0 0  -3.15 0 0  -3.1375 0 0  -3.125 0 0  -3.1125 0 0  -3.1 0 0  -3.0875 0 0  -3.075 0 0  -3.0625 0 0  -3.05 0 0  -3.0375 0 0  -3.025 0 0  -3.0125 0 0  -3 0 0  -2.9875 0 0  -2.975 0 0  -2.9625 0 0  -2.95 0 0  -2.9375 0 0  -2.925 0 0  -2.9125 0 0  -2.9 0 0  -2.8875 0 0  -2.875 0 0  -2.8625 0 0  -2.85 0 0  -2.8375 0 0  -2.825 0 0  -2.8125 0 0  -2.8 0 0  -2.7875 0 0  -2.775 0 0  -2.7625 0 0  -2.75 0 0  -2.7375 0 0  -2.725 0 0  -2.7125 0 0  -2.7 0 0  -2.6875 0 0  -2.675 0 0  -2.6625 0 0  -2.65 0 0  -2.6375 0 0  -2.625 0 0  -2.6125 0 0  -2.6 0 0  -2.5875 0 0  -2.575 0 0  -2.5625 0 0  -2.55 0 0  -2.5375 0 0  -2.525 0 0  -2.5125 0 0  -2.5 0 0  -2.4875 0 0  -2.475 0 0  -2.4625 0 0  -2.45 0 0  -2.4375 0 0  -2.425 0 0  -2.4125 0 0  -2.4 0 0  -2.3875 0 0  -2.375 0 0  -2.3625 0 0  -2.35 0 0  -2.3375 0 0  -2.325 0 0  -2.3125 0 0  -2.3 0 0  -2.2875 0 0  -2.275 0 0  -2.2625 0 0  -2.25 0 0  -2.2375 0 0  -2.225 0 0  -2.2125 0 0  -2.2 0 0  -2.1875 0 0  -2.175 0 0  -2.1625 0 0  -2.15 0 0  -2.1375 0 0  -2.125 0 0  -2.1125 0 0  -2.1 0 0  -2.0875 0 0  -2.075 0 0  -2.0625 0 0  -2.05 0 0  -2.0375 0 0  -2.025 0 0  -2.0125 0 0  -2 0 0  -1.9875 0 0  -1.975 0 0  -1.9625 0 0  -1.95 0 0  -1.9375 0 0  -1.925 0 0  -1.9125 0 0  -1.9 0 0  -1.8875 0 0  -1.875 0 0  -1.8625 0 0  -1.85 0 0  -1.8375 0 0  -1.825 0 0  -1.8125 0 0  -1.8 0 0  -1.7875 0 0  -1.775 0 0  -1.7625 0 0  -1.75 0 0  -1.7375 0 0  -1.725 0 0  -1.7125 0 0  -1.7 0 0  -1.6875 0 0  -1.675 0 0  -1.6625 0 0  -1.65 0 0  -1.6375 0 0  -1.625 0 0  -1.6125 0 0  -1.6 0 0  -1.5875 0 0  -1.575 0 0  -1.5625 0 0  -1.55 0 0  -1.5375 0 0  -1.525 0 0  -1.5125 0 0  -1.5 0 0  -1.4875 0 0  -1.475 0 0  -1.4625 0 0  -1.45 0 0  -1.4375 0 0  -1.425 0 0  -1.4125 0 0  -1.4 0 0  -1.3875 0 0  -1.375 0 0  -1.3625 0 0  -1.35 0 0  -1.3375 0 0  -1.325 0 0  -1.3125 0 0  -1.3 0 0  -1.2875 0 0  -1.275 0 0  -1.2625 0 0  -1.25 0 0  -1.2375 0 0  -1.225 0 0  -1.2125 0 0  -1.2 0 0  -1.1875 0 0  -1.175 0 0  -1.1625 0 0  -1.15 0 0  -1.1375 0 0  -1.125 0 0  -1.1125 0 0  -1.1 0 0  -1.0875 0 0  -1.075 0 0  -1.0625 0 0  -1.05 0 0  -1.0375 0 0  -1.025 0 0  -1.0125 0 0  -1 0 0  -0.9874999999999998 0 0  -0.9749999999999996 0 0  -0.9625000000000004 0 0  -0.9500000000000002 0 0  -0.9375 0 0  -0.9249999999999998 0 0  -0.9124999999999996 0 0  -0.9000000000000004 0 0  -0.8875000000000002 0 0  -0.875 0 0  -0.8624999999999998 0 0  -0.8499999999999996 0 0  -0.8375000000000004 0 0  -0.8250000000000002 0 0  -0.8125 0 0  -0.7999999999999998 0 0  -0.7874999999999996 0 0  -0.7750000000000004 0 0  -0.7625000000000002 0 0  -0.75 0 0  -0.7374999999999998 0 0  -0.7249999999999996 0 0  -0.7125000000000004 0 0  -0.7000000000000002 0 0  -0.6875 0 0  -0.6749999999999998 0 0  -0.6624999999999996 0 0  -0.6500000000000004 0 0  -0.6375000000000002 0 0  -0.625 0 0  -0.6124999999999998 0 0  -0.5999999999999996 0 0  -0.5875000000000004 0 0  -0.5750000000000002 0 0  -0.5625 0 0  -0.5499999999999998 0 0  -0.5374999999999996 0 0  -0.5250000000000004 0 0  -0.5125000000000002 0 0  -0.5 0 0  -0.4874999999999998 0 0  -0.4749999999999996 0 0  -0.4625000000000004 0 0  -0.4500000000000002 0 0  -0.4375 0 0  -0.4249999999999998 0 0  -0.4124999999999996 0 0  -0.4000000000000004 0 0  -0.3875000000000002 0 0  -0.375 0 0  -0.3624999999999998 0 0  -0.3499999999999996 0 0  -0.3375000000000004 0 0  -0.3250000000000002 0 0  -0.3125 0 0  -0.2999999999999998 0 0  -0.2874999999999996 0 0  -0.2750000000000004 0 0  -0.2625000000000002 0 0  -0.25 0 0  -0.2374999999999998 0 0  -0.2249999999999996 0 0  -0.2125000000000004 0 0  -0.2000000000000002 0 0  -0.1875 0 0  -0.1749999999999998 0 0  -0.1624999999999996 0 0  -0.1500000000000004 0 0  -0.1375000000000002 0 0  -0.125 0 0  -0.1124999999999998 0 0  -0.09999999999999964 0 0  -0.08750000000000036 0 0  -0.07500000000000018 0 0  -0.0625 0 0  -0.04999999999999982 0 0  -0.03749999999999964 0 0  -0.02500000000000036 0 0  -0.01250000000000018 0 0  0 0 0  0.01250000000000018 0 0  0.02500000000000036 0 0  0.03749999999999964 0 0  0.04999999999999982 0 0  0.0625 0 0  0.07500000000000018 0 0  0.08750000000000036 0 0  0.09999999999999964 0 0  0.1124999999999998 0 0  0.125 0 0  0.1375000000000002 0 0  0.1500000000000004 0 0  0.1624999999999996 0 0  0.1749999999999998 0 0  0.1875 0 0  0.2000000000000002 0 0  0.2125000000000004 0 0  0.2249999999999996 0 0  0.2374999999999998 0 0  0.25 0 0  0.2625000000000002 0 0  0.2750000000000004 0 0  0.2874999999999996 0 0  0.2999999999999998 0 0  0.3125 0 0  0.3250000000000002 0 0  0.3375000000000004 0 0  0.3499999999999996 0 0  0.3624999999999998 0 0  0.375 0 0  0.3875000000000002 0 0  0.4000000000000004 0 0  0.4124999999999996 0 0  0.4249999999999998 0 0  0.4375 0 0  0.4500000000000002 0 0  0.4625000000000004 0 0  0.4749999999999996 0 0  0.4874999999999998 0 0  0.5 0 0  0.5125000000000002 0 0  0.5250000000000004 0 0  0.5374999999999996 0 0  0.5499999999999998 0 0  0.5625 0 0  0.5750000000000002 0 0  0.5875000000000004 0 0  0.5999999999999996 0 0  0.6124999999999998 0 0  0.625 0 0  0.6375000000000002 0 0  0.6500000000000004 0 0  0.6624999999999996 0 0  0.6749999999999998 0 0  0.6875 0 0  0.7000000000000002 0 0  0.7125000000000004 0 0  0.7249999999999996 0 0  0.7374999999999998 0 0  0.75 0 0  0.7625000000000002 0 0  0.7750000000000004 0 0  0.7874999999999996 0 0  0.7999999999999998 0 0  0.8125 0 0  0.8250000000000002 0 0  0.8375000000000004 0 0  0.8499999999999996 0 0  0.8624999999999998 0 0  0.875 0 0  0.8875000000000002 0 0  0.9000000000000004 0 0  0.9124999999999996 0 0  0.9249999999999998 0 0  0.9375 0 0  0.9500000000000002 0 0  0.9625000000000004 0 0  0.9749999999999996 0 0  0.9874999999999998 0 0  1 0 0  1.0125 0 0  1.025 0 0  1.0375 0 0  1.05 0 0  1.0625 0 0  1.075 0 0  1.0875 0 0  1.1 0 0  1.1125 0 0  1.125 0 0  1.1375 0 0  1.15 0 0  1.1625 0 0  1.175 0 0  1.1875 0 0  1.2 0 0  1.2125 0 0  1.225 0 0  1.2375 0 0  1.25 0 0  1.2625 0 0  1.275 0 0  1.2875 0 0  1.3 0 0  1.3125 0 0  1.325 0 0  1.3375 0 0  1.35 0 0  1.3625 0 0  1.375 0 0  1.3875 0 0  1.4 0 0  1.4125 0 0  1.425 0 0  1.4375 0 0  1.45 0 0  1.4625 0 0  1.475 0 0  1.4875 0 0  1.5 0 0  1.5125 0 0  1.525 0 0  1.5375 0 0  1.55 0 0  1.5625 0 0  1.575 0 0  1.5875 0 0  1.6 0 0  1.6125 0 0  1.625 0 0  1.6375 0 0  1.65 0 0  1.6625 0 0  1.675 0 0  1.6875 0 0  1.7 0 0  1.7125 0 0  1.725 0 0  1.7375 0 0  1.75 0 0  1.7625 0 0  1.775 0 0  1.7875 0 0  1.8 0 0  1.8125 0 0  1.825 0 0  1.8375 0 0  1.85 0 0  1.8625 0 0  1.875 0 0  1.8875 0 0  1.9 0 0  1.9125 0 0  1.925 0 0  1.9375 0 0  1.95 0 0  1.9625 0 0  1.975 0 0  1.9875 0 0  2 0 0  2.0125 0 0  2.025 0 0  2.0375 0 0  2.05 0 0  2.0625 0 0  2.075 0 0  2.0875 0 0  2.1 0 0  2.1125 0 0  2.125 0 0  2.1375 0 0  2.15 0 0  2.1625 0 0  2.175 0 0  2.1875 0 0  2.2 0 0  2.2125 0 0  2.225 0 0  2.2375 0 0  2.25 0 0  2.2625 0 0  2.275 0 0  2.2875 0 0  2.3 0 0  2.3125 0 0  2.325 0 0  2.3375 0 0  2.35 0 0  2.3625 0 0  2.375 0 0  2.3875 0 0  2.4 0 0  2.4125 0 0  2.425 0 0  2.4375 0 0  2.45 0 0  2.4625 0 0  2.475 0 0  2.4875 0 0  2.5 0 0  2.5125 0 0  2.525 0 0  2.5375 0 0  2.55 0 0  2.5625 0 0  2.575 0 0  2.5875 0 0  2.6 0 0  2.6125 0 0  2.625 0 0  2.6375 0 0  2.65 0 0  2.6625 0 0  2.675 0 0  2.6875 0 0  2.7 0 0  2.7125 0 0  2.725 0 0  2.7375 0 0  2.75 0 0  2.7625 0 0  2.775 0 0  2.7875 0 0  2.8 0 0  2.8125 0 0  2.825 0 0  2.8375 0 0  2.85 0 0  2.8625 0 0  2.875 0 0  2.8875 0 0  2.9 0 0  2.9125 0 0  2.925 0 0  2.9375 0 0  2.95 0 0  2.9625 0 0  2.975 0 0  2.9875 0 0  3 0 0  3.012499999999999 0 0  3.025 0 0  3.0375 0 0  3.050000000000001 0 0  3.0625 0 0  3.074999999999999 0 0  3.0875 0 0  3.1 0 0  3.112500000000001 0 0  3.125 0 0  3.137499999999999 0 0  3.15 0 0  3.1625 0 0  3.175000000000001 0 0  3.1875 0 0  3.199999999999999 0 0  3.2125 0 0  3.225 0 0  3.237500000000001 0 0  3.25 0 0  3.262499999999999 0 0  3.275 0 0  3.2875 0 0  3.300000000000001 0 0  3.3125 0 0  3.324999999999999 0 0  3.3375 0 0  3.35 0 0  3.362500000000001 0 0  3.375 0 0  3.387499999999999 0 0  3.4 0 0  3.4125 0 0  3.425000000000001 0 0  3.4375 0 0  3.449999999999999 0 0  3.4625 0 0  3.475 0 0  3.4875
[...]
<PointData  Vectors="(h, u)"> 
<DataArray  type="Float64"  Name="(h, u)"  NumberOfComponents="3" format="ascii">1.5273457351308808e-01 0.0000000000000000e+00 0.0000000000000000e+00  1.5268503129167363e-01 5.0091380038086762e-03 0.0000000000000000e+00  1.5273318050086604e-01 9.9800968342570046e-03 0.0000000000000000e+00  1.5268127033485465e-01 1.5026014163616534e-02 0.0000000000000000e+00  1.5272904320640779e-01 1.9963929136582872e-02 0.0000000000000000e+00  1.5267366816678898e-01 2.5038753230962819e-02 0.0000000000000000e+00  1.5272227977387415e-01 2.9955111399136550e-02 0.0000000000000000e+00  1.5266207497672785e-01 3.5044809346535033e-02 0.0000000000000000e+00  1.5271306476396965e-01 3.9957010957892357e-02 0.0000000000000000e+00  1.5264629199359853e-01 4.5041966072339609e-02 0.0000000000000000e+00  1.5270159973964173e-01 4.9972613212234722e-02 0.0000000000000000e+00  1.5262610018729897e-01 5.5028481180537957e-02 0.0000000000000000e+00  1.5268807926399022e-01 6.0004379219862430e-02 0.0000000000000000e+00  1.5260129404642878e-01 6.5003227799113716e-02 0.0000000000000000e+00  1.5267265739755040e-01 7.0054103967122167e-02 0.0000000000000000e+00  1.5257171611518705e-01 7.4965816643758953e-02 0.0000000000000000e+00  1.5265541899704493e-01 8.0122792521432395e-02 0.0000000000000000e+00  1.5253728707743497e-01 8.4916683975500826e-02 0.0000000000000000e+00  1.5263635874321554e-01 9.0210578141621159e-02 0.0000000000000000e+00  1.5249802623637271e-01 9.4857133267307853e-02 0.0000000000000000e+00  1.5261536946986770e-01 1.0031670665063620e-01 0.0000000000000000e+00  1.5245405864229850e-01 1.0478932233458450e-01 0.0000000000000000e+00  1.5259224048527636e-01 1.1043960213393790e-01 0.0000000000000000e+00  1.5240560775900522e-01 1.1471618989461668e-01 0.0000000000000000e+00  1.5256666618155709e-01 1.2057701194479070e-01 0.0000000000000000e+00  1.5235297567985959e-01 1.2464131729465092e-01 0.0000000000000000e+00  1.5253826484110983e-01 1.3072621064083773e-01 0.0000000000000000e+00  1.5229651533714514e-01 1.3456872633559158e-01 0.0000000000000000e+00  1.5250660652983405e-01 1.4088423146955273e-01 0.0000000000000000e+00  1.5223659988452179e-01 1.4450262602425007e-01 0.0000000000000000e+00  1.5247124707227833e-01 1.5104809579827816e-01 0.0000000000000000e+00  1.5217359328871313e-01 1.5444713818646244e-01 0.0000000000000000e+00  1.5243176293990288e-01 1.6121502320547426e-01 0.0000000000000000e+00  1.5210782406749981e-01 1.6440604600092160e-01 0.0000000000000000e+00  1.5238778079201404e-01 1.7138261804754745e-01 0.0000000000000000e+00  1.5203956261932527e-01 1.7438260954028020e-01 0.0000000000000000e+00  1.5233899663181630e-01 1.8154903127851665e-01 0.0000000000000000e+00  1.5196900280369319e-01 1.8437947253621642e-01 0.0000000000000000e+00  1.5228518311583242e-01 1.9171308613156193e-01 0.0000000000000000e+00  1.5189624999536419e-01 1.9439865150134614e-01 0.0000000000000000e+00  1.5222618781815678e-01 2.0187434257812145e-01 0.0000000000000000e+00  1.5182131890887660e-01 2.0444157059748946e-01 0.0000000000000000e+00  1.5216192755554933e-01 2.1203307559905704e-01 0.0000000000000000e+00  1.5174414300225594e-01 2.1450910287045682e-01 0.0000000000000000e+00  1.5209238245382412e-01 2.2219016732759594e-01 0.0000000000000000e+00  1.5166459292185688e-01 2.2460160483285982e-01 0.0000000000000000e+00  1.5201758926421352e-01 2.3234695343597545e-01 0.0000000000000000e+00  1.5158249684179953e-01 2.3471896637729928e-01 0.0000000000000000e+00  1.5193763020626386e-01 2.4250509001238749e-01 0.0000000000000000e+00  1.5149765468293078e-01 2.4486070864253320e-01 0.0000000000000000e+00  1.5185261490394472e-01 2.5266649104962968e-01 0.0000000000000000e+00  1.5140984299734239e-01 2.5502613153418863e-01 0.0000000000000000e+00  1.5176265883058243e-01 2.6283333026757455e-01 0.0000000000000000e+00  1.5131881513432155e-01 2.6521445930063847e-01 0.0000000000000000e+00  1.5166786745358940e-01 2.7300804378279575e-01 0.0000000000000000e+00  1.5122430569436274e-01 2.7542490696594157e-01 0.0000000000000000e+00  1.5156833438498679e-01 2.8319326705806985e-01 0.0000000000000000e+00  1.5112604379291064e-01 2.8565663482115522e-01 0.0000000000000000e+00  1.5146415224501633e-01 2.9339170858345354e-01 0.0000000000000000e+00  1.5102376871957315e-01 2.9590865230460173e-01 0.0000000000000000e+00  1.5135542393580062e-01 3.0360604591655987e-01 0.0000000000000000e+00  1.5091723481399724e-01 3.0617979082774688e-01 0.0000000000000000e+00  1.5124226081905220e-01 3.1383893683683883e-01 0.0000000000000000e+00  1.5080619846292959e-01 3.1646881781231800e-01 0.0000000000000000e+00  1.5112476647078515e-01 3.2409314009292711e-01 0.0000000000000000e+00  1.5069039653312014e-01 3.2677463207104546e-01 0.0000000000000000e+00  1.5100302148785369e-01 3.3437160615446354e-01 0.0000000000000000e+00  1.5056953835279205e-01 3.3709637637863965e-01 0.0000000000000000e+00  1.5087708874082448e-01 3.4467736872879956e-01 0.0000000000000000e+00  1.5044332522706874e-01 3.4743336661704460e-01 0.0000000000000000e+00  1.5074703809345227e-01 3.5501323423139486e-01 0.0000000000000000e+00  1.5031148364373506e-01 3.5778495888308809e-01 0.0000000000000000e+00  1.5061296258440793e-01 3.6538148691392242e-01 0.0000000000000000e+00  1.5017378174987323e-01 3.6815060708281200e-01 0.0000000000000000e+00  1.5047495822729678e-01 3.7578382934304588e-01 0.0000000000000000e+00  1.5003001638596600e-01 3.7853021769866468e-01 0.0000000000000000e+00  1.5033307054579514e-01 3.8622153202293041e-01 0.0000000000000000e+00  1.4987999445352354e-01 3.8892460983017052e-01 0.0000000000000000e+00  1.5018724598815672e-01 3.9669548766568435e-01 0.0000000000000000e+00  1.4972355606868176e-01 3.9933569168994698e-01 0.0000000000000000e+00  1.5003733048090168e-01 4.0720583762132118e-01 0.0000000000000000e+00  1.4956065942317751e-01 4.0976617979971663e-01 0.0000000000000000e+00  1.4988309986282328e-01 4.1775130938161537e-01 0.0000000000000000e+00  1.4939147024967986e-01 4.2021930157576670e-01 0.0000000000000000e+00  1.4972424582359059e-01 4.2832890691090270e-01 0.0000000000000000e+00  1.4921638149639016e-01 4.3069905365100797e-01 0.0000000000000000e+00  1.4956028773212729e-01 4.3893422779654484e-01 0.0000000000000000e+00  1.4903597605071323e-01 4.4121087373810502e-01 0.0000000000000000e+00  1.4939047527947261e-01 4.4956192593069383e-01 0.0000000000000000e+00  1.4885100667444207e-01 4.5176207783136063e-01 0.0000000000000000e+00  1.4921377122550628e-01 4.6020564807749903e-01 0.0000000000000000e+00  1.4866246079322007e-01 4.6236145867063921e-01 0.0000000000000000e+00  1.4902896846621447e-01 4.7085706033070562e-01 0.0000000000000000e+00  1.4847169120394776e-01 4.7301813887777233e-01 0.0000000000000000e+00  1.4883483567649677e-01 4.8150487715341528e-01 0.0000000000000000e+00  1.4828040849296834e-01 4.8374127924335591e-01 0.0000000000000000e+00  1.4863008307982825e-01 4.9213563572454694e-01 0.0000000000000000e+00  1.4809044645391323e-01 4.9454131848122040e-01 0.0000000000000000e+00  1.4841326281906941e-01 5.0273532830774725e-01 0.0000000000000000e+00  1.4790358563695161e-01 5.0543040062885447e-01 0.0000000000000000e+00  1.4818287922861914e-01 5.1328967576376772e-01 0.0000000000000000e+00  1.4772156905114889e-01 5.1642089383270828e-01 0.0000000000000000e+00  1.4793764948969909e-01 5.2378351189364825e-01 0.0000000000000000e+00  1.4754620537387761e-01 5.2752287624177308e-01 0.0000000000000000e+00  1.4767682867869106e-01 5.3419992942652028e-01 0.0000000000000000e+00  1.4737945376902362e-01 5.3874151625325983e-01 0.0000000000000000e+00  1.4740029262284882e-01 5.4452160079404155e-01 0.0000000000000000e+00  1.4722300492576429e-01 5.5007841056678652e-01 0.0000000000000000e+00  1.4710808333096051e-01 5.5473656923393344e-01 0.0000000000000000e+00  1.4707772354676801e-01 5.6153404874044655e-01 0.0000000000000000e+00  1.4680052079800870e-01 5.6483936784969369e-01 0.0000000000000000e+00  1.4694408578074214e-01 5.7310232372571546e-01 0.0000000000000000e+00  1.4647905522968238e-01 5.7482584952634030e-01 0.0000000000000000e+00  1.4682249270032752e-01 5.8476639987990331e-01 0.0000000000000000e+00  1.4614626555808799e-01 5.8469454858705294e-01 0.0000000000000000e+00  1.4671281679967801e-01 5.9650137777229773e-01 0.0000000000000000e+00  1.4580568255348972e-01 5.9444887412052327e-01 0.0000000000000000e+00  1.4661420798178498e-01 6.0827554273992024e-01 0.0000000000000000e+00  1.4546130844174712e-01 6.0410103925435699e-01 0.0000000000000000e+00  1.4652419378218906e-01 6.2005821544844442e-01 0.0000000000000000e+00  1.4511698352405616e-01 6.1367639406719166e-01 0.0000000000000000e+00  1.4643970074456622e-01 6.3181277870151697e-01 0.0000000000000000e+00  1.4477863802303848e-01 6.2319315259376373e-01 0.0000000000000000e+00  1.4635915400250671e-01 6.4348180149617307e-01 0.0000000000000000e+00  1.4445329926077868e-01 6.3266779513023752e-01 0.0000000000000000e+00  1.4627910151664278e-01 6.5501784431690169e-01 0.0000000000000000e+00  1.4414559793782200e-01 6.4214027277091168e-01 0.0000000000000000e+00  1.4619467512759277e-01 6.6638351328616252e-01 0.0000000000000000e+00  1.4386090834734797e-01 6.5164402620952533e-01 0.0000000000000000e+00  1.4610256773081148e-01 6.7753141360032798e-01 0.0000000000000000e+00  1.4360441214197778e-01 6.6120909440291653e-01 0.0000000000000000e+00  1.4599935491352362e-01 6.8842247288315617e-01 0.0000000000000000e+00  1.4338141542564109e-01 6.7085481277286441e-01 0.0000000000000000e+00  1.4588405892001988e-01 6.9900937883963299e-01 0.0000000000000000e+00  1.4319544818887797e-01 6.8060105917327407e-01 0.0000000000000000e+00  1.4575136731133298e-01 7.0929628394265076e-01 0.0000000000000000e+00  1.4304421068384432e-01 6.9049793644795798e-01 0.0000000000000000e+00  1.4560012738633174e-01 7.1927224963916914e-01 0.0000000000000000e+00  1.4293354870770955e-01 7.0050752257366677e-01 0.0000000000000000e+00  1.4543508740345973e-01 7.2889913671336615e-01 0.0000000000000000e+00  1.4286016288129616e-01 7.1064522726004520e-01 0.0000000000000000e+00  1.4525068461701846e-01 7.3824561752598450e-01 0.0000000000000000e+00  1.4281904134278914e-01 7.2091830191075257e-01 0.0000000000000000e+00  1.4505347020330830e-01 7.4730200973818839e-01 0.0000000000000000e+00  1.4280983910762104e-01 7.3127481128393967e-01 0.0000000000000000e+00  1.4484509042270804e-01 7.5611794923058073e-01 0.0000000000000000e+00  1.4282603511445729e-01 7.4169652701977506e-01 0.0000000000000000e+00  1.4463301517614513e-01 7.6471021050417620e-01 0.0000000000000000e+00  1.4286216739988417e-01 7.5214380318945784e-01 0.0000000000000000e+00  1.4441412062326323e-01 7.7319283987500642e-01 0.0000000000000000e+00  1.4290800122656061e-01 7.6260949115286003e-01 0.0000000000000000e+00  1.4420539678887018e-01 7.8151797276892643e-01 0.0000000000000000e+00  1.4296894400000079e-01 7.7295664782330453e-01 0.0000000000000000e+00  1.4400057502785188e-01 7.8982715964484407e-01 0.0000000000000000e+00  1.4301956150196946e-01 7.8330933899737598e-01 0.0000000000000000e+00  1.4381048202326804e-01 7.9811215541344183e-01 0.0000000000000000e+00  1.4307816462964090e-01 7.9344147860693637e-01 0.0000000000000000e+00  1.4363802389914812e-01 8.0641604792086663e-01 0.0000000000000000e+00  1.4311817427369056e-01 8.0351505661770817e-01 0.0000000000000000e+00  1.4348473524443908e-01 8.1477505683473483e-01 0.0000000000000000e+00  1.4315437355176183e-01 8.1336938182855900e-01 0.0000000000000000e+00  1.4334838203967579e-01 8.2323611906348115e-01 0.0000000000000000e+00  1.4317278983276180e-01 8.2310268177245405e-01 0.0000000000000000e+00  1.4324413571216835e-01 8.3168141465415035e-01 0.0000000000000000e+00  1.4318070908400168e-01 8.3265759330503253e-01 0.0000000000000000e+00  1.4314021513796643e-01 8.4036231675837103e-01 0.0000000000000000e+00  1.4317589561419558e-01 8.4207283655778209e-01 0.0000000000000000e+00  1.4308201741439877e-01 8.4887586738176535e-01 0.0000000000000000e+00  1.4315632558387445e-01 8.5139942226566545e-01 0.0000000000000000e+00  1.4300711430820121e-01 8.5770017036978097e-01 0.0000000000000000e+00  1.4314003375428336e-01 8.6053021330471957e-01 0.0000000000000000e+00  1.4297374021032602e-01 8.6630885071910713e-01 0.0000000000000000e+00  1.4309717827760499e-01 8.6975812331952396e-01 0.0000000000000000e+00  1.4293254347006626e-01 8.7506539088093760e-01 0.0000000000000000e+00  1.4307832098517881e-01 8.7870796425592057e-01 0.0000000000000000e+00  1.4289108280755816e-01 8.8386663820663991e-01 0.0000000000000000e+00  1.4303680617532688e-01 8.8780347023847217e-01 0.0000000000000000e+00  1.4288617990809319e-01 8.9237456473324506e-01 0.0000000000000000e+00  1.4299382188404963e-01 8.9689767299162282e-01 0.0000000000000000e+00  1.4283603731009714e-01 9.0124369852274633e-01 0.0000000000000000e+00  1.4299439205601477e-01 9.0563508551132099e-01 0.0000000000000000e+00  1.4281750357873960e-01 9.0982556915193491e-01 0.0000000000000000e+00  1.4292419428990527e-01 9.1497017538469905e-01 0.0000000000000000e+00  1.4281863982147200e-01 9.1821616891557778e-01 0.0000000000000000e+00  1.4291736179223247e-01 9.2379014617712774e-01 0.0000000000000000e+00  1.4275293032139472e-01 9.2713835106280795e-01 0.0000000000000000e+00  1.4291762107814551e-01 9.3255233305113427e-01 0.0000000000000000e+00  1.4274038585519402e-01 9.3560855560098655e-01 0.0000000000000000e+00  1.4284925833266360e-01 9.4187216218585701e-01 0.0000000000000000e+00  1.4276561402720728e-01 9.4376713249923794e-01 0.0000000000000000e+00  1.4281931764928618e-01 9.5084980257182328e-01 0.0000000000000000e+00  1.4268849156014071e-01 9.5278836603828110e-01 0.0000000000000000e+00  1.4287968935665446e-01 9.5904306504249359e-01 0.0000000000000000e+00  1.4262985809324136e-01 9.6168131377055011e-01 0.0000000000000000e+00  1.4281649375447855e-01 9.6821625340082929e-01 0.0000000000000000e+00  1.4269856829741781e-01 9.6954921711862185e-01 0.0000000000000000e+00  1.4271676675583109e-01 9.7764501753427291e-01 0.0000000000000000e+00  1.4269903515559965e-01 9.7801517715659292e-01 0.0000000000000000e+00  1.4274517422918181e-01 9.8596479762111355e-01 0.0000000000000000e+00  1.4256691608493519e-01 9.8761081027420061e-01 0.0000000000000000e+00  1.4286296632331802e-01 9.9350011287859574e-01 0.0000000000000000e+00  1.4245001292647497e-01 9.9710538074916921e-01 0.0000000000000000e+00  1.4283575491299527e-01 1.0022005802914320e+00 0.0000000000000000e+00  1.4257184599056758e-01 1.0046376478205621e+00 0.0000000000000000e+00  1.4256972803351547e-01 1.0128531533285465e+00 0.0000000000000000e+00  1.4285402400661698e-01 1.0108486610244765e+00 0.0000000000000000e+00  1.4224105813934396e-01 1.0240058576883415e+00 0.0000000000000000e+00  1.4312011860739182e-01 1.0171941947751562e+00 0.0000000000000000e+00  1.4198483179215682e-01 1.0345454639711325e+00 0.0000000000000000e+00  1.4326072220357244e-01 1.0245760972107483e+00 0.0000000000000000e+00  1.4189406918787978e-01 1.0437049572767203e+00 0.0000000000000000e+00  1.4323446078240140e-01 1.0333341837967949e+00 0.0000000000000000e+00  1.4193435660083842e-01 1.0517718675888106e+00 0.0000000000000000e+00  1.4313438382122770e-01 1.0426953246072888e+00 0.0000000000000000e+00  1.4200712986248235e-01 1.0595650007739843e+00 0.0000000000000000e+00  1.4301693984441324e-01 1.0521912096341337e+00 0.0000000000000000e+00  1.4209498760463429e-01 1.0672290261345787e+00 0.0000000000000000e+00  1.4289245423830779e-01 1.0617369283590363e+00 0.0000000000000000e+00  1.4217081109398252e-01 1.0749882656283172e+00 0.0000000000000000e+00  1.4279990927196073e-01 1.0710097019396514e+00 0.0000000000000000e+00  1.4220680242449332e-01 1.0830723759755090e+00 0.0000000000000000e+00  1.4273790316239468e-01 1.0800209772345604e+00 0.0000000000000000e+00  1.4222810427535112e-01 1.0912718065091522e+00 0.0000000000000000e+00  1.4267734321692754e-01 1.0890115282924204e+00 0.0000000000000000e+00  1.4224952555087472e-01 1.0994631820321901e+00 0.0000000000000000e+00  1.4262239190946996e-01 1.0979460810900052e+00 0.0000000000000000e+00  1.4225623218690983e-01 1.1077700397500612e+00 0.0000000000000000e+00  1.4258534076081703e-01 1.1067218347556724e+00 0.0000000000000000e+00  1.4224635848834230e-01 1.1162091805128638e+00 0.0000000000000000e+00  1.4255737664031540e-01 1.1154112757806325e+00 0.0000000000000000e+00  1.4223392499729787e-01 1.1246658850389333e+00 0.0000000000000000e+00  1.4252628321676231e-01 1.1241154733977983e+00 0.0000000000000000e+00  1.4222542283823969e-01 1.1330877046714922e+00 0.0000000000000000e+00  1.4249216632139086e-01 1.1328335360794348e+00 0.0000000000000000e+00  1.4221624534432920e-01 1.1415137710533638e+00 0.0000000000000000e+00  1.4246120664208406e-01 1.1415143675683745e+00 0.0000000000000000e+00  1.4220094722473842e-01 1.1499895175859358e+00 0.0000000000000000e+00  1.4243664516942547e-01 1.1501314590086327e+00 0.0000000000000000e+00  1.4217857441332613e-01 1.1585224734703505e+00 0.0000000000000000e+00  1.4241744899240405e-01 1.1586939505885514e+00 0.0000000000000000e+00  1.4215126703822151e-01 1.1670940407735177e+00 0.0000000000000000e+00  1.4240092542597310e-01 1.1672248675675339e+00 0.0000000000000000e+00  1.4212157971338699e-01 1.1756820009735698e+00 0.0000000000000000e+00  1.4238490890780336e-01 1.1757428525284455e+00 0.0000000000000000e+00  1.4209098086492361e-01 1.1842732336843989e+00 0.0000000000000000e+00  1.4236849759100220e-01 1.1842559287560050e+00 0.0000000000000000e+00  1.4205975138436813e-01 1.1928647511956287e+00 0.0000000000000000e+00  1.4235195058517749e-01 1.1927622666190583e+00 0.0000000000000000e+00  1.4202682495011493e-01 1.2014651159314602e+00 0.0000000000000000e+00  1.4233766032279688e-01 1.2012420780513084e+00 0.0000000000000000e+00  1.4198669446409248e-01 1.2101201333040197e+00 0.0000000000000000e+00  1.4233770690457800e-01 1.2095949009532616e+00 0.0000000000000000e+00  1.4191596882536367e-01 1.2190245211558373e+00 0.0000000000000000e+00  1.4239261319063629e-01 1.2174838573646756e+00 0.0000000000000000e+00  1.4175342075213856e-01 1.2286879361450174e+00 0.0000000000000000e+00  1.4258559349226796e-01 1.2242174671992352e+00 0.0000000000000000e+00  1.4140861437531885e-01 1.2398642592189353e+00 0.0000000000000000e+00  1.4299096388044963e-01 1.2291787877594782e+00 0.0000000000000000e+00  1.4087150613163757e-01 1.2526412755152769e+00 0.0000000000000000e+00  1.4351498166051407e-01 1.2331466278955148e+00 0.0000000000000000e+00  1.4036232184336844e-01 1.2651892377103522e+00 0.0000000000000000e+00  1.4381348127484103e-01 1.2389748964787171e+00 0.0000000000000000e+00  1.4024135831130180e-01 1.2745031191927594e+00 0.0000000000000000e+00  1.4362053904436065e-01 1.2488681018770800e+00 0.0000000000000000e+00  1.4052418271325556e-01 1.2804468781463902e+00 0.0000000000000000e+00  1.4322744374248245e-01 1.2604155961084706e+00 0.0000000000000000e+00  1.4076846534534188e-01 1.2867047055799856e+00 0.0000000000000000e+00  1.4303163291647078e-01 1.2703220890689766e+00 0.0000000000000000e+00  1.4083652980989911e-01 1.2944240720503186e+00 0.0000000000000000e+00  1.4289654650021444e-01 1.2797188779159454e+00 0.0000000000000000e+00  1.4095955548738473e-01 1.3016793765511856e+00 0.0000000000000000e+00  1.4266825069674138e-01 1.2898844361153059e+00 0.0000000000000000e+00  1.4113482582384343e-01 1.3084922672477945e+00 0.0000000000000000e+00  1.4242923580915476e-01 1.3001351614926457e+00 0.0000000000000000e+00  1.4132196224503843e-01 1.3151988425975829e+00 0.0000000000000000e+00  1.4212399927171235e-01 1.3109329007031327e+00 0.0000000000000000e+00  1.4164707331713186e-01 1.3207494602858352e+00 0.0000000000000000e+00  1.4160616606354673e-01 1.3234975172805457e+00 0.0000000000000000e+00  1.4226216241490738e-01 1.3238813479933544e+00 0.0000000000000000e+00  1.4070701442815317e-01 1.3392429202694165e+00 0.0000000000000000e+00  1.4338000274076970e-01 1.3228355913635703e+00 0.0000000000000000e+00  1.3919437170405091e-01 1.3601318599333923e+00 0.0000000000000000e+00  1.4524867332718822e-01 1.3155835086289138e+00 0.0000000000000000e+00  1.3689759809919638e-01 1.3876552400929592e+00 0.0000000000000000e+00  1.479609