<?xml version="1.0"?>
<VTKFile type="UnstructuredGrid"  version="0.1"  >
<UnstructuredGrid>
<Piece  NumberOfPoints="801" NumberOfCells="800">
<Points>
<DataArray  type="Float64"  NumberOfComponents="3"  format="ascii">-5 0 0  -4.9875 0 0  -4.975 0 0  -4.9625 0 0  -4.95 0 0  -4.9375 0 0  -4.925 0 0  -4.9125 0 0  -4.9 0 0  -4.8875 0 0  -4.875 0 0  -4.8625 0 0  -4.85 0 0  -4.8375 0 0  -4.825 0 0  -4.8125 0 0  -4.8 0 0  -4.7875 0 0  -4.775 0 0  -4.7625 0 0  -4.75 0 0  -4.7375 0 0  -4.725 0 0  -4.7125 0 0  -4.7 0 0  -4.6875 0 0  -4.675 0 0  -4.6625 0 0  -4.65 0 0  -4.6375 0 0  -4.625 0 0  -4.6125 0 0  -4.6 0 0  -4.5875 0 0  -4.575 0 0  -4.5625 0 0  -4.55 0 0  -4.5375 0 0  -4.525 0 0  -4.5125 0 0  -4.5 0 0  -4.4875 0 0  -4.475 0 0  -4.4625 0 0  -4.45 0 0  -4.4375 0 0  -4.425 0 0  -4.4125 0 0  -4.4 0 0  -4.3875 0 0  -4.375 0 0  -4.3625 0 0  -4.35 0 0  -4.3375 0 0  -4.325 0 0  -4.3125 0 0  -4.3 0 0  -4.2875 0 0  -4.275 0 0  -4.2625 0 0  -4.25 0 0  -4.2375 0 0  -4.225 0 0  -4.2125 0 0  -4.2 0 0  -4.1875 0 0  -4.175 0 0  -4.1625 0 0  -4.15 0 0  -4.1375 0 0  -4.125 0 0  -4.1125 0 0  -4.1 0 0  -4.0875 0 0  -4.075 0 0  -4.0625 0 0  -4.05 0 0  -4.0375 0 0  -4.025 0 0  -4.0125 0 0  -4 0 0  -3.9875 0 0  -3.975 0 0  -3.9625 0 0  -3.95 0 0  -3.9375 0 0  -3.925 0 0  -3.9125 0 0  -3.9 0 0  -3.8875 0 0  -3.875 0 0  -3.8625 0 0  -3.85 0 0  -3.8375 0 0  -3.825 0 0  -3.8125 0 0  -3.8 0 0  -3.7875 0 0  -3.775 0 0  -3.7625 0 0  -3.75 0 0  -3.7375 0 0  -3.725 0 0  -3.7125 0 0  -3.7 0 0  -3.6875 0 0  -3.675 0 0  -3.6625 0 0  -3.65 0 0  -3.6375 0 0  -3.625 0 0  -3.6125 0 0  -3.6 0 0  -3.5875 0 0  -3.575 0 0  -3.5625 0 0  -3.55 0 0  -3.5375 0 0  -3.525 0 0  -3.5125 0 0  -3.5 0 0  -3.4875 0 0  -3.475 0 0  -3.4625 0 0  -3.45 0 0  -3.4375 0 0  -3.425 0 0  -3.4125 0 0  -3.4 0 0  -3.3875 0 0  -3.375 0 0  -3.3625 0 0  -3.35 0 0  -3.3375 0 0  -3.325 0 0  -3.3125 0 0  -3.3 0 0  -3.2875 0 0  -3.275 0 0  -3.2625 0 0  -3.25 0 0  -3.2375 0 0  -3.225 0 0  -3.2125 0 0  -3.2 0 0  -3.1875 0 0  -3.175 0 0  -3.1625 0 0  -3.15 0 0  -3.1375 0 0  -3.125 0 0  -3.1125 0 0  -3.1 0 0  -3.0875 0 0  -3.075 0 0  -3.0625 0 0  -3.05 0 0  -3.0375 0 0  -3.025 0 0  -3.0125 0 0  -3 0 0  -2.9875 0 0  -2.975 0 0  -2.9625 0 0  -2.95 0 0  -2.9375 0 0  -2.925 0 0  -2.9125 0 0  -2.9 0 0  -2.8875 0 0  -2.875 0 0  -2.8625 0 0  -2.85 0 0  -2.8375 0 0  -2.825 0 0  -2.8125 0 0  -2.8 0 0  -2.7875 0 0  -2.775 0 0  -2.7625 0 0  -2.75 0 0  -2.7375 0 0  -2.725 0 0  -2.7125 0 0  -2.7 0 0  -2.6875 0 0  -2.675 0 0  -2.6625 0 0  -2.65 0 0  -2.6375 0 0  -2.625 0 0  -2.6125 0 0  -2.6 0 0  -2.5875 0 0  -2.575 0 0  -2.5625 0 0  -2.55 0 0  -2.5375 0 0  -2.525 0 0  -2.5125 0 0  -2.5 0 0  -2.4875 0 0  -2.475 0 0  -2.4625 0 0  -2.45 0 0  -2.4375 0 0  -2.425 0 0  -2.4125 0 0  -2.4 0 0  -2.3875 0 0  -2.375 0 0  -2.3625 0 0  -2.35 0 0  -2.3375 0 0  -2.325 0 0  -2.3125 0 0  -2.3 0 0  -2.2875 0 0  -2.275 0 0  -2.2625 0 0  -2.25 0 0  -2.2375 0 0  -2.225 0 0  -2.2125 0 0  -2.2 0 0  -2.1875 0 0  -2.175 0 0  -2.1625 0 0  -2.15 0 0  -2.1375 0 0  -2.125 0 0  -2.1125 0 0  -2.1 0 0  -2.0875 0 0  -2.075 0 0  -2.0625 0 0  -2.05 0 0  -2.0375 0 0  -2.025 0 0  -2.0125 0 0  -2 0 0  -1.9875 0 0  -1.975 0 0  -1.9625 0 0  -1.95 0 0  -1.9375 0 0  -1.925 0 0  -1.9125 0 0  -1.9 0 0  -1.8875 0 0  -1.875 0 0  -1.8625 0 0  -1.85 0 0  -1.8375 0 0  -1.825 0 0  -1.8125 0 0  -1.8 0 0  -1.7875 0 0  -1.775 0 0  -1.7625 0 0  -1.75 0 0  -1.7375 0 0  -1.725 0 0  -1.7125 0 0  -1.7 0 0  -1.6875 0 0  -1.675 0 0  -1.6625 0 0  -1.65 0 0  -1.6375 0 0  -1.625 0 0  -1.6125 0 0  -1.6 0 0  -1.5875 0 0  -1.575 0 0  -1.5625 0 0  -1.55 0 0  -1.5375 0 0  -1.525 0 0  -1.5125 0 0  -1.5 0 0  -1.4875 0 0  -1.475 0 0  -1.4625 0 0  -1.45 0 0  -1.4375 0 0  -1.425 0 0  -1.4125 0 0  -1.4 0 0  -1.3875 0 0  -1.375 0 0  -1.3625 0 0  -1.35 0 0  -1.3375 0 0  -1.325 0 0  -1.3125 0 0  -1.3 0 0  -1.2875 0 0  -1.275 0 0  -1.2625 0 0  -1.25 0 0  -1.2375 0 0  -1.225 0 0  -1.2125 0 0  -1.2 0 0  -1.1875 0 0  -1.175 0 0  -1.1625 0 0  -1.15 0 0  -1.1375 0 0  -1.125 0 0  -1.1125 0 0  -1.1 0 0  -1.0875 0 0  -1.075 0 0  -1.0625 0 0  -1.05 0 0  -1.0375 0 0  -1.025 0 0  -1.0125 0 0  -1 0 0  -0.9874999999999998 0 0  -0.9749999999999996 0 0  -0.9625000000000004 0 0  -0.9500000000000002 0 0  -0.9375 0 0  -0.9249999999999998 0 0  -0.9124999999999996 0 0  -0.9000000000000004 0 0  -0.8875000000000002 0 0  -0.875 0 0  -0.8624999999999998 0 0  -0.8499999999999996 0 0  -0.8375000000000004 0 0  -0.8250000000000002 0 0  -0.8125 0 0  -0.7999999999999998 0 0  -0.7874999999999996 0 0  -0.7750000000000004 0 0  -0.7625000000000002 0 0  -0.75 0 0  -0.7374999999999998 0 0  -0.7249999999999996 0 0  -0.7125000000000004 0 0  -0.7000000000000002 0 0  -0.6875 0 0  -0.6749999999999998 0 0  -0.6624999999999996 0 0  -0.6500000000000004 0 0  -0.6375000000000002 0 0  -0.625 0 0  -0.6124999999999998 0 0  -0.5999999999999996 0 0  -0.5875000000000004 0 0  -0.5750000000000002 0 0  -0.5625 0 0  -0.5499999999999998 0 0  -0.5374999999999996 0 0  -0.5250000000000004 0 0  -0.5125000000000002 0 0  -0.5 0 0  -0.4874999999999998 0 0  -0.4749999999999996 0 0  -0.4625000000000004 0 0  -0.4500000000000002 0 0  -0.4375 0 0  -0.4249999999999998 0 0  -0.4124999999999996 0 0  -0.4000000000000004 0 0  -0.3875000000000002 0 0  -0.375 0 0  -0.3624999999999998 0 0  -0.3499999999999996 0 0  -0.3375000000000004 0 0  -0.3250000000000002 0 0  -0.3125 0 0  -0.2999999999999998 0 0  -0.2874999999999996 0 0  -0.2750000000000004 0 0  -0.2625000000000002 0 0  -0.25 0 0  -0.2374999999999998 0 0  -0.2249999999999996 0 0  -0.2125000000000004 0 0  -0.2000000000000002 0 0  -0.1875 0 0  -0.1749999999999998 0 0  -0.1624999999999996 0 0  -0.1500000000000004 0 0  -0.1375000000000002 0 0  -0.125 0 0  -0.1124999999999998 0 0  -0.09999999999999964 0 0  -0.08750000000000036 0 0  -0.07500000000000018 0 0  -0.0625 0 0  -0.04999999999999982 0 0  -0.03749999999999964 0 0  -0.02500000000000036 0 0  -0.01250000000000018 0 0  0 0 0  0.01250000000000018 0 0  0.02500000000000036 0 0  0.03749999999999964 0 0  0.04999999999999982 0 0  0.0625 0 0  0.07500000000000018 0 0  0.08750000000000036 0 0  0.09999999999999964 0 0  0.1124999999999998 0 0  0.125 0 0  0.1375000000000002 0 0  0.1500000000000004 0 0  0.1624999999999996 0 0  0.1749999999999998 0 0  0.1875 0 0  0.2000000000000002 0 0  0.2125000000000004 0 0  0.2249999999999996 0 0  0.2374999999999998 0 0  0.25 0 0  0.2625000000000002 0 0  0.2750000000000004 0 0  0.2874999999999996 0 0  0.2999999999999998 0 0  0.3125 0 0  0.3250000000000002 0 0  0.3375000000000004 0 0  0.3499999999999996 0 0  0.3624999999999998 0 0  0.375 0 0  0.3875000000000002 0 0  0.4000000000000004 0 0  0.4124999999999996 0 0  0.4249999999999998 0 0  0.4375 0 0  0.4500000000000002 0 0  0.4625000000000004 0 0  0.4749999999999996 0 0  0.4874999999999998 0 0  0.5 0 0  0.5125000000000002 0 0  0.5250000000000004 0 0  0.5374999999999996 0 0  0.5499999999999998 0 0  0.5625 0 0  0.5750000000000002 0 0  0.5875000000000004 0 0  0.5999999999999996 0 0  0.6124999999999998 0 0  0.625 0 0  0.6375000000000002 0 0  0.6500000000000004 0 0  0.6624999999999996 0 0  0.6749999999999998 0 0  0.6875 0 0  0.7000000000000002 0 0  0.7125000000000004 0 0  0.7249999999999996 0 0  0.7374999999999998 0 0  0.75 0 0  0.7625000000000002 0 0  0.7750000000000004 0 0  0.7874999999999996 0 0  0.7999999999999998 0 0  0.8125 0 0  0.8250000000000002 0 0  0.8375000000000004 0 0  0.8499999999999996 0 0  0.8624999999999998 0 0  0.875 0 0  0.8875000000000002 0 0  0.9000000000000004 0 0  0.9124999999999996 0 0  0.9249999999999998 0 0  0.9375 0 0  0.9500000000000002 0 0  0.9625000000000004 0 0  0.9749999999999996 0 0  0.9874999999999998 0 0  1 0 0  1.0125 0 0  1.025 0 0  1.0375 0 0  1.05 0 0  1.0625 0 0  1.075 0 0  1.0875 0 0  1.1 0 0  1.1125 0 0  1.125 0 0  1.1375 0 0  1.15 0 0  1.1625 0 0  1.175 0 0  1.1875 0 0  1.2 0 0  1.2125 0 0  1.225 0 0  1.2375 0 0  1.25 0 0  1.2625 0 0  1.275 0 0  1.2875 0 0  1.3 0 0  1.3125 0 0  1.325 0 0  1.3375 0 0  1.35 0 0  1.3625 0 0  1.375 0 0  1.3875 0 0  1.4 0 0  1.4125 0 0  1.425 0 0  1.4375 0 0  1.45 0 0  1.4625 0 0  1.475 0 0  1.4875 0 0  1.5 0 0  1.5125 0 0  1.525 0 0  1.5375 0 0  1.55 0 0  1.5625 0 0  1.575 0 0  1.5875 0 0  1.6 0 0  1.6125 0 0  1.625 0 0  1.6375 0 0  1.65 0 0  1.6625 0 0  1.675 0 0  1.6875 0 0  1.7 0 0  1.7125 0 0  1.725 0 0  1.7375 0 0  1.75 0 0  1.7625 0 0  1.775 0 0  1.7875 0 0  1.8 0 0  1.8125 0 0  1.825 0 0  1.8375 0 0  1.85 0 0  1.8625 0 0  1.875 0 0  1.8875 0 0  1.9 0 0  1.9125 0 0  1.925 0 0  1.9375 0 0  1.95 0 0  1.9625 0 0  1.975 0 0  1.9875 0 0  2 0 0  2.0125 0 0  2.025 0 0  2.0375 0 0  2.05 0 0  2.0625 0 0  2.075 0 0  2.0875 0 0  2.1 0 0  2.1125 0 0  2.125 0 0  2.1375 0 0  2.15 0 0  2.1625 0 0  2.175 0 0  2.1875 0 0  2.2 0 0  2.2125 0 0  2.225 0 0  2.2375 0 0  2.25 0 0  2.2625 0 0  2.275 0 0  2.2875 0 0  2.3 0 0  2.3125 0 0  2.325 0 0  2.3375 0 0  2.35 0 0  2.3625 0 0  2.375 0 0  2.3875 0 0  2.4 0 0  2.4125 0 0  2.425 0 0  2.4375 0 0  2.45 0 0  2.4625 0 0  2.475 0 0  2.4875 0 0  2.5 0 0  2.5125 0 0  2.525 0 0  2.5375 0 0  2.55 0 0  2.5625 0 0  2.575 0 0  2.5875 0 0  2.6 0 0  2.6125 0 0  2.625 0 0  2.6375 0 0  2.65 0 0  2.6625 0 0  2.675 0 0  2.6875 0 0  2.7 0 0  2.7125 0 0  2.725 0 0  2.7375 0 0  2.75 0 0  2.7625 0 0  2.775 0 0  2.7875 0 0  2.8 0 0  2.8125 0 0  2.825 0 0  2.8375 0 0  2.85 0 0  2.8625 0 0  2.875 0 0  2.8875 0 0  2.9 0 0  2.9125 0 0  2.925 0 0  2.9375 0 0  2.95 0 0  2.9625 0 0  2.975 0 0  2.9875 0 0  3 0 0  3.012499999999999 0 0  3.025 0 0  3.0375 0 0  3.050000000000001 0 0  3.0625 0 0  3.074999999999999 0 0  3.0875 0 0  3.1 0 0  3.112500000000001 0 0  3.125 0 0  3.137499999999999 0 0  3.15 0 0  3.1625 0 0  3.175000000000001 0 0  3.1875 0 0  3.199999999999999 0 0  3.2125 0 0  3.225 0 0  3.237500000000001 0 0  3.25 0 0  3.262499999999999 0 0  3.275 0 0  3.2875 0 0  3.300000000000001 0 0  3.3125 0 0  3.324999999999999 0 0  3.3375 0 0  3.35 0 0  3.362500000000001 0 0  3.375 0 0  3.387499999999999 0 0  3.4 0 0  3.4125 0 0  3.425000000000001 0 0  3.4375 0 0  3.449999999999999 0 0  3.4625 0 0  3.475 0 0  3.4875
[...]
<PointData  Vectors="(h, u)"> 
<DataArray  type="Float64"  Name="(h, u)"  NumberOfComponents="3" format="ascii">1.9526989195391675e-01 0.0000000000000000e+00 0.0000000000000000e+00  1.9514172674223820e-01 5.9373064337248493e-03 0.0000000000000000e+00  1.9526787106771626e-01 1.1865656006050378e-02 0.0000000000000000e+00  1.9513753719804236e-01 1.7812446294268092e-02 0.0000000000000000e+00  1.9526180370531973e-01 2.3731242132330847e-02 0.0000000000000000e+00  1.9512916606175060e-01 2.9689114905322077e-02 0.0000000000000000e+00  1.9525167611010397e-01 3.5596768737196964e-02 0.0000000000000000e+00  1.9511662793793405e-01 4.1568168293465775e-02 0.0000000000000000e+00  1.9523746653876595e-01 4.7462394865706151e-02 0.0000000000000000e+00  1.9509994137106146e-01 5.3450253633232317e-02 0.0000000000000000e+00  1.9521914705168239e-01 5.9328474480148358e-02 0.0000000000000000e+00  1.9507912467629487e-01 6.5335788984375212e-02 0.0000000000000000e+00  1.9519668605674148e-01 7.1195572728131262e-02 0.0000000000000000e+00  1.9505419060381382e-01 7.7224988446648560e-02 0.0000000000000000e+00  1.9517005161812473e-01 8.3064448456832959e-02 0.0000000000000000e+00  1.9502514064485615e-01 8.9117924718647906e-02 0.0000000000000000e+00  1.9513921541890142e-01 9.4936004305634203e-02 0.0000000000000000e+00  1.9499196026118568e-01 1.0101461257108466e-01 0.0000000000000000e+00  1.9510415697895825e-01 1.0681121170953953e-01 0.0000000000000000e+00  1.9495461646160220e-01 1.1291509286082736e-01 0.0000000000000000e+00  1.9506486729242917e-01 1.1869102426395439e-01 0.0000000000000000e+00  1.9491305875690598e-01 1.2481949876934163e-01 0.0000000000000000e+00  1.9502135060776740e-01 1.3057629766369844e-01 0.0000000000000000e+00  1.9486722362107284e-01 1.3672809335405406e-01 0.0000000000000000e+00  1.9497362291138176e-01 1.4246773569511742e-01 0.0000000000000000e+00  1.9481704147569973e-01 1.4864127751491588e-01 0.0000000000000000e+00  1.9492170611427714e-01 1.5436587740157920e-01 0.0000000000000000e+00  1.9476244438663554e-01 1.6055957605326496e-01 0.0000000000000000e+00  1.9486561814282272e-01 1.6627112978064904e-01 0.0000000000000000e+00  1.9470337255015910e-01 1.7248361307630525e-01 0.0000000000000000e+00  1.9480536088552161e-01 1.7818383520611958e-01 0.0000000000000000e+00  1.9463977835062293e-01 1.8441408551963911e-01 0.0000000000000000e+00  1.9474090956640333e-01 1.9010434851158833e-01 0.0000000000000000e+00  1.9457162791035487e-01 1.9635173750709223e-01 0.0000000000000000e+00  1.9467220763599957e-01 2.0203309257556615e-01 0.0000000000000000e+00  1.9449890090368652e-01 2.0829733365191996e-01 0.0000000000000000e+00  1.9459916992542622e-01 2.1397056901825282e-01 0.0000000000000000e+00  1.9442158933926035e-01 2.2025163068064529e-01 0.0000000000000000e+00  1.9452169363531818e-01 2.2591732211222521e-01 0.0000000000000000e+00  1.9433969501791171e-01 2.3221535405039950e-01 0.0000000000000000e+00  1.9443967296125492e-01 2.3787388047664451e-01 0.0000000000000000e+00  1.9425322433482292e-01 2.4418919333200123e-01 0.0000000000000000e+00  1.9435301094407317e-01 2.4984071718718032e-01 0.0000000000000000e+00  1.9416217936643124e-01 2.5617382757235696e-01 0.0000000000000000e+00  1.9426162334306885e-01 2.6181826118613971e-01 0.0000000000000000e+00  1.9406654642999155e-01 2.6816997503856732e-01 0.0000000000000000e+00  1.9416543398377425e-01 2.7380696097465856e-01 0.0000000000000000e+00  1.9396628648527797e-01 2.8017843819304428e-01 0.0000000000000000e+00  1.9406436659274717e-01 2.8580736332807122e-01 0.0000000000000000e+00  1.9386133319431176e-01 2.9220010350672260e-01 0.0000000000000000e+00  1.9395834054897301e-01 2.9782015379563753e-01 0.0000000000000000e+00  1.9375160162759064e-01 3.0423587490154297e-01 0.0000000000000000e+00  1.9384727463833573e-01 3.0984613050271448e-01 0.0000000000000000e+00  1.9363700384137442e-01 3.1628656690651064e-01 0.0000000000000000e+00  1.9373109542066905e-01 3.2188613666433863e-01 0.0000000000000000e+00  1.9351746107685089e-01 3.2835282904489554e-01 0.0000000000000000e+00  1.9360974091807981e-01 3.3394101966282513e-01 0.0000000000000000e+00  1.9339290220530397e-01 3.4043517351786517e-01 0.0000000000000000e+00  1.9348315237922861e-01 3.4601167025323532e-01 0.0000000000000000e+00  1.9326324744344003e-01 3.5253411126613610e-01 0.0000000000000000e+00  1.9335125762106831e-01 3.5809911906313074e-01 0.0000000000000000e+00  1.9312838993023279e-01 3.6465030500209150e-01 0.0000000000000000e+00  1.9321396012050771e-01 3.7020459147135026e-01 0.0000000000000000e+00  1.9298819324973418e-01 3.7678460882334636e-01 0.0000000000000000e+00  1.9307114682272472e-01 3.8232943021794957e-01 0.0000000000000000e+00  1.9284251179018119e-01 3.8893794386921643e-01 0.0000000000000000e+00  1.9292271079569706e-01 3.9447491460082218e-01 0.0000000000000000e+00  1.9269121791745744e-01 4.0111112291213519e-01 0.0000000000000000e+00  1.9276856538290268e-01 4.0664214351835670e-01 0.0000000000000000e+00  1.9253420771280250e-01 4.1330482431928389e-01 0.0000000000000000e+00  1.9260862873925155e-01 4.1883213345907072e-01 0.0000000000000000e+00  1.9237137447180055e-01 4.2551979201453544e-01 0.0000000000000000e+00  1.9244278617344496e-01 4.3104607885317986e-01 0.0000000000000000e+00  1.9220257375386718e-01 4.3775709184429795e-01 0.0000000000000000e+00  1.9227086741444949e-01 4.4328551002488864e-01 0.0000000000000000e+00  1.9202762198221390e-01 4.5001812492642901e-01 0.0000000000000000e+00  1.9209267139402814e-01 4.5555211573388593e-01 0.0000000000000000e+00  1.9184634011483395e-01 4.6230431590724769e-01 0.0000000000000000e+00  1.9190801840629632e-01 4.6784737334036042e-01 0.0000000000000000e+00  1.9165859531358670e-01 4.7461681242779835e-01 0.0000000000000000e+00  1.9171676803415766e-01 4.8017242596425463e-01 0.0000000000000000e+00  1.9146428439130009e-01 4.8695659803649421e-01 0.0000000000000000e+00  1.9151876928023909e-01 4.9252844617602975e-01 0.0000000000000000e+00  1.9126326069176919e-01 4.9932500786589307e-01 0.0000000000000000e+00  1.9131378845190267e-01 5.0491716042429813e-01 0.0000000000000000e+00  1.9105529020344261e-01 5.1172403459104199e-01 0.0000000000000000e+00  1.9110151819370438e-01 5.1734079394778631e-01 0.0000000000000000e+00  1.9084011370660109e-01 5.2415587539292219e-01 0.0000000000000000e+00  1.9088167544113471e-01 5.2980137916642833e-01 0.0000000000000000e+00  1.9061754264288799e-01 5.3662223701717804e-01 0.0000000000000000e+00  1.9065406458985762e-01 5.4230031227697240e-01 0.0000000000000000e+00  1.9038745887039349e-01 5.4912432912885656e-01 0.0000000000000000e+00  1.9041850400169891e-01 5.5483888841462103e-01 0.0000000000000000e+00  1.9014967350664336e-01 5.6166386880087660e-01 0.0000000000000000e+00  1.9017466973328470e-01 5.6741943044107912e-01 0.0000000000000000e+00  1.8990382902614344e-01 5.7424377711548402e-01 0.0000000000000000e+00  1.8992212274158449e-01 5.8004510120508401e-01 0.0000000000000000e+00  1.8964954522718988e-01 5.8686712730633828e-01 0.0000000000000000e+00  1.8966050899340728e-01 5.9271847250471410e-01 0.0000000000000000e+00  1.8938658709118039e-01 5.9953593518590498e-01 0.0000000000000000e+00  1.8938964423256358e-01 6.0544091942542488e-01 0.0000000000000000e+00  1.8911482587773437e-01 6.1225143512079627e-01 0.0000000000000000e+00  1.8910932074847661e-01 6.1821401217864791e-01 0.0000000000000000e+00  1.8883391408128020e-01 6.2501641675445463e-01 0.0000000000000000e+00  1.8881901196158504e-01 6.3104164520832196e-01 0.0000000000000000e+00  1.8854324601727271e-01 6.3783551073226852e-01 0.0000000000000000e+00  1.8851817101016063e-01 6.4392789029852504e-01 0.0000000000000000e+00  1.8824240633068631e-01 6.5071196029807554e-01 0.0000000000000000e+00  1.8820654389307015e-01 6.5687473954556963e-01 0.0000000000000000e+00  1.8793124801554423e-01 6.6364705792983292e-01 0.0000000000000000e+00  1.8788407844005409e-01 6.6988275799717256e-01 0.0000000000000000e+00  1.8760961337231730e-01 6.7664215873587186e-01 0.0000000000000000e+00  1.8755034680592955e-01 6.8295525190622419e-01 0.0000000000000000e+00  1.8727668684982324e-01 6.8970336006462796e-01 0.0000000000000000e+00  1.8720449102782452e-01 6.9609866592849301e-01 0.0000000000000000e+00  1.8693190798918047e-01 7.0283491102850693e-01 0.0000000000000000e+00  1.8684642994751569e-01 7.0931385499014321e-01 0.0000000000000000e+00  1.8657536062420857e-01 7.1603639557351417e-01 0.0000000000000000e+00  1.8647627317843815e-01 7.2260031452976436e-01 0.0000000000000000e+00  1.8620713553870386e-01 7.2930734161354338e-01 0.0000000000000000e+00  1.8609403004507710e-01 7.3595828464504043e-01 0.0000000000000000e+00  1.8582664856620182e-01 7.4265217294351060e-01 0.0000000000000000e+00  1.8569852546774218e-01 7.4939662036060983e-01 0.0000000000000000e+00  1.8543306585414079e-01 7.5607713446891700e-01 0.0000000000000000e+00  1.8529041023964116e-01 7.6291093681052413e-01 0.0000000000000000e+00  1.8502807105138980e-01 7.6957018358623319e-01 0.0000000000000000e+00  1.8487086776612591e-01 7.7649297957333874e-01 0.0000000000000000e+00  1.8461181320217465e-01 7.8313042792148635e-01 0.0000000000000000e+00  1.8444016729927198e-01 7.9014113791266827e-01 0.0000000000000000e+00  1.8418502801075021e-01 7.9675270205194204e-01 0.0000000000000000e+00  1.8399827644197872e-01 8.0385600577729688e-01 0.0000000000000000e+00  1.8374708205522672e-01 8.1044182482070992e-01 0.0000000000000000e+00  1.8354719218882440e-01 8.1762335461902147e-01 0.0000000000000000e+00  1.8330384635503896e-01 8.2415510654686808e-01 0.0000000000000000e+00  1.8309203423179407e-01 8.3140609767131135e-01 0.0000000000000000e+00  1.8285513177380092e-01 8.3789408791404307e-01 0.0000000000000000e+00  1.8263110890899653e-01 8.4521689850711457e-01 0.0000000000000000e+00  1.8240426639770624e-01 8.5163453595327021e-01 0.0000000000000000e+00  1.8217064452366130e-01 8.5901039462098427e-01 0.0000000000000000e+00  1.8195383421941866e-01 8.6535762339457012e-01 0.0000000000000000e+00  1.8171339664520020e-01 8.7276655015745874e-01 0.0000000000000000e+00  1.8151432540422011e-01 8.7898638939456430e-01 0.0000000000000000e+00  1.8126941427794424e-01 8.8641169413597631e-01 0.0000000000000000e+00  1.8108092037623985e-01 8.9255625546686368e-01 0.0000000000000000e+00  1.8083022165652043e-01 9.0000817512267173e-01 0.0000000000000000e+00  1.8066531832219235e-01 9.0598108554615053e-01 0.0000000000000000e+00  1.8041800364171023e-01 9.1339272791609394e-01 0.0000000000000000e+00  1.8026848424766473e-01 9.1925371986416193e-01 0.0000000000000000e+00  1.8002125807137714e-01 9.2665001015064397e-01 0.0000000000000000e+00  1.7989861179280986e-01 9.3231358332501746e-01 0.0000000000000000e+00  1.7965186619224668e-01 9.3969236687807745e-01 0.0000000000000000e+00  1.7954079101893730e-01 9.4527069379630257e-01 0.0000000000000000e+00  1.7930652946221914e-01 9.5254399332150652e-01 0.0000000000000000e+00  1.7923174204532399e-01 9.5785361566252136e-01 0.0000000000000000e+00  1.7899051233041066e-01 9.6516607335830218e-01 0.0000000000000000e+00  1.7891836657515670e-01 9.7045502537242057e-01 0.0000000000000000e+00  1.7870083730086966e-01 9.7758040330914575e-01 0.0000000000000000e+00  1.7866004822652204e-01 9.8263540954795769e-01 0.0000000000000000e+00  1.7842752962147576e-01 9.8986108657617200e-01 0.0000000000000000e+00  1.7840528631619618e-01 9.9477619703185627e-01 0.0000000000000000e+00  1.7820040774548102e-01 1.0017870475855335e+00 0.0000000000000000e+00  1.7816696445534458e-01 1.0067822166360256e+00 0.0000000000000000e+00  1.7796373753816910e-01 1.0137715980138440e+00 0.0000000000000000e+00  1.7798861401115640e-01 1.0183303532012300e+00 0.0000000000000000e+00  1.7776545774860081e-01 1.0254594834834765e+00 0.0000000000000000e+00  1.7775685060433366e-01 1.0302625420293907e+00 0.0000000000000000e+00  1.7760637605832358e-01 1.0368441905881067e+00 0.0000000000000000e+00  1.7760463328819340e-01 1.0415916854963228e+00 0.0000000000000000e+00  1.7739610739592310e-01 1.0485977857345408e+00 0.0000000000000000e+00  1.7746487768362185e-01 1.0528158051627545e+00 0.0000000000000000e+00  1.7725294602996083e-01 1.0598412805383159e+00 0.0000000000000000e+00  1.7727254087367997e-01 1.0644190906683411e+00 0.0000000000000000e+00  1.7716077293003249e-01 1.0706940353964911e+00 0.0000000000000000e+00  1.7712858083759986e-01 1.0756511863600309e+00 0.0000000000000000e+00  1.7695845813869249e-01 1.0823550606550505e+00 0.0000000000000000e+00  1.7710303701838787e-01 1.0859901379204897e+00 0.0000000000000000e+00  1.7677491036819118e-01 1.0938661202071778e+00 0.0000000000000000e+00  1.7696796818468749e-01 1.0971327552446766e+00 0.0000000000000000e+00  1.7672279608581629e-01 1.1043877370218300e+00 0.0000000000000000e+00  1.7678214746529658e-01 1.1086425771839441e+00 0.0000000000000000e+00  1.7666895732823790e-01 1.1149110816062242e+00 0.0000000000000000e+00  1.7667815401800538e-01 1.1195322429473806e+00 0.0000000000000000e+00  1.7646810721601985e-01 1.1265190622955665e+00 0.0000000000000000e+00  1.7677670000767434e-01 1.1289014584271355e+00 0.0000000000000000e+00  1.7611951886357122e-01 1.1392186603165804e+00 0.0000000000000000e+00  1.7692683278913166e-01 1.1378741135389216e+00 0.0000000000000000e+00  1.7581107814326782e-01 1.1516099925723642e+00 0.0000000000000000e+00  1.7702262505218819e-01 1.1472404018089521e+00 0.0000000000000000e+00  1.7556881609586028e-01 1.1634988013223877e+00 0.0000000000000000e+00  1.7703366116819821e-01 1.1572276175145468e+00 0.0000000000000000e+00  1.7545316133068803e-01 1.1744338002523931e+00 0.0000000000000000e+00  1.7693367333972548e-01 1.1680325129664473e+00 0.0000000000000000e+00  1.7540641200255580e-01 1.1848446230632099e+00 0.0000000000000000e+00  1.7681952655814040e-01 1.1789330997025054e+00 0.0000000000000000e+00  1.7537247082566146e-01 1.1951498471186630e+00 0.0000000000000000e+00  1.7667564614339004e-01 1.1900456581423962e+00 0.0000000000000000e+00  1.7538342449782593e-01 1.2051097286077173e+00 0.0000000000000000e+00  1.7651576955585124e-01 1.2012681203438442e+00 0.0000000000000000e+00  1.7537693129750032e-01 1.2151896519169749e+00 0.0000000000000000e+00  1.7639452731866037e-01 1.2121927661152674e+00 0.0000000000000000e+00  1.7535079196027700e-01 1.2254064083437768e+00 0.0000000000000000e+00  1.7626862792022249e-01 1.2231426819802995e+00 0.0000000000000000e+00  1.7534665744828865e-01 1.2354489157354784e+00 0.0000000000000000e+00  1.7613645245648857e-01 1.2341302065413089e+00 0.0000000000000000e+00  1.7532655989256665e-01 1.2456008654353277e+00 0.0000000000000000e+00  1.7603835240669105e-01 1.2448539422186815e+00 0.0000000000000000e+00  1.7527785178506824e-01 1.2559571368113660e+00 0.0000000000000000e+00  1.7595133742672620e-01 1.2554854094457071e+00 0.0000000000000000e+00  1.7523936745388161e-01 1.2662277003429754e+00 0.0000000000000000e+00  1.7584869616122398e-01 1.2662242590578483e+00 0.0000000000000000e+00  1.7521216659896127e-01 1.2764046247065308e+00 0.0000000000000000e+00  1.7575108958536326e-01 1.2769162342191780e+00 0.0000000000000000e+00  1.7516907136223817e-01 1.2866912290288499e+00 0.0000000000000000e+00  1.7567486993285555e-01 1.2874390622973519e+00 0.0000000000000000e+00  1.7510993870712852e-01 1.2970887974191820e+00 0.0000000000000000e+00  1.7560554864993211e-01 1.2979010237814843e+00 0.0000000000000000e+00  1.7505411191251979e-01 1.3074527052637859e+00 0.0000000000000000e+00  1.7552741210839662e-01 1.3084197916688638e+00 0.0000000000000000e+00  1.7500837457676444e-01 1.3177320594607778e+00 0.0000000000000000e+00  1.7544292163378297e-01 1.3189772763932912e+00 0.0000000000000000e+00  1.7496408694278043e-01 1.3279913079451622e+00 0.0000000000000000e+00  1.7536237577159206e-01 1.3294967553681534e+00 0.0000000000000000e+00  1.7491261476453673e-01 1.3382949107574842e+00 0.0000000000000000e+00  1.7529028342586844e-01 1.3399447495451646e+00 0.0000000000000000e+00  1.7485334558370907e-01 1.3486473395079521e+00 0.0000000000000000e+00  1.7522375251026318e-01 1.3503431108631168e+00 0.0000000000000000e+00  1.7479070858769169e-01 1.3590153613688916e+00 0.0000000000000000e+00  1.7515777465392957e-01 1.3607294759201529e+00 0.0000000000000000e+00  1.7472881092028578e-01 1.3693682298605430e+00 0.0000000000000000e+00  1.7508933973377203e-01 1.3711264076299527e+00 0.0000000000000000e+00  1.7466908312418894e-01 1.3796953992072685e+00 0.0000000000000000e+00  1.7501812728746574e-01 1.3815361312944192e+00 0.0000000000000000e+00  1.7461077118639021e-01 1.3900029239440759e+00 0.0000000000000000e+00  1.7494532595197490e-01 1.3919493042653990e+00 0.0000000000000000e+00  1.7455232201925128e-01 1.4003031288087637e+00 0.0000000000000000e+00  1.7487233728350662e-01 1.4023547011543638e+00 0.0000000000000000e+00  1.7449239162776323e-01 1.4106070427064470e+00 0.0000000000000000e+00  1.7480010093376983e-01 1.4127443203275800e+00 0.0000000000000000e+00  1.7443022110132458e-01 1.4209214836344959e+00 0.0000000000000000e+00  1.7472894267322053e-01 1.4231146647476747e+00 0.0000000000000000e+00  1.7436561876486242e-01 1.4312490202238062e+00 0.0000000000000000e+00  1.7465873126526460e-01 1.4334657320832052e+00 0.0000000000000000e+00  1.7429873183105360e-01 1.4415895860851564e+00 0.0000000000000000e+00  1.7458907726993209e-01 1.4437994868980490e+00 0.0000000000000000e+00  1.7422995277981829e-01 1.4519413819863172e+00 0.0000000000000000e+00  1.7451939386630011e-01 1.4541191363355901e+00 0.0000000000000000e+00  1.7415973197666718e-01 1.4623023098146679e+00 0.0000000000000000e+00  1.7444925371484438e-01 1.4644272301107708e+00 0.0000000000000000e+00  1.7408825703122605e-01 1.4726700884173061e+00 0.0000000000000000e+00  1.7437846920599351e-01 1.4747293154683203e+00 0.0000000000000000e+00  1.7401543601227884e-01 1.4830367180176154e+00 0.0000000000000000e+00  1.7430748509292826e-01 1.4850354786536941e+00 0.0000000000000000e+00  1.7394021669564086e-01 1.4933956085452356e+00 0.0000000000000000e+00  1.7423708416524022e-01 1.4953464582218154e+00 0.0000000000000000e+00  1.7386355964151276e-01 1.5037561737106699e+00 0.0000000000000000e+00  1.7416269870806766e-01 1.5056394007699203e+00 0.0000000000000000e+00  1.7379367581180188e-01 1.5141632096370379e+00 0.0000000000000000e+00  1.7407508291642207e-01 1.5158476198205995e+00 0.0000000000000000e+00  1.7373494074236859e-01 1.5246782933323606e+00 0.0000000000000000e+00  1.7398291362673243e-01 1.5259916120883552e+00 0.0000000000000000e+00  1.7365622769792949e-01 1.5350814381724975e+00 0.0000000000000000e+00  1.7394754529122017e-01 1.5365895194938968e+00 0.0000000000000000e+00  1.7346698619047360e-01 1.5445882944355525e+00 0.0000000000000000e+00  1.7406284814444381e-01 1.5484062697516734e+00 0.0000000000000000e+00  1.7313867610288367e-01 1.5530687163403416e+00 0.0000000000000000e+00  1.7416929647776455e-01 1.5600223233913066e+00 0.0000000000000000e+00  1.7316088386190762e-01 1.5644105153779031e+00 0.0000000000000000e+00  1.7335963972070820e-01 1.5647096020580131e+00 0.0000000000000000e+00  1.7469422903966142e-01 1.5867809576305314e+00 0.0000000000000000e+00  1.7068200100064412e-01 1.5562277216221434e+00 0.0000000000000000e+00  1.7713582527007285e-01 1.6140485606767270e+00 0.0000000000000000e+00  1.6822107315511844e-01 1.5535739592987525e+00 0.0000000000000000e+00  1.6911862651084444e-01 1.5529237297262011e+00 0.0000000000000000e+00  1.5224240468639272e-01 1.4726141192125908e+00 0.0000000000000000e+00  4.1225691881681265e-02 4.3485850012832214e-02 0.0000000000000000e+00  2.4865700609335899e-02 -6.4412749474438247e-01 0.0000000000000000e+00  2.7447945206199805e-02 -4.5512713004961403e-01 0.0000000000000000e+00  2.7643210191504345e-02 -4.9069863606414055e-01 0.0000000000000000e+00  2.6568504482663447e-02 -4.9163788943907111e-01 0.0000000000000000e+00  2.7983400054117535e-02 -4.6956743131517398e-01 0.0000000000000000e+00  2.6436313924536190e-02 -4.8734647552812743e-01 0.0000000000000000e+00  2.8025166133945803e-02 -4.6120693604754259e-01 0.0000000000000000e+00  2.6474967191630193e-02 -4.7839129560711219e-01 0.0000000000000000e+00  2.7977036608077623e-02 -4.5450619568809109e-01 0.0000000000000000e+00 