<?xml version="1.0"?>
<VTKFile type="UnstructuredGrid"  version="0.1"  >
<UnstructuredGrid>
<Piece  NumberOfPoints="801" NumberOfCells="800">
<Points>
<DataArray  type="Float64"  NumberOfComponents="3"  format="ascii">-5 0 0  -4.9875 0 0  -4.975 0 0  -4.9625 0 0  -4.95 0 0  -4.9375 0 0  -4.925 0 0  -4.9125 0 0  -4.9 0 0  -4.8875 0 0  -4.875 0 0  -4.8625 0 0  -4.85 0 0  -4.8375 0 0  -4.825 0 0  -4.8125 0 0  -4.8 0 0  -4.7875 0 0  -4.775 0 0  -4.7625 0 0  -4.75 0 0  -4.7375 0 0  -4.725 0 0  -4.7125 0 0  -4.7 0 0  -4.6875 0 0  -4.675 0 0  -4.6625 0 0  -4.65 0 0  -4.6375 0 0  -4.625 0 0  -4.6125 0 0  -4.6 0 0  -4.5875 0 0  -4.575 0 0  -4.5625 0 0  -4.55 0 0  -4.5375 0 0  -4.525 0 0  -4.5125 0 0  -4.5 0 0  -4.4875 0 0  -4.475 0 0  -4.4625 0 0  -4.45 0 0  -4.4375 0 0  -4.425 0 0  -4.4125 0 0  -4.4 0 0  -4.3875 0 0  -4.375 0 0  -4.3625 0 0  -4.35 0 0  -4.3375 0 0  -4.325 0 0  -4.3125 0 0  -4.3 0 0  -4.2875 0 0  -4.275 0 0  -4.2625 0 0  -4.25 0 0  -4.2375 0 0  -4.225 0 0  -4.2125 0 0  -4.2 0 0  -4.1875 0 0  -4.175 0 0  -4.1625 0 0  -4.15 0 0  -4.1375 0 0  -4.125 0 0  -4.1125 0 0  -4.1 0 0  -4.0875 0 0  -4.075 0 0  -4.0625 0 0  -4.05 0 0  -4.0375 0 0  -4.025 0 0  -4.0125 0 0  -4 0 0  -3.9875 0 0  -3.975 0 0  -3.9625 0 0  -3.95 0 0  -3.9375 0 0  -3.925 0 0  -3.9125 0 0  -3.9 0 0  -3.8875 0 0  -3.875 0 0  -3.8625 0 0  -3.85 0 0  -3.8375 0 0  -3.825 0 0  -3.8125 0 0  -3.8 0 0  -3.7875 0 0  -3.775 0 0  -3.7625 0 0  -3.75 0 0  -3.7375 0 0  -3.725 0 0  -3.7125 0 0  -3.7 0 0  -3.6875 0 0  -3.675 0 0  -3.6625 0 0  -3.65 0 0  -3.6375 0 0  -3.625 0 0  -3.6125 0 0  -3.6 0 0  -3.5875 0 0  -3.575 0 0  -3.5625 0 0  -3.55 0 0  -3.5375 0 0  -3.525 0 0  -3.5125 0 0  -3.5 0 0  -3.4875 0 0  -3.475 0 0  -3.4625 0 0  -3.45 0 0  -3.4375 0 0  -3.425 0 0  -3.4125 0 0  -3.4 0 0  -3.3875 0 0  -3.375 0 0  -3.3625 0 0  -3.35 0 0  -3.3375 0 0  -3.325 0 0  -3.3125 0 0  -3.3 0 0  -3.2875 0 0  -3.275 0 0  -3.2625 0 0  -3.25 0 0  -3.2375 0 0  -3.225 0 0  -3.2125 0 0  -3.2 0 0  -3.1875 0 0  -3.175 0 0  -3.1625 0 0  -3.15 0 0  -3.1375 0 0  -3.125 0 0  -3.1125 0 0  -3.1 0 0  -3.0875 0 0  -3.075 0 0  -3.0625 0 0  -3.05 0 0  -3.0375 0 0  -3.025 0 0  -3.0125 0 0  -3 0 0  -2.9875 0 0  -2.975 0 0  -2.9625 0 0  -2.95 0 0  -2.9375 0 0  -2.925 0 0  -2.9125 0 0  -2.9 0 0  -2.8875 0 0  -2.875 0 0  -2.8625 0 0  -2.85 0 0  -2.8375 0 0  -2.825 0 0  -2.8125 0 0  -2.8 0 0  -2.7875 0 0  -2.775 0 0  -2.7625 0 0  -2.75 0 0  -2.7375 0 0  -2.725 0 0  -2.7125 0 0  -2.7 0 0  -2.6875 0 0  -2.675 0 0  -2.6625 0 0  -2.65 0 0  -2.6375 0 0  -2.625 0 0  -2.6125 0 0  -2.6 0 0  -2.5875 0 0  -2.575 0 0  -2.5625 0 0  -2.55 0 0  -2.5375 0 0  -2.525 0 0  -2.5125 0 0  -2.5 0 0  -2.4875 0 0  -2.475 0 0  -2.4625 0 0  -2.45 0 0  -2.4375 0 0  -2.425 0 0  -2.4125 0 0  -2.4 0 0  -2.3875 0 0  -2.375 0 0  -2.3625 0 0  -2.35 0 0  -2.3375 0 0  -2.325 0 0  -2.3125 0 0  -2.3 0 0  -2.2875 0 0  -2.275 0 0  -2.2625 0 0  -2.25 0 0  -2.2375 0 0  -2.225 0 0  -2.2125 0 0  -2.2 0 0  -2.1875 0 0  -2.175 0 0  -2.1625 0 0  -2.15 0 0  -2.1375 0 0  -2.125 0 0  -2.1125 0 0  -2.1 0 0  -2.0875 0 0  -2.075 0 0  -2.0625 0 0  -2.05 0 0  -2.0375 0 0  -2.025 0 0  -2.0125 0 0  -2 0 0  -1.9875 0 0  -1.975 0 0  -1.9625 0 0  -1.95 0 0  -1.9375 0 0  -1.925 0 0  -1.9125 0 0  -1.9 0 0  -1.8875 0 0  -1.875 0 0  -1.8625 0 0  -1.85 0 0  -1.8375 0 0  -1.825 0 0  -1.8125 0 0  -1.8 0 0  -1.7875 0 0  -1.775 0 0  -1.7625 0 0  -1.75 0 0  -1.7375 0 0  -1.725 0 0  -1.7125 0 0  -1.7 0 0  -1.6875 0 0  -1.675 0 0  -1.6625 0 0  -1.65 0 0  -1.6375 0 0  -1.625 0 0  -1.6125 0 0  -1.6 0 0  -1.5875 0 0  -1.575 0 0  -1.5625 0 0  -1.55 0 0  -1.5375 0 0  -1.525 0 0  -1.5125 0 0  -1.5 0 0  -1.4875 0 0  -1.475 0 0  -1.4625 0 0  -1.45 0 0  -1.4375 0 0  -1.425 0 0  -1.4125 0 0  -1.4 0 0  -1.3875 0 0  -1.375 0 0  -1.3625 0 0  -1.35 0 0  -1.3375 0 0  -1.325 0 0  -1.3125 0 0  -1.3 0 0  -1.2875 0 0  -1.275 0 0  -1.2625 0 0  -1.25 0 0  -1.2375 0 0  -1.225 0 0  -1.2125 0 0  -1.2 0 0  -1.1875 0 0  -1.175 0 0  -1.1625 0 0  -1.15 0 0  -1.1375 0 0  -1.125 0 0  -1.1125 0 0  -1.1 0 0  -1.0875 0 0  -1.075 0 0  -1.0625 0 0  -1.05 0 0  -1.0375 0 0  -1.025 0 0  -1.0125 0 0  -1 0 0  -0.9874999999999998 0 0  -0.9749999999999996 0 0  -0.9625000000000004 0 0  -0.9500000000000002 0 0  -0.9375 0 0  -0.9249999999999998 0 0  -0.9124999999999996 0 0  -0.9000000000000004 0 0  -0.8875000000000002 0 0  -0.875 0 0  -0.8624999999999998 0 0  -0.8499999999999996 0 0  -0.8375000000000004 0 0  -0.8250000000000002 0 0  -0.8125 0 0  -0.7999999999999998 0 0  -0.7874999999999996 0 0  -0.7750000000000004 0 0  -0.7625000000000002 0 0  -0.75 0 0  -0.7374999999999998 0 0  -0.7249999999999996 0 0  -0.7125000000000004 0 0  -0.7000000000000002 0 0  -0.6875 0 0  -0.6749999999999998 0 0  -0.6624999999999996 0 0  -0.6500000000000004 0 0  -0.6375000000000002 0 0  -0.625 0 0  -0.6124999999999998 0 0  -0.5999999999999996 0 0  -0.5875000000000004 0 0  -0.5750000000000002 0 0  -0.5625 0 0  -0.5499999999999998 0 0  -0.5374999999999996 0 0  -0.5250000000000004 0 0  -0.5125000000000002 0 0  -0.5 0 0  -0.4874999999999998 0 0  -0.4749999999999996 0 0  -0.4625000000000004 0 0  -0.4500000000000002 0 0  -0.4375 0 0  -0.4249999999999998 0 0  -0.4124999999999996 0 0  -0.4000000000000004 0 0  -0.3875000000000002 0 0  -0.375 0 0  -0.3624999999999998 0 0  -0.3499999999999996 0 0  -0.3375000000000004 0 0  -0.3250000000000002 0 0  -0.3125 0 0  -0.2999999999999998 0 0  -0.2874999999999996 0 0  -0.2750000000000004 0 0  -0.2625000000000002 0 0  -0.25 0 0  -0.2374999999999998 0 0  -0.2249999999999996 0 0  -0.2125000000000004 0 0  -0.2000000000000002 0 0  -0.1875 0 0  -0.1749999999999998 0 0  -0.1624999999999996 0 0  -0.1500000000000004 0 0  -0.1375000000000002 0 0  -0.125 0 0  -0.1124999999999998 0 0  -0.09999999999999964 0 0  -0.08750000000000036 0 0  -0.07500000000000018 0 0  -0.0625 0 0  -0.04999999999999982 0 0  -0.03749999999999964 0 0  -0.02500000000000036 0 0  -0.01250000000000018 0 0  0 0 0  0.01250000000000018 0 0  0.02500000000000036 0 0  0.03749999999999964 0 0  0.04999999999999982 0 0  0.0625 0 0  0.07500000000000018 0 0  0.08750000000000036 0 0  0.09999999999999964 0 0  0.1124999999999998 0 0  0.125 0 0  0.1375000000000002 0 0  0.1500000000000004 0 0  0.1624999999999996 0 0  0.1749999999999998 0 0  0.1875 0 0  0.2000000000000002 0 0  0.2125000000000004 0 0  0.2249999999999996 0 0  0.2374999999999998 0 0  0.25 0 0  0.2625000000000002 0 0  0.2750000000000004 0 0  0.2874999999999996 0 0  0.2999999999999998 0 0  0.3125 0 0  0.3250000000000002 0 0  0.3375000000000004 0 0  0.3499999999999996 0 0  0.3624999999999998 0 0  0.375 0 0  0.3875000000000002 0 0  0.4000000000000004 0 0  0.4124999999999996 0 0  0.4249999999999998 0 0  0.4375 0 0  0.4500000000000002 0 0  0.4625000000000004 0 0  0.4749999999999996 0 0  0.4874999999999998 0 0  0.5 0 0  0.5125000000000002 0 0  0.5250000000000004 0 0  0.5374999999999996 0 0  0.5499999999999998 0 0  0.5625 0 0  0.5750000000000002 0 0  0.5875000000000004 0 0  0.5999999999999996 0 0  0.6124999999999998 0 0  0.625 0 0  0.6375000000000002 0 0  0.6500000000000004 0 0  0.6624999999999996 0 0  0.6749999999999998 0 0  0.6875 0 0  0.7000000000000002 0 0  0.7125000000000004 0 0  0.7249999999999996 0 0  0.7374999999999998 0 0  0.75 0 0  0.7625000000000002 0 0  0.7750000000000004 0 0  0.7874999999999996 0 0  0.7999999999999998 0 0  0.8125 0 0  0.8250000000000002 0 0  0.8375000000000004 0 0  0.8499999999999996 0 0  0.8624999999999998 0 0  0.875 0 0  0.8875000000000002 0 0  0.9000000000000004 0 0  0.9124999999999996 0 0  0.9249999999999998 0 0  0.9375 0 0  0.9500000000000002 0 0  0.9625000000000004 0 0  0.9749999999999996 0 0  0.9874999999999998 0 0  1 0 0  1.0125 0 0  1.025 0 0  1.0375 0 0  1.05 0 0  1.0625 0 0  1.075 0 0  1.0875 0 0  1.1 0 0  1.1125 0 0  1.125 0 0  1.1375 0 0  1.15 0 0  1.1625 0 0  1.175 0 0  1.1875 0 0  1.2 0 0  1.2125 0 0  1.225 0 0  1.2375 0 0  1.25 0 0  1.2625 0 0  1.275 0 0  1.2875 0 0  1.3 0 0  1.3125 0 0  1.325 0 0  1.3375 0 0  1.35 0 0  1.3625 0 0  1.375 0 0  1.3875 0 0  1.4 0 0  1.4125 0 0  1.425 0 0  1.4375 0 0  1.45 0 0  1.4625 0 0  1.475 0 0  1.4875 0 0  1.5 0 0  1.5125 0 0  1.525 0 0  1.5375 0 0  1.55 0 0  1.5625 0 0  1.575 0 0  1.5875 0 0  1.6 0 0  1.6125 0 0  1.625 0 0  1.6375 0 0  1.65 0 0  1.6625 0 0  1.675 0 0  1.6875 0 0  1.7 0 0  1.7125 0 0  1.725 0 0  1.7375 0 0  1.75 0 0  1.7625 0 0  1.775 0 0  1.7875 0 0  1.8 0 0  1.8125 0 0  1.825 0 0  1.8375 0 0  1.85 0 0  1.8625 0 0  1.875 0 0  1.8875 0 0  1.9 0 0  1.9125 0 0  1.925 0 0  1.9375 0 0  1.95 0 0  1.9625 0 0  1.975 0 0  1.9875 0 0  2 0 0  2.0125 0 0  2.025 0 0  2.0375 0 0  2.05 0 0  2.0625 0 0  2.075 0 0  2.0875 0 0  2.1 0 0  2.1125 0 0  2.125 0 0  2.1375 0 0  2.15 0 0  2.1625 0 0  2.175 0 0  2.1875 0 0  2.2 0 0  2.2125 0 0  2.225 0 0  2.2375 0 0  2.25 0 0  2.2625 0 0  2.275 0 0  2.2875 0 0  2.3 0 0  2.3125 0 0  2.325 0 0  2.3375 0 0  2.35 0 0  2.3625 0 0  2.375 0 0  2.3875 0 0  2.4 0 0  2.4125 0 0  2.425 0 0  2.4375 0 0  2.45 0 0  2.4625 0 0  2.475 0 0  2.4875 0 0  2.5 0 0  2.5125 0 0  2.525 0 0  2.5375 0 0  2.55 0 0  2.5625 0 0  2.575 0 0  2.5875 0 0  2.6 0 0  2.6125 0 0  2.625 0 0  2.6375 0 0  2.65 0 0  2.6625 0 0  2.675 0 0  2.6875 0 0  2.7 0 0  2.7125 0 0  2.725 0 0  2.7375 0 0  2.75 0 0  2.7625 0 0  2.775 0 0  2.7875 0 0  2.8 0 0  2.8125 0 0  2.825 0 0  2.8375 0 0  2.85 0 0  2.8625 0 0  2.875 0 0  2.8875 0 0  2.9 0 0  2.9125 0 0  2.925 0 0  2.9375 0 0  2.95 0 0  2.9625 0 0  2.975 0 0  2.9875 0 0  3 0 0  3.012499999999999 0 0  3.025 0 0  3.0375 0 0  3.050000000000001 0 0  3.0625 0 0  3.074999999999999 0 0  3.0875 0 0  3.1 0 0  3.112500000000001 0 0  3.125 0 0  3.137499999999999 0 0  3.15 0 0  3.1625 0 0  3.175000000000001 0 0  3.1875 0 0  3.199999999999999 0 0  3.2125 0 0  3.225 0 0  3.237500000000001 0 0  3.25 0 0  3.262499999999999 0 0  3.275 0 0  3.2875 0 0  3.300000000000001 0 0  3.3125 0 0  3.324999999999999 0 0  3.3375 0 0  3.35 0 0  3.362500000000001 0 0  3.375 0 0  3.387499999999999 0 0  3.4 0 0  3.4125 0 0  3.425000000000001 0 0  3.4375 0 0  3.449999999999999 0 0  3.4625 0 0  3.475 0 0  3.4875
[...]
<PointData  Vectors="(h, u)"> 
<DataArray  type="Float64"  Name="(h, u)"  NumberOfComponents="3" format="ascii">1.2369139037497241e-01 0.0000000000000000e+00 0.0000000000000000e+00  1.2313039567862288e-01 4.3957721424783989e-03 0.0000000000000000e+00  1.2368906610610646e-01 8.6148266304379266e-03 0.0000000000000000e+00  1.2312923408113066e-01 1.3183773832947485e-02 0.0000000000000000e+00  1.2368205992169730e-01 1.7236901045632289e-02 0.0000000000000000e+00  1.2312695280443960e-01 2.1961255942414531e-02 0.0000000000000000e+00  1.2367025409979265e-01 2.5873416539793206e-02 0.0000000000000000e+00  1.2312368092778736e-01 3.0721404642361942e-02 0.0000000000000000e+00  1.2365339217464261e-01 3.4531739645897119e-02 0.0000000000000000e+00  1.2311972457609012e-01 3.9457195774352680e-02 0.0000000000000000e+00  1.2363098583050333e-01 4.3220103325346287e-02 0.0000000000000000e+00  1.2311569548246855e-01 4.8160482702082202e-02 0.0000000000000000e+00  1.2360218851849596e-01 5.1948768182473994e-02 0.0000000000000000e+00  1.2311265997939443e-01 5.6820660230163939e-02 0.0000000000000000e+00  1.2356565691472954e-01 6.0731427939839877e-02 0.0000000000000000e+00  1.2311227295792165e-01 6.5423259626140429e-02 0.0000000000000000e+00  1.2351944136711206e-01 6.9586418119810867e-02 0.0000000000000000e+00  1.2311684517233662e-01 7.3949018766653898e-02 0.0000000000000000e+00  1.2346096287362232e-01 7.8537145843849188e-02 0.0000000000000000e+00  1.2312928519715234e-01 8.2374041224179156e-02 0.0000000000000000e+00  1.2338713755830207e-01 8.7611158799166478e-02 0.0000000000000000e+00  1.2315286644341385e-01 9.0671557932500049e-02 0.0000000000000000e+00  1.2329469295466038e-01 9.6837453657307643e-02 0.0000000000000000e+00  1.2319079795892562e-01 9.8815520504118015e-02 0.0000000000000000e+00  1.2318068220912068e-01 1.0624198396709365e-01 0.0000000000000000e+00  1.2324562234659225e-01 1.0678582182989874e-01 0.0000000000000000e+00  1.2304314871478614e-01 1.1584180318706604e-01 0.0000000000000000e+00  1.2331851609604934e-01 1.1457444416535942e-01 0.0000000000000000e+00  1.2288183786320656e-01 1.2563875840521738e-01 0.0000000000000000e+00  1.2340861386820080e-01 1.2219140204280210e-01 0.0000000000000000e+00  1.2269881145017697e-01 1.3561399987737169e-01 0.0000000000000000e+00  1.2351250481371381e-01 1.2966911117571903e-01 0.0000000000000000e+00  1.2249880907620164e-01 1.4572467286725710e-01 0.0000000000000000e+00  1.2362404467645938e-01 1.3706388068922645e-01 0.0000000000000000e+00  1.2228922791621302e-01 1.5590394690110340e-01 0.0000000000000000e+00  1.2373458738231491e-01 1.4445363257151830e-01 0.0000000000000000e+00  1.2207965531611753e-01 1.6606502379141141e-01 0.0000000000000000e+00  1.2383366791195653e-01 1.5193164407666887e-01 0.0000000000000000e+00  1.2188097500885510e-01 1.7610903637619266e-01 0.0000000000000000e+00  1.2391007755430514e-01 1.5959693961606594e-01 0.0000000000000000e+00  1.2170415731893143e-01 1.8593595091851531e-01 0.0000000000000000e+00  1.2395318348374662e-01 1.6754272414257326e-01 0.0000000000000000e+00  1.2155891533983747e-01 1.9545689047822548e-01 0.0000000000000000e+00  1.2395428023320916e-01 1.7584474471127012e-01 0.0000000000000000e+00  1.2145244639571018e-01 2.0460586604927636e-01 0.0000000000000000e+00  1.2390774026677875e-01 1.8455155146517674e-01 0.0000000000000000e+00  1.2138847289469479e-01 2.1334885597262049e-01 0.0000000000000000e+00  1.2381176219676160e-01 1.9367828415019639e-01 0.0000000000000000e+00  1.2136674903596120e-01 2.2168856268284279e-01 0.0000000000000000e+00  1.2366859073463311e-01 2.0320494161318314e-01 0.0000000000000000e+00  1.2138311794379804e-01 2.2966395214102084e-01 0.0000000000000000e+00  1.2348418244539225e-01 2.1307928069222515e-01 0.0000000000000000e+00  1.2143010362533331e-01 2.3734468590856797e-01 0.0000000000000000e+00  1.2326739088171815e-01 2.2322372445010874e-01 0.0000000000000000e+00  1.2149792460687008e-01 2.4482154998711647e-01 0.0000000000000000e+00  1.2302882126241604e-01 2.3354508121531029e-01 0.0000000000000000e+00  1.2157574279574584e-01 2.5219471791671888e-01 0.0000000000000000e+00  1.2277954601320340e-01 2.4394554955403805e-01 0.0000000000000000e+00  1.2165293087261415e-01 2.5956195835934870e-01 0.0000000000000000e+00  1.2252987910209150e-01 2.5433338865164640e-01 0.0000000000000000e+00  1.2172016359489307e-01 2.6700863498134314e-01 0.0000000000000000e+00  1.2228838557933205e-01 2.6463173652392763e-01 0.0000000000000000e+00  1.2177020150413755e-01 2.7460068787486425e-01 0.0000000000000000e+00  1.2206125358040007e-01 2.7478440186750275e-01 0.0000000000000000e+00  1.2179831007437546e-01 2.8238104036473849e-01 0.0000000000000000e+00  1.2185208016152890e-01 2.8475807197600883e-01 0.0000000000000000e+00  1.2180231912838481e-01 2.9036928800011852e-01 0.0000000000000000e+00  1.2166203730972172e-01 2.9454112797477799e-01 0.0000000000000000e+00  1.2178237197255247e-01 2.9856413981953989e-01 0.0000000000000000e+00  1.2149031671235713e-01 3.0413989416984444e-01 0.0000000000000000e+00  1.2174044186634567e-01 3.0694787048359562e-01 0.0000000000000000e+00  1.2133471594712446e-01 3.1357351685425000e-01 0.0000000000000000e+00  1.2167970670485931e-01 3.1549196644492539e-01 0.0000000000000000e+00  1.2119223603171453e-01 3.2286864424135903e-01 0.0000000000000000e+00  1.2160388886972362e-01 3.2416303277851227e-01 0.0000000000000000e+00  1.2105961925929523e-01 3.3205457370769198e-01 0.0000000000000000e+00  1.2151668816919255e-01 3.3292784536877590e-01 0.0000000000000000e+00  1.2093382180908518e-01 3.4115894878500302e-01 0.0000000000000000e+00  1.2142140538137655e-01 3.4175669714239010e-01 0.0000000000000000e+00  1.2081240761356740e-01 3.5020415247012371e-01 0.0000000000000000e+00  1.2132074711025663e-01 3.5062513313414118e-01 0.0000000000000000e+00  1.2069379487426607e-01 3.5920502718965508e-01 0.0000000000000000e+00  1.2121672828910932e-01 3.5951482697116627e-01 0.0000000000000000e+00  1.2057730665716321e-01 3.6816836405832765e-01 0.0000000000000000e+00  1.2111063031870069e-01 3.6841397054561237e-01 0.0000000000000000e+00  1.2046305738729750e-01 3.7709387820065915e-01 0.0000000000000000e+00  1.2100302578018246e-01 3.7731707077533644e-01 0.0000000000000000e+00  1.2035172982623507e-01 3.8597618116771321e-01 0.0000000000000000e+00  1.2089388812619065e-01 3.8622398214416409e-01 0.0000000000000000e+00  1.2024432264759610e-01 3.9480703132941741e-01 0.0000000000000000e+00  1.2078285961932975e-01 3.9513751132108643e-01 0.0000000000000000e+00  1.2014200011658284e-01 4.0357667913371387e-01 0.0000000000000000e+00  1.2066969909203701e-01 4.0405939760369608e-01 0.0000000000000000e+00  1.2004599022898098e-01 4.1227478870923573e-01 0.0000000000000000e+00  1.2055461804665141e-01 4.1298729925834637e-01 0.0000000000000000e+00  1.1995724113504559e-01 4.2089354684312097e-01 0.0000000000000000e+00  1.2043822323059337e-01 4.2191533012968585e-01 0.0000000000000000e+00  1.1987593406560190e-01 4.2943206856216781e-01 0.0000000000000000e+00  1.2032139541703596e-01 4.3083516567950242e-01 0.0000000000000000e+00  1.1980143339420476e-01 4.3789685322891692e-01 0.0000000000000000e+00  1.2020546838418553e-01 4.3973442645403149e-01 0.0000000000000000e+00  1.1973268191059591e-01 4.4629820840491569e-01 0.0000000000000000e+00  1.2009230576181180e-01 4.4859597674301233e-01 0.0000000000000000e+00  1.1966848760652199e-01 4.5464763885805426e-01 0.0000000000000000e+00  1.1998400593017704e-01 4.5740058433219349e-01 0.0000000000000000e+00  1.1960770241555964e-01 4.6295620526597497e-01 0.0000000000000000e+00  1.1988251170680214e-01 4.6613044707249252e-01 0.0000000000000000e+00  1.1954927550856728e-01 4.7123402079648996e-01 0.0000000000000000e+00  1.1978901064928002e-01 4.7477462462538134e-01 0.0000000000000000e+00  1.1949205893207954e-01 4.7949199582338015e-01 0.0000000000000000e+00  1.1970372233678953e-01 4.8333097584315432e-01 0.0000000000000000e+00  1.1943543435509046e-01 4.8773616228028416e-01 0.0000000000000000e+00  1.1962691419406760e-01 4.9179697882910461e-01 0.0000000000000000e+00  1.1938015499815208e-01 4.9596005970479345e-01 0.0000000000000000e+00  1.1955889419117773e-01 5.0016981517954662e-01 0.0000000000000000e+00  1.1932694885499442e-01 5.0415739300022488e-01 0.0000000000000000e+00  1.1949848823953899e-01 5.0846016475023847e-01 0.0000000000000000e+00  1.1927560203768074e-01 5.1233033487254820e-01 0.0000000000000000e+00  1.1944414215386401e-01 5.1668221217612298e-01 0.0000000000000000e+00  1.1922677723782288e-01 5.2047305291962576e-01 0.0000000000000000e+00  1.1939550691964718e-01 5.2483928142247771e-01 0.0000000000000000e+00  1.1918162210026391e-01 5.2857526864551752e-01 0.0000000000000000e+00  1.1935199037142394e-01 5.3293696288918646e-01 0.0000000000000000e+00  1.1914035935196775e-01 5.3663503146370040e-01 0.0000000000000000e+00  1.1931269531954179e-01 5.4098367106682710e-01 0.0000000000000000e+00  1.1910287587077276e-01 5.4465336326769243e-01 0.0000000000000000e+00  1.1927667935428382e-01 5.4898830256035480e-01 0.0000000000000000e+00  1.1906861374152793e-01 5.5263521977071950e-01 0.0000000000000000e+00  1.1924361267532607e-01 5.5695429964736587e-01 0.0000000000000000e+00  1.1903840986693924e-01 5.6057276699579262e-01 0.0000000000000000e+00  1.1921469644556541e-01 5.6487139012505250e-01 0.0000000000000000e+00  1.1901224000710152e-01 5.6846579155857979e-01 0.0000000000000000e+00  1.1918814327599889e-01 5.7275666175351092e-01 0.0000000000000000e+00  1.1898750326773382e-01 5.7633713161140532e-01 0.0000000000000000e+00  1.1916361903834932e-01 5.8061436157891289e-01 0.0000000000000000e+00  1.1896616013373519e-01 5.8416777739679115e-01 0.0000000000000000e+00  1.1914374093994803e-01 5.8842252397675587e-01 0.0000000000000000e+00  1.1894758788432487e-01 5.9196153216935932e-01 0.0000000000000000e+00  1.1912569296273094e-01 5.9620926763962645e-01 0.0000000000000000e+00  1.1892918315622232e-01 5.9973920749084308e-01 0.0000000000000000e+00  1.1911049826036722e-01 6.0396894694434555e-01 0.0000000000000000e+00  1.1891297124357549e-01 6.0747830178317908e-01 0.0000000000000000e+00  1.1909903257984346e-01 6.1169881302056528e-01 0.0000000000000000e+00  1.1889734645454780e-01 6.1518748306425153e-01 0.0000000000000000e+00  1.1909071249758424e-01 6.1941144057351016e-01 0.0000000000000000e+00  1.1888230868836684e-01 6.2285840298466288e-01 0.0000000000000000e+00  1.1908523295183690e-01 6.2711967885621411e-01 0.0000000000000000e+00  1.1886556936828743e-01 6.3050025172470170e-01 0.0000000000000000e+00  1.1908353813477668e-01 6.3482870101899325e-01 0.0000000000000000e+00  1.1885031472657036e-01 6.3806832223468724e-01 0.0000000000000000e+00  1.1908833771761955e-01 6.4253243941940297e-01 0.0000000000000000e+00  1.1883034173336064e-01 6.4559781963075036e-01 0.0000000000000000e+00  1.1909495497035241e-01 6.5029778654934922e-01 0.0000000000000000e+00  1.1880670687920789e-01 6.5305132289167689e-01 0.0000000000000000e+00  1.1911425686303613e-01 6.5805786617693807e-01 0.0000000000000000e+00  1.1877852965002558e-01 6.6040104574820280e-01 0.0000000000000000e+00  1.1913907255068854e-01 6.6591827053102060e-01 0.0000000000000000e+00  1.1873737150497733e-01 6.6767832508818359e-01 0.0000000000000000e+00  1.1917938938347047e-01 6.7383872310038195e-01 0.0000000000000000e+00  1.1868786054091432e-01 6.7478527725200677e-01 0.0000000000000000e+00  1.1923414267294560e-01 6.8189034630166823e-01 0.0000000000000000e+00  1.1861920864243429e-01 6.8175257684947910e-01 0.0000000000000000e+00  1.1931023851106715e-01 6.9008319805096707e-01 0.0000000000000000e+00  1.1853181565393564e-01 6.8849775797845958e-01 0.0000000000000000e+00  1.1940746585298612e-01 6.9850291485376403e-01 0.0000000000000000e+00  1.1841825210647300e-01 6.9499883270835350e-01 0.0000000000000000e+00  1.1953997749249526e-01 7.0711397690409139e-01 0.0000000000000000e+00  1.1827509319736237e-01 7.0118913131489913e-01 0.0000000000000000e+00  1.1969803209893429e-01 7.1610357332833208e-01 0.0000000000000000e+00  1.1809339869649584e-01 7.0704781877825595e-01 0.0000000000000000e+00  1.1990847264960827e-01 7.2532762355171909e-01 0.0000000000000000e+00  1.1787372685855525e-01 7.1246952402203789e-01 0.0000000000000000e+00  1.2014989108089912e-01 7.3507301303169603e-01 0.0000000000000000e+00  1.1760253299118988e-01 7.1748731413378297e-01 0.0000000000000000e+00  1.2045554309464200e-01 7.4511464407178740e-01 0.0000000000000000e+00  1.1728446183750908e-01 7.2198915162006472e-01 0.0000000000000000e+00  1.2079921307044850e-01 7.5573902062672471e-01 0.0000000000000000e+00  1.1691463639488205e-01 7.2598259487532435e-01 0.0000000000000000e+00  1.2120871455940908e-01 7.6670327964840024e-01 0.0000000000000000e+00  1.1648749160995828e-01 7.2952704845150507e-01 0.0000000000000000e+00  1.2166032256409477e-01 7.7817829741512257e-01 0.0000000000000000e+00  1.1602586549404377e-01 7.3248225495810437e-01 0.0000000000000000e+00  1.2215715252331301e-01 7.9002914222886345e-01 0.0000000000000000e+00  1.1550380077318462e-01 7.3522319735209052e-01 0.0000000000000000e+00  1.2269871343098106e-01 8.0208039215934734e-01 0.0000000000000000e+00  1.1497686955839820e-01 7.3745821740607664e-01 0.0000000000000000e+00  1.2323696070013554e-01 8.1451241979320432e-01 0.0000000000000000e+00  1.1442019201475531e-01 7.3971182291553028e-01 0.0000000000000000e+00  1.2381422466100628e-01 8.2661746052735785e-01 0.0000000000000000e+00  1.1387662331655884e-01 7.4196168527118200e-01 0.0000000000000000e+00  1.2433184632190737e-01 8.3889768107840357e-01 0.0000000000000000e+00  1.1338246163876754e-01 7.4430742392268512e-01 0.0000000000000000e+00  1.2483341990693635e-01 8.5053526155711101e-01 0.0000000000000000e+00  1.1290980561004449e-01 7.4747124178140001e-01 0.0000000000000000e+00  1.2526767279932571e-01 8.6154863887960920e-01 0.0000000000000000e+00  1.1255363141665067e-01 7.5105008115075922e-01 0.0000000000000000e+00  1.2556896212804511e-01 8.7210740983114576e-01 0.0000000000000000e+00  1.1229929182412038e-01 7.5561234909725905e-01 0.0000000000000000e+00  1.2580694678375148e-01 8.8122338597855931e-01 0.0000000000000000e+00  1.1212279540113490e-01 7.6173014250712812e-01 0.0000000000000000e+00  1.2589190155623514e-01 8.8942654371789309e-01 0.0000000000000000e+00  1.1216098266602521e-01 7.6837743816240733e-01 0.0000000000000000e+00  1.2578322435223505e-01 8.9693493482084485e-01 0.0000000000000000e+00  1.1229972817801397e-01 7.7668857029770499e-01 0.0000000000000000e+00  1.2562944877720869e-01 9.0241676309730789e-01 0.0000000000000000e+00  1.1252940644223804e-01 7.8666517041159290e-01 0.0000000000000000e+00  1.2529835444013049e-01 9.0720733345514526e-01 0.0000000000000000e+00  1.1297851110653891e-01 7.9686763634571800e-01 0.0000000000000000e+00  1.2477551594352462e-01 9.1173890896457344e-01 0.0000000000000000e+00  1.1351910589107421e-01 8.0806730704033036e-01 0.0000000000000000e+00  1.2426453412380865e-01 9.1461853815437111e-01 0.0000000000000000e+00  1.1401250708809967e-01 8.2101888073812812e-01 0.0000000000000000e+00  1.2375846205560495e-01 9.1642921488172047e-01 0.0000000000000000e+00  1.1461712907749459e-01 8.3367851224631107e-01 0.0000000000000000e+00  1.2304903637531581e-01 9.1960498707231708e-01 0.0000000000000000e+00  1.1538170750445639e-01 8.4499657126449690e-01 0.0000000000000000e+00  1.2230949066501762e-01 9.2314566499031481e-01 0.0000000000000000e+00  1.1600351305856940e-01 8.5719455000661471e-01 0.0000000000000000e+00  1.2183006378725765e-01 9.2494197114352172e-01 0.0000000000000000e+00  1.1638027582400676e-01 8.7075589528338304e-01 0.0000000000000000e+00  1.2152340578389707e-01 9.2617966361478465e-01 0.0000000000000000e+00  1.1672680873313894e-01 8.8338603544131256e-01 0.0000000000000000e+00  1.2111571732039593e-01 9.2958855007890462e-01 0.0000000000000000e+00  1.1725288822401304e-01 8.9297639811364471e-01 0.0000000000000000e+00  1.2050036207331460e-01 9.3624507267606771e-01 0.0000000000000000e+00  1.1790054097612671e-01 9.0000594626142050e-01 0.0000000000000000e+00  1.1986912243031499e-01 9.4439827634398643e-01 0.0000000000000000e+00  1.1843056085422220e-01 9.0674089012031067e-01 0.0000000000000000e+00  1.1944130953208178e-01 9.5194386681246723e-01 0.0000000000000000e+00  1.1872481607718638e-01 9.1444798816006312e-01 0.0000000000000000e+00  1.1924997071740621e-01 9.5838823765764170e-01 0.0000000000000000e+00  1.1881896128459572e-01 9.2304905949070482e-01 0.0000000000000000e+00  1.1922838684734452e-01 9.6409873563853932e-01 0.0000000000000000e+00  1.1879278524408121e-01 9.3207440676474196e-01 0.0000000000000000e+00  1.1928746474669881e-01 9.6963740791464281e-01 0.0000000000000000e+00  1.1873131448549963e-01 9.4098336982804576e-01 0.0000000000000000e+00  1.1934801962357820e-01 9.7549994579748833e-01 0.0000000000000000e+00  1.1868767263413006e-01 9.4948179891293738e-01 0.0000000000000000e+00  1.1938148233594623e-01 9.8176911409215617e-01 0.0000000000000000e+00  1.1866676008476924e-01 9.5766212972924258e-01 0.0000000000000000e+00  1.1939574068430528e-01 9.8825297133905976e-01 0.0000000000000000e+00  1.1865974803871111e-01 9.6569075567067475e-01 0.0000000000000000e+00  1.1939499776471062e-01 9.9484676543624695e-01 0.0000000000000000e+00  1.1866832040371468e-01 9.7359495746928360e-01 0.0000000000000000e+00  1.1937437593096510e-01 1.0015714684678882e+00 0.0000000000000000e+00  1.1869594828292301e-01 9.8135321116933139e-01 0.0000000000000000e+00  1.1933394087437445e-01 1.0084323323511268e+00 0.0000000000000000e+00  1.1873878455284978e-01 9.8899004417395575e-01 0.0000000000000000e+00  1.1928052257258448e-01 1.0153882517505446e+00 0.0000000000000000e+00  1.1878908589943785e-01 9.9655584529079377e-01 0.0000000000000000e+00  1.1922676161525810e-01 1.0223492260535989e+00 0.0000000000000000e+00  1.1883322889517335e-01 1.0041531938552870e+00 0.0000000000000000e+00  1.1919591430554209e-01 1.0291255738924305e+00 0.0000000000000000e+00  1.1889035077272923e-01 1.0115913191387622e+00 0.0000000000000000e+00  1.1913112145687176e-01 1.0362478265789583e+00 0.0000000000000000e+00  1.1916270454662452e-01 1.0170236264309751e+00 0.0000000000000000e+00  1.1873786359718004e-01 1.0463972720300816e+00 0.0000000000000000e+00  1.1990920409964109e-01 1.0180985852830760e+00 0.0000000000000000e+00  1.1782082824283649e-01 1.0613559231915546e+00 0.0000000000000000e+00  1.2066955158131822e-01 1.0189914428751439e+00 0.0000000000000000e+00  1.1718523441161836e-01 1.0738123488496361e+00 0.0000000000000000e+00  1.2053119213816099e-01 1.0279781037219553e+00 0.0000000000000000e+00  1.1759577860766679e-01 1.0767903244570329e+00 0.0000000000000000e+00  1.2000189281385648e-01 1.0404691971842401e+00 0.0000000000000000e+00  1.1803764296804727e-01 1.0795109078690246e+00 0.0000000000000000e+00  1.1975662119294106e-01 1.0503498010608761e+00 0.0000000000000000e+00  1.1832150878886669e-01 1.0836895852509449e+00 0.0000000000000000e+00  1.1919876748807297e-01 1.0630353457109039e+00 0.0000000000000000e+00  1.1911805246318737e-01 1.0832237772096138e+00 0.0000000000000000e+00  1.1812115739992729e-01 1.0804214258520795e+00 0.0000000000000000e+00  1.2061688686737994e-01 1.0764079726891485e+00 0.0000000000000000e+00  1.1629607779689080e-01 1.1046151647302791e+00 0.0000000000000000e+00  1.2330161547314070e-01 1.0589235940624548e+00 0.0000000000000000e+00  1.1373112243971728e-01 1.1356177461956247e+00 0.0000000000000000e+00  1.2687851120735330e-01 1.0335333781535283e+00 0.0000000000000000e+00  1.1101765486101914e-01 1.1680959652970746e+00 0.0000000000000000e+00  1.3021817363559526e-01 1.0104340788641761e+00 0.0000000000000000e+00  1.0889196171067088e-01 1.1952973653773125e+00 0.0000000000000000e+00  1.2977036442132150e-01 1.0212938490681573e+00 0.0000000000000000e+00  1.1133503168010193e-01 1.1803819673320972e+00 0.0000000000000000e+00  1.2115968583681425e-01 1.1057994428226692e+00 0.0000000000000000e+00  1.2136357012241895e-01 1.0963609352046888e+00 0.0000000000000000e+00  1.1278783951565563e-01 1.1889993348278083e+00 0.0000000000000000e+00  1.2793817716096501e-01 1.0445451998191861e+00 0.0000000000000000e+00  1.112542