<?xml version="1.0"?>
<VTKFile type="UnstructuredGrid"  version="0.1"  >
<UnstructuredGrid>
<Piece  NumberOfPoints="801" NumberOfCells="800">
<Points>
<DataArray  type="Float64"  NumberOfComponents="3"  format="ascii">-5 0 0  -4.9875 0 0  -4.975 0 0  -4.9625 0 0  -4.95 0 0  -4.9375 0 0  -4.925 0 0  -4.9125 0 0  -4.9 0 0  -4.8875 0 0  -4.875 0 0  -4.8625 0 0  -4.85 0 0  -4.8375 0 0  -4.825 0 0  -4.8125 0 0  -4.8 0 0  -4.7875 0 0  -4.775 0 0  -4.7625 0 0  -4.75 0 0  -4.7375 0 0  -4.725 0 0  -4.7125 0 0  -4.7 0 0  -4.6875 0 0  -4.675 0 0  -4.6625 0 0  -4.65 0 0  -4.6375 0 0  -4.625 0 0  -4.6125 0 0  -4.6 0 0  -4.5875 0 0  -4.575 0 0  -4.5625 0 0  -4.55 0 0  -4.5375 0 0  -4.525 0 0  -4.5125 0 0  -4.5 0 0  -4.4875 0 0  -4.475 0 0  -4.4625 0 0  -4.45 0 0  -4.4375 0 0  -4.425 0 0  -4.4125 0 0  -4.4 0 0  -4.3875 0 0  -4.375 0 0  -4.3625 0 0  -4.35 0 0  -4.3375 0 0  -4.325 0 0  -4.3125 0 0  -4.3 0 0  -4.2875 0 0  -4.275 0 0  -4.2625 0 0  -4.25 0 0  -4.2375 0 0  -4.225 0 0  -4.2125 0 0  -4.2 0 0  -4.1875 0 0  -4.175 0 0  -4.1625 0 0  -4.15 0 0  -4.1375 0 0  -4.125 0 0  -4.1125 0 0  -4.1 0 0  -4.0875 0 0  -4.075 0 0  -4.0625 0 0  -4.05 0 0  -4.0375 0 0  -4.025 0 0  -4.0125 0 0  -4 0 0  -3.9875 0 0  -3.975 0 0  -3.9625 0 0  -3.95 0 0  -3.9375 0 0  -3.925 0 0  -3.9125 0 0  -3.9 0 0  -3.8875 0 0  -3.875 0 0  -3.8625 0 0  -3.85 0 0  -3.8375 0 0  -3.825 0 0  -3.8125 0 0  -3.8 0 0  -3.7875 0 0  -3.775 0 0  -3.7625 0 0  -3.75 0 0  -3.7375 0 0  -3.725 0 0  -3.7125 0 0  -3.7 0 0  -3.6875 0 0  -3.675 0 0  -3.6625 0 0  -3.65 0 0  -3.6375 0 0  -3.625 0 0  -3.6125 0 0  -3.6 0 0  -3.5875 0 0  -3.575 0 0  -3.5625 0 0  -3.55 0 0  -3.5375 0 0  -3.525 0 0  -3.5125 0 0  -3.5 0 0  -3.4875 0 0  -3.475 0 0  -3.4625 0 0  -3.45 0 0  -3.4375 0 0  -3.425 0 0  -3.4125 0 0  -3.4 0 0  -3.3875 0 0  -3.375 0 0  -3.3625 0 0  -3.35 0 0  -3.3375 0 0  -3.325 0 0  -3.3125 0 0  -3.3 0 0  -3.2875 0 0  -3.275 0 0  -3.2625 0 0  -3.25 0 0  -3.2375 0 0  -3.225 0 0  -3.2125 0 0  -3.2 0 0  -3.1875 0 0  -3.175 0 0  -3.1625 0 0  -3.15 0 0  -3.1375 0 0  -3.125 0 0  -3.1125 0 0  -3.1 0 0  -3.0875 0 0  -3.075 0 0  -3.0625 0 0  -3.05 0 0  -3.0375 0 0  -3.025 0 0  -3.0125 0 0  -3 0 0  -2.9875 0 0  -2.975 0 0  -2.9625 0 0  -2.95 0 0  -2.9375 0 0  -2.925 0 0  -2.9125 0 0  -2.9 0 0  -2.8875 0 0  -2.875 0 0  -2.8625 0 0  -2.85 0 0  -2.8375 0 0  -2.825 0 0  -2.8125 0 0  -2.8 0 0  -2.7875 0 0  -2.775 0 0  -2.7625 0 0  -2.75 0 0  -2.7375 0 0  -2.725 0 0  -2.7125 0 0  -2.7 0 0  -2.6875 0 0  -2.675 0 0  -2.6625 0 0  -2.65 0 0  -2.6375 0 0  -2.625 0 0  -2.6125 0 0  -2.6 0 0  -2.5875 0 0  -2.575 0 0  -2.5625 0 0  -2.55 0 0  -2.5375 0 0  -2.525 0 0  -2.5125 0 0  -2.5 0 0  -2.4875 0 0  -2.475 0 0  -2.4625 0 0  -2.45 0 0  -2.4375 0 0  -2.425 0 0  -2.4125 0 0  -2.4 0 0  -2.3875 0 0  -2.375 0 0  -2.3625 0 0  -2.35 0 0  -2.3375 0 0  -2.325 0 0  -2.3125 0 0  -2.3 0 0  -2.2875 0 0  -2.275 0 0  -2.2625 0 0  -2.25 0 0  -2.2375 0 0  -2.225 0 0  -2.2125 0 0  -2.2 0 0  -2.1875 0 0  -2.175 0 0  -2.1625 0 0  -2.15 0 0  -2.1375 0 0  -2.125 0 0  -2.1125 0 0  -2.1 0 0  -2.0875 0 0  -2.075 0 0  -2.0625 0 0  -2.05 0 0  -2.0375 0 0  -2.025 0 0  -2.0125 0 0  -2 0 0  -1.9875 0 0  -1.975 0 0  -1.9625 0 0  -1.95 0 0  -1.9375 0 0  -1.925 0 0  -1.9125 0 0  -1.9 0 0  -1.8875 0 0  -1.875 0 0  -1.8625 0 0  -1.85 0 0  -1.8375 0 0  -1.825 0 0  -1.8125 0 0  -1.8 0 0  -1.7875 0 0  -1.775 0 0  -1.7625 0 0  -1.75 0 0  -1.7375 0 0  -1.725 0 0  -1.7125 0 0  -1.7 0 0  -1.6875 0 0  -1.675 0 0  -1.6625 0 0  -1.65 0 0  -1.6375 0 0  -1.625 0 0  -1.6125 0 0  -1.6 0 0  -1.5875 0 0  -1.575 0 0  -1.5625 0 0  -1.55 0 0  -1.5375 0 0  -1.525 0 0  -1.5125 0 0  -1.5 0 0  -1.4875 0 0  -1.475 0 0  -1.4625 0 0  -1.45 0 0  -1.4375 0 0  -1.425 0 0  -1.4125 0 0  -1.4 0 0  -1.3875 0 0  -1.375 0 0  -1.3625 0 0  -1.35 0 0  -1.3375 0 0  -1.325 0 0  -1.3125 0 0  -1.3 0 0  -1.2875 0 0  -1.275 0 0  -1.2625 0 0  -1.25 0 0  -1.2375 0 0  -1.225 0 0  -1.2125 0 0  -1.2 0 0  -1.1875 0 0  -1.175 0 0  -1.1625 0 0  -1.15 0 0  -1.1375 0 0  -1.125 0 0  -1.1125 0 0  -1.1 0 0  -1.0875 0 0  -1.075 0 0  -1.0625 0 0  -1.05 0 0  -1.0375 0 0  -1.025 0 0  -1.0125 0 0  -1 0 0  -0.9874999999999998 0 0  -0.9749999999999996 0 0  -0.9625000000000004 0 0  -0.9500000000000002 0 0  -0.9375 0 0  -0.9249999999999998 0 0  -0.9124999999999996 0 0  -0.9000000000000004 0 0  -0.8875000000000002 0 0  -0.875 0 0  -0.8624999999999998 0 0  -0.8499999999999996 0 0  -0.8375000000000004 0 0  -0.8250000000000002 0 0  -0.8125 0 0  -0.7999999999999998 0 0  -0.7874999999999996 0 0  -0.7750000000000004 0 0  -0.7625000000000002 0 0  -0.75 0 0  -0.7374999999999998 0 0  -0.7249999999999996 0 0  -0.7125000000000004 0 0  -0.7000000000000002 0 0  -0.6875 0 0  -0.6749999999999998 0 0  -0.6624999999999996 0 0  -0.6500000000000004 0 0  -0.6375000000000002 0 0  -0.625 0 0  -0.6124999999999998 0 0  -0.5999999999999996 0 0  -0.5875000000000004 0 0  -0.5750000000000002 0 0  -0.5625 0 0  -0.5499999999999998 0 0  -0.5374999999999996 0 0  -0.5250000000000004 0 0  -0.5125000000000002 0 0  -0.5 0 0  -0.4874999999999998 0 0  -0.4749999999999996 0 0  -0.4625000000000004 0 0  -0.4500000000000002 0 0  -0.4375 0 0  -0.4249999999999998 0 0  -0.4124999999999996 0 0  -0.4000000000000004 0 0  -0.3875000000000002 0 0  -0.375 0 0  -0.3624999999999998 0 0  -0.3499999999999996 0 0  -0.3375000000000004 0 0  -0.3250000000000002 0 0  -0.3125 0 0  -0.2999999999999998 0 0  -0.2874999999999996 0 0  -0.2750000000000004 0 0  -0.2625000000000002 0 0  -0.25 0 0  -0.2374999999999998 0 0  -0.2249999999999996 0 0  -0.2125000000000004 0 0  -0.2000000000000002 0 0  -0.1875 0 0  -0.1749999999999998 0 0  -0.1624999999999996 0 0  -0.1500000000000004 0 0  -0.1375000000000002 0 0  -0.125 0 0  -0.1124999999999998 0 0  -0.09999999999999964 0 0  -0.08750000000000036 0 0  -0.07500000000000018 0 0  -0.0625 0 0  -0.04999999999999982 0 0  -0.03749999999999964 0 0  -0.02500000000000036 0 0  -0.01250000000000018 0 0  0 0 0  0.01250000000000018 0 0  0.02500000000000036 0 0  0.03749999999999964 0 0  0.04999999999999982 0 0  0.0625 0 0  0.07500000000000018 0 0  0.08750000000000036 0 0  0.09999999999999964 0 0  0.1124999999999998 0 0  0.125 0 0  0.1375000000000002 0 0  0.1500000000000004 0 0  0.1624999999999996 0 0  0.1749999999999998 0 0  0.1875 0 0  0.2000000000000002 0 0  0.2125000000000004 0 0  0.2249999999999996 0 0  0.2374999999999998 0 0  0.25 0 0  0.2625000000000002 0 0  0.2750000000000004 0 0  0.2874999999999996 0 0  0.2999999999999998 0 0  0.3125 0 0  0.3250000000000002 0 0  0.3375000000000004 0 0  0.3499999999999996 0 0  0.3624999999999998 0 0  0.375 0 0  0.3875000000000002 0 0  0.4000000000000004 0 0  0.4124999999999996 0 0  0.4249999999999998 0 0  0.4375 0 0  0.4500000000000002 0 0  0.4625000000000004 0 0  0.4749999999999996 0 0  0.4874999999999998 0 0  0.5 0 0  0.5125000000000002 0 0  0.5250000000000004 0 0  0.5374999999999996 0 0  0.5499999999999998 0 0  0.5625 0 0  0.5750000000000002 0 0  0.5875000000000004 0 0  0.5999999999999996 0 0  0.6124999999999998 0 0  0.625 0 0  0.6375000000000002 0 0  0.6500000000000004 0 0  0.6624999999999996 0 0  0.6749999999999998 0 0  0.6875 0 0  0.7000000000000002 0 0  0.7125000000000004 0 0  0.7249999999999996 0 0  0.7374999999999998 0 0  0.75 0 0  0.7625000000000002 0 0  0.7750000000000004 0 0  0.7874999999999996 0 0  0.7999999999999998 0 0  0.8125 0 0  0.8250000000000002 0 0  0.8375000000000004 0 0  0.8499999999999996 0 0  0.8624999999999998 0 0  0.875 0 0  0.8875000000000002 0 0  0.9000000000000004 0 0  0.9124999999999996 0 0  0.9249999999999998 0 0  0.9375 0 0  0.9500000000000002 0 0  0.9625000000000004 0 0  0.9749999999999996 0 0  0.9874999999999998 0 0  1 0 0  1.0125 0 0  1.025 0 0  1.0375 0 0  1.05 0 0  1.0625 0 0  1.075 0 0  1.0875 0 0  1.1 0 0  1.1125 0 0  1.125 0 0  1.1375 0 0  1.15 0 0  1.1625 0 0  1.175 0 0  1.1875 0 0  1.2 0 0  1.2125 0 0  1.225 0 0  1.2375 0 0  1.25 0 0  1.2625 0 0  1.275 0 0  1.2875 0 0  1.3 0 0  1.3125 0 0  1.325 0 0  1.3375 0 0  1.35 0 0  1.3625 0 0  1.375 0 0  1.3875 0 0  1.4 0 0  1.4125 0 0  1.425 0 0  1.4375 0 0  1.45 0 0  1.4625 0 0  1.475 0 0  1.4875 0 0  1.5 0 0  1.5125 0 0  1.525 0 0  1.5375 0 0  1.55 0 0  1.5625 0 0  1.575 0 0  1.5875 0 0  1.6 0 0  1.6125 0 0  1.625 0 0  1.6375 0 0  1.65 0 0  1.6625 0 0  1.675 0 0  1.6875 0 0  1.7 0 0  1.7125 0 0  1.725 0 0  1.7375 0 0  1.75 0 0  1.7625 0 0  1.775 0 0  1.7875 0 0  1.8 0 0  1.8125 0 0  1.825 0 0  1.8375 0 0  1.85 0 0  1.8625 0 0  1.875 0 0  1.8875 0 0  1.9 0 0  1.9125 0 0  1.925 0 0  1.9375 0 0  1.95 0 0  1.9625 0 0  1.975 0 0  1.9875 0 0  2 0 0  2.0125 0 0  2.025 0 0  2.0375 0 0  2.05 0 0  2.0625 0 0  2.075 0 0  2.0875 0 0  2.1 0 0  2.1125 0 0  2.125 0 0  2.1375 0 0  2.15 0 0  2.1625 0 0  2.175 0 0  2.1875 0 0  2.2 0 0  2.2125 0 0  2.225 0 0  2.2375 0 0  2.25 0 0  2.2625 0 0  2.275 0 0  2.2875 0 0  2.3 0 0  2.3125 0 0  2.325 0 0  2.3375 0 0  2.35 0 0  2.3625 0 0  2.375 0 0  2.3875 0 0  2.4 0 0  2.4125 0 0  2.425 0 0  2.4375 0 0  2.45 0 0  2.4625 0 0  2.475 0 0  2.4875 0 0  2.5 0 0  2.5125 0 0  2.525 0 0  2.5375 0 0  2.55 0 0  2.5625 0 0  2.575 0 0  2.5875 0 0  2.6 0 0  2.6125 0 0  2.625 0 0  2.6375 0 0  2.65 0 0  2.6625 0 0  2.675 0 0  2.6875 0 0  2.7 0 0  2.7125 0 0  2.725 0 0  2.7375 0 0  2.75 0 0  2.7625 0 0  2.775 0 0  2.7875 0 0  2.8 0 0  2.8125 0 0  2.825 0 0  2.8375 0 0  2.85 0 0  2.8625 0 0  2.875 0 0  2.8875 0 0  2.9 0 0  2.9125 0 0  2.925 0 0  2.9375 0 0  2.95 0 0  2.9625 0 0  2.975 0 0  2.9875 0 0  3 0 0  3.012499999999999 0 0  3.025 0 0  3.0375 0 0  3.050000000000001 0 0  3.0625 0 0  3.074999999999999 0 0  3.0875 0 0  3.1 0 0  3.112500000000001 0 0  3.125 0 0  3.137499999999999 0 0  3.15 0 0  3.1625 0 0  3.175000000000001 0 0  3.1875 0 0  3.199999999999999 0 0  3.2125 0 0  3.225 0 0  3.237500000000001 0 0  3.25 0 0  3.262499999999999 0 0  3.275 0 0  3.2875 0 0  3.300000000000001 0 0  3.3125 0 0  3.324999999999999 0 0  3.3375 0 0  3.35 0 0  3.362500000000001 0 0  3.375 0 0  3.387499999999999 0 0  3.4 0 0  3.4125 0 0  3.425000000000001 0 0  3.4375 0 0  3.449999999999999 0 0  3.4625 0 0  3.475 0 0  3.4875
[...]
<PointData  Vectors="(h, u)"> 
<DataArray  type="Float64"  Name="(h, u)"  NumberOfComponents="3" format="ascii">5.5000000000000049e-02 0.0000000000000000e+00 0.0000000000000000e+00  5.5000000000000049e-02 5.0013225546251020e-17 0.0000000000000000e+00  5.5000000000000049e-02 2.9808210473320139e-16 0.0000000000000000e+00  5.5000000000000042e-02 1.3927744683360138e-16 0.0000000000000000e+00  5.5000000000000035e-02 9.1037177776797301e-17 0.0000000000000000e+00  5.5000000000000035e-02 -9.0908205018806269e-17 0.0000000000000000e+00  5.5000000000000028e-02 -3.2450465663174907e-16 0.0000000000000000e+00  5.5000000000000028e-02 -4.2363789145962623e-16 0.0000000000000000e+00  5.5000000000000028e-02 -4.4460489808006241e-16 0.0000000000000000e+00  5.5000000000000028e-02 -2.0455699086408337e-16 0.0000000000000000e+00  5.5000000000000021e-02 -2.7841954029992179e-16 0.0000000000000000e+00  5.5000000000000028e-02 1.8821191523440458e-16 0.0000000000000000e+00  5.5000000000000014e-02 -1.3054511889686060e-16 0.0000000000000000e+00  5.5000000000000028e-02 -2.8850027290952795e-17 0.0000000000000000e+00  5.5000000000000021e-02 -1.7443481885310834e-16 0.0000000000000000e+00  5.5000000000000028e-02 -1.9561305722206091e-17 0.0000000000000000e+00  5.5000000000000014e-02 -1.2619994671728173e-16 0.0000000000000000e+00  5.5000000000000028e-02 -5.9655277173734788e-17 0.0000000000000000e+00  5.5000000000000014e-02 -2.9858620383683690e-16 0.0000000000000000e+00  5.5000000000000028e-02 -4.1767488701943215e-16 0.0000000000000000e+00  5.5000000000000028e-02 -1.0192033675573774e-16 0.0000000000000000e+00  5.5000000000000021e-02 -6.7646771504688626e-17 0.0000000000000000e+00  5.5000000000000028e-02 -1.8878245328335001e-16 0.0000000000000000e+00  5.5000000000000021e-02 1.8187490395706270e-17 0.0000000000000000e+00  5.5000000000000028e-02 -1.7775484246844100e-16 0.0000000000000000e+00  5.5000000000000021e-02 6.7434354408599926e-17 0.0000000000000000e+00  5.5000000000000028e-02 -1.2393931542849231e-16 0.0000000000000000e+00  5.5000000000000021e-02 1.0284285813566907e-16 0.0000000000000000e+00  5.5000000000000028e-02 -5.0967875833308662e-17 0.0000000000000000e+00  5.5000000000000021e-02 1.1960974702408503e-16 0.0000000000000000e+00  5.5000000000000028e-02 9.3449986120188255e-18 0.0000000000000000e+00  5.5000000000000021e-02 9.3874775311053599e-17 0.0000000000000000e+00  5.5000000000000028e-02 3.0289337902031858e-17 0.0000000000000000e+00  5.5000000000000021e-02 2.4258831747640514e-17 0.0000000000000000e+00  5.5000000000000028e-02 2.7465785600367378e-17 0.0000000000000000e+00  5.5000000000000021e-02 -5.0759154666097959e-17 0.0000000000000000e+00  5.5000000000000028e-02 4.5066352099550559e-17 0.0000000000000000e+00  5.5000000000000021e-02 -1.0089523909815829e-16 0.0000000000000000e+00  5.5000000000000028e-02 1.2681664935262233e-16 0.0000000000000000e+00  5.5000000000000014e-02 -1.6803013367658724e-16 0.0000000000000000e+00  5.5000000000000042e-02 3.3848305624706605e-16 0.0000000000000000e+00  5.4999999999999993e-02 -4.7896908747968854e-16 0.0000000000000000e+00  5.5000000000000090e-02 1.1919058105106094e-15 0.0000000000000000e+00  5.4999999999999882e-02 -1.8616837003216167e-15 0.0000000000000000e+00  5.5000000000000299e-02 4.0301473039431409e-15 0.0000000000000000e+00  5.4999999999999480e-02 -7.4043492156058916e-15 0.0000000000000000e+00  5.5000000000001090e-02 1.4328176498236325e-14 0.0000000000000000e+00  5.4999999999998023e-02 -2.6581853994441345e-14 0.0000000000000000e+00  5.5000000000003775e-02 5.0236632647723418e-14 0.0000000000000000e+00  5.4999999999993152e-02 -9.2057708798742073e-14 0.0000000000000000e+00  5.5000000000012372e-02 1.6502487794297182e-13 0.0000000000000000e+00  5.4999999999978552e-02 -2.8686621987105592e-13 0.0000000000000000e+00  5.5000000000035854e-02 4.7844443741017201e-13 0.0000000000000000e+00  5.4999999999944107e-02 -7.4668863879259173e-13 0.0000000000000000e+00  5.5000000000077598e-02 1.0357176505527655e-12 0.0000000000000000e+00  5.4999999999919093e-02 -1.0810127673826493e-12 0.0000000000000000e+00  5.5000000000002214e-02 2.9124901544608996e-14 0.0000000000000000e+00  5.5000000000338438e-02 4.5185532019014639e-12 0.0000000000000000e+00  5.4999999998589608e-02 -1.8833515526348887e-11 0.0000000000000000e+00  5.5000000004385062e-02 5.8553582436221380e-11 0.0000000000000000e+00  5.4999999987920614e-02 -1.6129818463231479e-10 0.0000000000000000e+00  5.5000000031050746e-02 4.1462672661116361e-10 0.0000000000000000e+00  5.4999999923995097e-02 -1.0149263465585519e-09 0.0000000000000000e+00  5.5000000178306745e-02 2.3810864723234224e-09 0.0000000000000000e+00  5.4999999600400855e-02 -5.3365539055212794e-09 0.0000000000000000e+00  5.5000000842515800e-02 1.1252914732387343e-08 0.0000000000000000e+00  5.4999998393735844e-02 -2.1456573594525151e-08 0.0000000000000000e+00  5.5000002458907314e-02 3.2831089280472001e-08 0.0000000000000000e+00  5.4999998637010168e-02 -1.7885207952613590e-08 0.0000000000000000e+00  5.4999988836372894e-02 -1.5265577339993744e-07 0.0000000000000000e+00  5.5000071809008677e-02 9.8981202277248814e-07 0.0000000000000000e+00  5.4999690684785524e-02 -4.3670553313514508e-06 0.0000000000000000e+00  5.5001142671799785e-02 1.6944975656650064e-05 0.0000000000000000e+00  5.4996179926295630e-02 -6.2484027760741114e-05 0.0000000000000000e+00  5.5011506671065795e-02 2.2879923027539932e-04 0.0000000000000000e+00  5.4971124034396156e-02 -8.6522448285644422e-04 0.0000000000000000e+00  5.5038371042068837e-02 3.4820826645061394e-03 0.0000000000000000e+00  5.5209674418772933e-02 -1.5388780125397837e-02 0.0000000000000000e+00  5.2513416811673055e-02 7.2372014031355014e-02 0.0000000000000000e+00  7.9053477421295384e-02 -4.2539321592501450e-01 0.0000000000000000e+00  1.8496925980968973e-01 -1.8065191160731024e+00 0.0000000000000000e+00  2.6363300025450814e-01 -2.4023870779708507e+00 0.0000000000000000e+00  2.9878367514880205e-01 -2.6302570889115251e+00 0.0000000000000000e+00  3.1679927846739631e-01 -2.7349661178825073e+00 0.0000000000000000e+00  3.2185459389676463e-01 -2.7659908471419024e+00 0.0000000000000000e+00  3.2434788714497870e-01 -2.7817247007776214e+00 0.0000000000000000e+00  3.2379525264474313e-01 -2.7811371454244811e+00 0.0000000000000000e+00  3.2301235556203944e-01 -2.7789804092384967e+00 0.0000000000000000e+00  3.2155790253641231e-01 -2.7734307133096205e+00 0.0000000000000000e+00  3.2008296872823960e-01 -2.7674974104354111e+00 0.0000000000000000e+00  3.1848333744001717e-01 -2.7611243301974033e+00 0.0000000000000000e+00  3.1687194876758068e-01 -2.7544432409696800e+00 0.0000000000000000e+00  3.1524511093599872e-01 -2.7478828114172771e+00 0.0000000000000000e+00  3.1361450544288927e-01 -2.7411000262769005e+00 0.0000000000000000e+00  3.1198422445320412e-01 -2.7344771841869600e+00 0.0000000000000000e+00  3.1035562748469075e-01 -2.7277139629224041e+00 0.0000000000000000e+00  3.0872994871252085e-01 -2.7210691166295540e+00 0.0000000000000000e+00  3.0710557377111863e-01 -2.7143417489194626e+00 0.0000000000000000e+00  3.0548788820687112e-01 -2.7076906876108291e+00 0.0000000000000000e+00  3.0386730087467495e-01 -2.7009999535308999e+00 0.0000000000000000e+00  3.0225893305616069e-01 -2.6943482458460455e+00 0.0000000000000000e+00  3.0064182274630508e-01 -2.6876942497696152e+00 0.0000000000000000e+00  2.9904316189292196e-01 -2.6810439284309080e+00 0.0000000000000000e+00  2.9742955066190879e-01 -2.6744267624280105e+00 0.0000000000000000e+00  2.9584053836526109e-01 -2.6677794942075028e+00 0.0000000000000000e+00  2.9423071364093506e-01 -2.6611984217714957e+00 0.0000000000000000e+00  2.9265100382508313e-01 -2.6545567853899517e+00 0.0000000000000000e+00  2.9104549204779534e-01 -2.6480097878925184e+00 0.0000000000000000e+00  2.8947448855159552e-01 -2.6413776957727371e+00 0.0000000000000000e+00  2.8787405018861190e-01 -2.6348613489420170e+00 0.0000000000000000e+00  2.8631092374666822e-01 -2.6282440921699393e+00 0.0000000000000000e+00  2.8471653308229311e-01 -2.6217536663674625e+00 0.0000000000000000e+00  2.8316025769753839e-01 -2.6151577305492064e+00 0.0000000000000000e+00  2.8157305159800816e-01 -2.6086874899050705e+00 0.0000000000000000e+00  2.8002247481548326e-01 -2.6021201542017716e+00 0.0000000000000000e+00  2.7844366524370162e-01 -2.5956638673769965e+00 0.0000000000000000e+00  2.7689761334878282e-01 -2.5891325919492223e+00 0.0000000000000000e+00  2.7532836591723064e-01 -2.5826842487175665e+00 0.0000000000000000e+00  2.7378577952196359e-01 -2.5761958712060360e+00 0.0000000000000000e+00  2.7222706776611644e-01 -2.5697505563289922e+00 0.0000000000000000e+00  2.7068715390808878e-01 -2.5633103735223561e+00 0.0000000000000000e+00  2.6913960597267428e-01 -2.5568652037675075e+00 0.0000000000000000e+00  2.6760198640100946e-01 -2.5504760570158997e+00 0.0000000000000000e+00  2.6606574913121028e-01 -2.5440310326806963e+00 0.0000000000000000e+00  2.6453057666592916e-01 -2.5376925672444459e+00 0.0000000000000000e+00  2.6300522649235397e-01 -2.5312511574870573e+00 0.0000000000000000e+00  2.6147323922425980e-01 -2.5249594447719144e+00 0.0000000000000000e+00  2.5995777026155886e-01 -2.5185287135759782e+00 0.0000000000000000e+00  2.5843025532050795e-01 -2.5122764195443916e+00 0.0000000000000000e+00  2.5692316808967786e-01 -2.5058665357004912e+00 0.0000000000000000e+00  2.5540181823874525e-01 -2.4996437539022254e+00 0.0000000000000000e+00  2.5390131758035434e-01 -2.4932668147794002e+00 0.0000000000000000e+00  2.5238798236845084e-01 -2.4870625719566446e+00 0.0000000000000000e+00  2.5089227027764915e-01 -2.4807308104085837e+00 0.0000000000000000e+00  2.4938862985045729e-01 -2.4745350884983424e+00 0.0000000000000000e+00  2.4789625116186870e-01 -2.4682587084974115e+00 0.0000000000000000e+00  2.4640346822419515e-01 -2.4620646496423371e+00 0.0000000000000000e+00  2.4491364139700775e-01 -2.4558497063169726e+00 0.0000000000000000e+00  2.4343206906058346e-01 -2.4496555155374291e+00 0.0000000000000000e+00  2.4194491812014959e-01 -2.4435023723309350e+00 0.0000000000000000e+00  2.4047394870827346e-01 -2.4373123689038847e+00 0.0000000000000000e+00  2.3899055605732963e-01 -2.4312152600585861e+00 0.0000000000000000e+00  2.3752867999337815e-01 -2.4250396110681960e+00 0.0000000000000000e+00  2.3605090877887486e-01 -2.4189876707554867e+00 0.0000000000000000e+00  2.3459601049410947e-01 -2.4128405947959219e+00 0.0000000000000000e+00  2.3312609978457854e-01 -2.4068203753280257e+00 0.0000000000000000e+00  2.3167595298991386e-01 -2.4007170144014918e+00 0.0000000000000000e+00  2.3021595969348513e-01 -2.3947160583019977e+00 0.0000000000000000e+00  2.2876881278118652e-01 -2.3886686888899678e+00 0.0000000000000000e+00  2.2732004069340736e-01 -2.3826792699972317e+00 0.0000000000000000e+00  2.2587512824949726e-01 -2.3766939074954281e+00 0.0000000000000000e+00  2.2443772100544146e-01 -2.3707157849351383e+00 0.0000000000000000e+00  2.2299552574531620e-01 -2.3647903512383159e+00 0.0000000000000000e+00  2.2156838236223991e-01 -2.3588314571291296e+00 0.0000000000000000e+00  2.2013052249513812e-01 -2.3529563881570676e+00 0.0000000000000000e+00  2.1871161101133918e-01 -2.3470308833426041e+00 0.0000000000000000e+00  2.1728034014729580e-01 -2.3411923375197041e+00 0.0000000000000000e+00  2.1586735099541382e-01 -2.3353163450069658e+00 0.0000000000000000e+00  2.1444480268838098e-01 -2.3295012055300219e+00 0.0000000000000000e+00  2.1303594094186576e-01 -2.3236875036565006e+00 0.0000000000000000e+00  2.1162337442423265e-01 -2.3178884950061756e+00 0.0000000000000000e+00  2.1021799965299329e-01 -2.3121421146256780e+00 0.0000000000000000e+00  2.0881534510577174e-01 -2.3063610051914516e+00 0.0000000000000000e+00  2.0741418539267498e-01 -2.3006776280128203e+00 0.0000000000000000e+00  2.0602010429848641e-01 -2.2949249802046308e+00 0.0000000000000000e+00  2.0462491690711351e-01 -2.2892931050013239e+00 0.0000000000000000e+00  2.0323739395897750e-01 -2.2835843482500962e+00 0.0000000000000000e+00  2.0185017918019990e-01 -2.2779906087233885e+00 0.0000000000000000e+00  2.0046741842279456e-01 -2.2723398958143339e+00 0.0000000000000000e+00  1.9908951676437495e-01 -2.2667753305244029e+00 0.0000000000000000e+00  1.9771074233949659e-01 -2.2611899007760989e+00 0.0000000000000000e+00  1.9634223805113163e-01 -2.2556542367744612e+00 0.0000000000000000e+00  1.9496800712684403e-01 -2.2501320673089409e+00 0.0000000000000000e+00  1.9360774505813952e-01 -2.2446337815726229e+00 0.0000000000000000e+00  1.9223959925853212e-01 -2.2391658680380084e+00 0.0000000000000000e+00  1.9088582257791889e-01 -2.2337178322527254e+00 0.0000000000000000e+00  1.8952544775244048e-01 -2.2282940407659191e+00 0.0000000000000000e+00  1.8817672392558144e-01 -2.2229069852369894e+00 0.0000000000000000e+00  1.8682507293539904e-01 -2.2175223249931335e+00 0.0000000000000000e+00  1.8548099414177691e-01 -2.2121997574806680e+00 0.0000000000000000e+00  1.8413786878895122e-01 -2.2068574935605128e+00 0.0000000000000000e+00  1.8279912762633904e-01 -2.2015950252749716e+00 0.0000000000000000e+00  1.8146345372510173e-01 -2.1963048156918665e+00 0.0000000000000000e+00  1.8013126975314589e-01 -2.1910942249965224e+00 0.0000000000000000e+00  1.7880186969934078e-01 -2.1858665486852589e+00 0.0000000000000000e+00  1.7747715492463176e-01 -2.1807018825664550e+00 0.0000000000000000e+00  1.7615350095290311e-01 -2.1755424573378286e+00 0.0000000000000000e+00  1.7483631971494434e-01 -2.1704241118255054e+00 0.0000000000000000e+00  1.7351877475615005e-01 -2.1653319822791386e+00 0.0000000000000000e+00  1.7220843626865906e-01 -2.1602661557662732e+00 0.0000000000000000e+00  1.7089786425392908e-01 -2.1552364709610310e+00 0.0000000000000000e+00  1.6959352294039859e-01 -2.1502307664098872e+00 0.0000000000000000e+00  1.6829061069323370e-01 -2.1452598245743837e+00 0.0000000000000000e+00  1.6699188634947662e-01 -2.1403185715631001e+00 0.0000000000000000e+00  1.6569670804911538e-01 -2.1354071613159906e+00 0.0000000000000000e+00  1.6440386485851413e-01 -2.1305299794937649e+00 0.0000000000000000e+00  1.6311598272475070e-01 -2.1256826968795517e+00 0.0000000000000000e+00  1.6182960041377800e-01 -2.1208669344227546e+00 0.0000000000000000e+00  1.6054853492104196e-01 -2.1160886201610207e+00 0.0000000000000000e+00  1.5926902432708639e-01 -2.1113330682596203e+00 0.0000000000000000e+00  1.5799464776152686e-01 -2.1066257450300747e+00 0.0000000000000000e+00  1.5672203954304270e-01 -2.1019323120275044e+00 0.0000000000000000e+00  1.5545458541470630e-01 -2.0972950627362188e+00 0.0000000000000000e+00  1.5418871026516032e-01 -2.0926673946323207e+00 0.0000000000000000e+00  1.5292848563402239e-01 -2.0880986015952785e+00 0.0000000000000000e+00  1.5166929351137093e-01 -2.0835395457511736e+00 0.0000000000000000e+00  1.5041643091133663e-01 -2.0790388851485191e+00 0.0000000000000000e+00  1.4916412826655570e-01 -2.0745493335567575e+00 0.0000000000000000e+00  1.4791859628757156e-01 -2.0701177464683744e+00 0.0000000000000000e+00  1.4667353491575572e-01 -2.0656974508179169e+00 0.0000000000000000e+00  1.4543532178927432e-01 -2.0613357075162537e+00 0.0000000000000000e+00  1.4419783241960882e-01 -2.0569845660287114e+00 0.0000000000000000e+00  1.4296707631634764e-01 -2.0526922233114120e+00 0.0000000000000000e+00  1.4173743320335164e-01 -2.0484105241983324e+00 0.0000000000000000e+00  1.4051440566098555e-01 -2.0441860634066420e+00 0.0000000000000000e+00  1.3929291114433601e-01 -2.0399737365101416e+00 0.0000000000000000e+00  1.3807794717718572e-01 -2.0358151457765494e+00 0.0000000000000000e+00  1.3686500959981138e-01 -2.0316710453118736e+00 0.0000000000000000e+00  1.3565849596822932e-01 -2.0275759223744303e+00 0.0000000000000000e+00  1.3445464128540602e-01 -2.0234976477889486e+00 0.0000000000000000e+00  1.3325706503576831e-01 -2.0194627826955709e+00 0.0000000000000000e+00  1.3206292512919407e-01 -2.0154466937125686e+00 0.0000000000000000e+00  1.3087492516524110e-01 -2.0114675970497817e+00 0.0000000000000000e+00  1.2969125187586686e-01 -2.0075086096613557e+00 0.0000000000000000e+00  1.2851365075376567e-01 -2.0035791778400736e+00 0.0000000000000000e+00  1.2734135638843064e-01 -1.9996703253420141e+00 0.0000000000000000e+00  1.2617518891224117e-01 -1.9957825010379160e+00 0.0000000000000000e+00  1.2501539604282622e-01 -1.9919143995620894e+00 0.0000000000000000e+00  1.2386195105827294e-01 -1.9880576799910663e+00 0.0000000000000000e+00  1.2271604669270739e-01 -1.9842179357268961e+00 0.0000000000000000e+00  1.2157692485806050e-01 -1.9803786951179971e+00 0.0000000000000000e+00  1.2044662302482809e-01 -1.9765512114140436e+00 0.0000000000000000e+00  1.1932380621593604e-01 -1.9727118671189863e+00 0.0000000000000000e+00  1.1821123079667768e-01 -1.9688759361209021e+00 0.0000000000000000e+00  1.1710718112296729e-01 -1.9650137862064279e+00 0.0000000000000000e+00  1.1601499097433371e-01 -1.9611427461806632e+00 0.0000000000000000e+00  1.1493278474542785e-01 -1.9572284106482838e+00 0.0000000000000000e+00  1.1386431787047938e-01 -1.9532880553307732e+00 0.0000000000000000e+00  1.1280778092750753e-01 -1.9492838169532833e+00 0.0000000000000000e+00  1.1176719928705121e-01 -1.9452307181120925e+00 0.0000000000000000e+00  1.1074106127172199e-01 -1.9410886055603731e+00 0.0000000000000000e+00  1.0973353363810863e-01 -1.9368679970032878e+00 0.0000000000000000e+00  1.0874361532825205e-01 -1.9325274766336262e+00 0.0000000000000000e+00  1.0777548186276811e-01 -1.9280712229226356e+00 0.0000000000000000e+00  1.0682876942003053e-01 -1.9234579066435797e+00 0.0000000000000000e+00  1.0590747219053107e-01 -1.9186846764595231e+00 0.0000000000000000e+00  1.0501184485986671e-01 -1.9137124238372822e+00 0.0000000000000000e+00  1.0414543159658726e-01 -1.9085321342526200e+00 0.0000000000000000e+00  1.0330893728672272e-01 -1.9031098470043990e+00 0.0000000000000000e+00  1.0250514221951625e-01 -1.8974326389688243e+00 0.0000000000000000e+00  1.0173493675449005e-01 -1.8914749013218530e+00 0.0000000000000000e+00  1.0100005413163607e-01 -1.8852227518644358e+00 0.0000000000000000e+00  1.0030129885790094e-01 -1.8786615381060470e+00 0.0000000000000000e+00  9.9639194020791341e-02 -1.8717791003177249e+00 0.0000000000000000e+00  9.9014269026836063e-02 -1.8645728734832614e+00 0.0000000000000000e+00  9.8425852778518633e-02 -1.8570340518545285e+00 0.0000000000000000e+00  9.7874135222757772e-02 -1.8491714162146788e+00 0.0000000000000000e+00  9.7357440747071686e-02 -1.8409798917442850e+00 0.0000000000000000e+00  9.6875660491328952e-02 -1.8324772786000765e+00 0.0000000000000000e+00  9.6426414905822877e-02 -1.8236617247013720e+00 0.0000000000000000e+00  9.6009384773364390e-02 -1.8145568837491837e+00 0.0000000000000000e+00  9.5621817090167455e-02 -1.8051633195415158e+00 0.0000000000000000e+00  9.5263264242035933e-02 -1.7955073135862438e+00 0.0000000000000000e+00  9.4930896980551405e-02 -1.7855911847234045e+00 0.0000000000000000e+00  9.4624186845945646e-02 -1.7754410889838041e+00 0.0000000000000000e+00  9.4340459552315417e-02 -1.7650607538232981e+00 0.0000000000000000e+00  9.4079117613610916e-02 -1.7544741669076624e+00 0.0000000000000000e+00  9.3837798839381328e-02 -1.7436863827798257e+00 0.0000000000000000e+00  9.3615826587599663e-02 -1.7327179172914455e+00 0.0000000000000000e+00  9.3411239358820050e-02 -1.7215751889678754e+00 0.0000000000000000e+00  9.3223266518355857e-02 -1.7102746003572686e+00 0.0000000000000000e+00  9.3050378154515972e-02 -1.6988239417671684e+00 0.0000000000000000e+00  9.2891703705612144e-02 -1.6872354064200872e+00 0.0000000000000000e+00  9.2746130100522614e-02 -1.6755180354556989e+00 0.0000000000000000e+00  9.2612697132397115e-02 -1.6636801375459709e+00 0.0000000000000000e+00  9.2490660113877743e-02 -1.6517317162459788e+00 0.0000000000000000e+00  9.2378996833670235e-02 -1.6396778177808129e+00 0.0000000000000000e+00  9.2277260371310649e-02 -1.6275289679645633e+00 0.0000000000000000e+00  9.2184407929310611e-02 -1.6152877496196463e+00 0.0000000000000000e+00  9.2100208590375321e-02 -1.6029646740530583e+00 0.0000000000000000e+00  9.2023647719838508e-02 -1.5905607216208448e+0