<?xml version="1.0"?>
<VTKFile type="UnstructuredGrid"  version="0.1"  >
<UnstructuredGrid>
<Piece  NumberOfPoints="801" NumberOfCells="800">
<Points>
<DataArray  type="Float64"  NumberOfComponents="3"  format="ascii">-5 0 0  -4.9875 0 0  -4.975 0 0  -4.9625 0 0  -4.95 0 0  -4.9375 0 0  -4.925 0 0  -4.9125 0 0  -4.9 0 0  -4.8875 0 0  -4.875 0 0  -4.8625 0 0  -4.85 0 0  -4.8375 0 0  -4.825 0 0  -4.8125 0 0  -4.8 0 0  -4.7875 0 0  -4.775 0 0  -4.7625 0 0  -4.75 0 0  -4.7375 0 0  -4.725 0 0  -4.7125 0 0  -4.7 0 0  -4.6875 0 0  -4.675 0 0  -4.6625 0 0  -4.65 0 0  -4.6375 0 0  -4.625 0 0  -4.6125 0 0  -4.6 0 0  -4.5875 0 0  -4.575 0 0  -4.5625 0 0  -4.55 0 0  -4.5375 0 0  -4.525 0 0  -4.5125 0 0  -4.5 0 0  -4.4875 0 0  -4.475 0 0  -4.4625 0 0  -4.45 0 0  -4.4375 0 0  -4.425 0 0  -4.4125 0 0  -4.4 0 0  -4.3875 0 0  -4.375 0 0  -4.3625 0 0  -4.35 0 0  -4.3375 0 0  -4.325 0 0  -4.3125 0 0  -4.3 0 0  -4.2875 0 0  -4.275 0 0  -4.2625 0 0  -4.25 0 0  -4.2375 0 0  -4.225 0 0  -4.2125 0 0  -4.2 0 0  -4.1875 0 0  -4.175 0 0  -4.1625 0 0  -4.15 0 0  -4.1375 0 0  -4.125 0 0  -4.1125 0 0  -4.1 0 0  -4.0875 0 0  -4.075 0 0  -4.0625 0 0  -4.05 0 0  -4.0375 0 0  -4.025 0 0  -4.0125 0 0  -4 0 0  -3.9875 0 0  -3.975 0 0  -3.9625 0 0  -3.95 0 0  -3.9375 0 0  -3.925 0 0  -3.9125 0 0  -3.9 0 0  -3.8875 0 0  -3.875 0 0  -3.8625 0 0  -3.85 0 0  -3.8375 0 0  -3.825 0 0  -3.8125 0 0  -3.8 0 0  -3.7875 0 0  -3.775 0 0  -3.7625 0 0  -3.75 0 0  -3.7375 0 0  -3.725 0 0  -3.7125 0 0  -3.7 0 0  -3.6875 0 0  -3.675 0 0  -3.6625 0 0  -3.65 0 0  -3.6375 0 0  -3.625 0 0  -3.6125 0 0  -3.6 0 0  -3.5875 0 0  -3.575 0 0  -3.5625 0 0  -3.55 0 0  -3.5375 0 0  -3.525 0 0  -3.5125 0 0  -3.5 0 0  -3.4875 0 0  -3.475 0 0  -3.4625 0 0  -3.45 0 0  -3.4375 0 0  -3.425 0 0  -3.4125 0 0  -3.4 0 0  -3.3875 0 0  -3.375 0 0  -3.3625 0 0  -3.35 0 0  -3.3375 0 0  -3.325 0 0  -3.3125 0 0  -3.3 0 0  -3.2875 0 0  -3.275 0 0  -3.2625 0 0  -3.25 0 0  -3.2375 0 0  -3.225 0 0  -3.2125 0 0  -3.2 0 0  -3.1875 0 0  -3.175 0 0  -3.1625 0 0  -3.15 0 0  -3.1375 0 0  -3.125 0 0  -3.1125 0 0  -3.1 0 0  -3.0875 0 0  -3.075 0 0  -3.0625 0 0  -3.05 0 0  -3.0375 0 0  -3.025 0 0  -3.0125 0 0  -3 0 0  -2.9875 0 0  -2.975 0 0  -2.9625 0 0  -2.95 0 0  -2.9375 0 0  -2.925 0 0  -2.9125 0 0  -2.9 0 0  -2.8875 0 0  -2.875 0 0  -2.8625 0 0  -2.85 0 0  -2.8375 0 0  -2.825 0 0  -2.8125 0 0  -2.8 0 0  -2.7875 0 0  -2.775 0 0  -2.7625 0 0  -2.75 0 0  -2.7375 0 0  -2.725 0 0  -2.7125 0 0  -2.7 0 0  -2.6875 0 0  -2.675 0 0  -2.6625 0 0  -2.65 0 0  -2.6375 0 0  -2.625 0 0  -2.6125 0 0  -2.6 0 0  -2.5875 0 0  -2.575 0 0  -2.5625 0 0  -2.55 0 0  -2.5375 0 0  -2.525 0 0  -2.5125 0 0  -2.5 0 0  -2.4875 0 0  -2.475 0 0  -2.4625 0 0  -2.45 0 0  -2.4375 0 0  -2.425 0 0  -2.4125 0 0  -2.4 0 0  -2.3875 0 0  -2.375 0 0  -2.3625 0 0  -2.35 0 0  -2.3375 0 0  -2.325 0 0  -2.3125 0 0  -2.3 0 0  -2.2875 0 0  -2.275 0 0  -2.2625 0 0  -2.25 0 0  -2.2375 0 0  -2.225 0 0  -2.2125 0 0  -2.2 0 0  -2.1875 0 0  -2.175 0 0  -2.1625 0 0  -2.15 0 0  -2.1375 0 0  -2.125 0 0  -2.1125 0 0  -2.1 0 0  -2.0875 0 0  -2.075 0 0  -2.0625 0 0  -2.05 0 0  -2.0375 0 0  -2.025 0 0  -2.0125 0 0  -2 0 0  -1.9875 0 0  -1.975 0 0  -1.9625 0 0  -1.95 0 0  -1.9375 0 0  -1.925 0 0  -1.9125 0 0  -1.9 0 0  -1.8875 0 0  -1.875 0 0  -1.8625 0 0  -1.85 0 0  -1.8375 0 0  -1.825 0 0  -1.8125 0 0  -1.8 0 0  -1.7875 0 0  -1.775 0 0  -1.7625 0 0  -1.75 0 0  -1.7375 0 0  -1.725 0 0  -1.7125 0 0  -1.7 0 0  -1.6875 0 0  -1.675 0 0  -1.6625 0 0  -1.65 0 0  -1.6375 0 0  -1.625 0 0  -1.6125 0 0  -1.6 0 0  -1.5875 0 0  -1.575 0 0  -1.5625 0 0  -1.55 0 0  -1.5375 0 0  -1.525 0 0  -1.5125 0 0  -1.5 0 0  -1.4875 0 0  -1.475 0 0  -1.4625 0 0  -1.45 0 0  -1.4375 0 0  -1.425 0 0  -1.4125 0 0  -1.4 0 0  -1.3875 0 0  -1.375 0 0  -1.3625 0 0  -1.35 0 0  -1.3375 0 0  -1.325 0 0  -1.3125 0 0  -1.3 0 0  -1.2875 0 0  -1.275 0 0  -1.2625 0 0  -1.25 0 0  -1.2375 0 0  -1.225 0 0  -1.2125 0 0  -1.2 0 0  -1.1875 0 0  -1.175 0 0  -1.1625 0 0  -1.15 0 0  -1.1375 0 0  -1.125 0 0  -1.1125 0 0  -1.1 0 0  -1.0875 0 0  -1.075 0 0  -1.0625 0 0  -1.05 0 0  -1.0375 0 0  -1.025 0 0  -1.0125 0 0  -1 0 0  -0.9874999999999998 0 0  -0.9749999999999996 0 0  -0.9625000000000004 0 0  -0.9500000000000002 0 0  -0.9375 0 0  -0.9249999999999998 0 0  -0.9124999999999996 0 0  -0.9000000000000004 0 0  -0.8875000000000002 0 0  -0.875 0 0  -0.8624999999999998 0 0  -0.8499999999999996 0 0  -0.8375000000000004 0 0  -0.8250000000000002 0 0  -0.8125 0 0  -0.7999999999999998 0 0  -0.7874999999999996 0 0  -0.7750000000000004 0 0  -0.7625000000000002 0 0  -0.75 0 0  -0.7374999999999998 0 0  -0.7249999999999996 0 0  -0.7125000000000004 0 0  -0.7000000000000002 0 0  -0.6875 0 0  -0.6749999999999998 0 0  -0.6624999999999996 0 0  -0.6500000000000004 0 0  -0.6375000000000002 0 0  -0.625 0 0  -0.6124999999999998 0 0  -0.5999999999999996 0 0  -0.5875000000000004 0 0  -0.5750000000000002 0 0  -0.5625 0 0  -0.5499999999999998 0 0  -0.5374999999999996 0 0  -0.5250000000000004 0 0  -0.5125000000000002 0 0  -0.5 0 0  -0.4874999999999998 0 0  -0.4749999999999996 0 0  -0.4625000000000004 0 0  -0.4500000000000002 0 0  -0.4375 0 0  -0.4249999999999998 0 0  -0.4124999999999996 0 0  -0.4000000000000004 0 0  -0.3875000000000002 0 0  -0.375 0 0  -0.3624999999999998 0 0  -0.3499999999999996 0 0  -0.3375000000000004 0 0  -0.3250000000000002 0 0  -0.3125 0 0  -0.2999999999999998 0 0  -0.2874999999999996 0 0  -0.2750000000000004 0 0  -0.2625000000000002 0 0  -0.25 0 0  -0.2374999999999998 0 0  -0.2249999999999996 0 0  -0.2125000000000004 0 0  -0.2000000000000002 0 0  -0.1875 0 0  -0.1749999999999998 0 0  -0.1624999999999996 0 0  -0.1500000000000004 0 0  -0.1375000000000002 0 0  -0.125 0 0  -0.1124999999999998 0 0  -0.09999999999999964 0 0  -0.08750000000000036 0 0  -0.07500000000000018 0 0  -0.0625 0 0  -0.04999999999999982 0 0  -0.03749999999999964 0 0  -0.02500000000000036 0 0  -0.01250000000000018 0 0  0 0 0  0.01250000000000018 0 0  0.02500000000000036 0 0  0.03749999999999964 0 0  0.04999999999999982 0 0  0.0625 0 0  0.07500000000000018 0 0  0.08750000000000036 0 0  0.09999999999999964 0 0  0.1124999999999998 0 0  0.125 0 0  0.1375000000000002 0 0  0.1500000000000004 0 0  0.1624999999999996 0 0  0.1749999999999998 0 0  0.1875 0 0  0.2000000000000002 0 0  0.2125000000000004 0 0  0.2249999999999996 0 0  0.2374999999999998 0 0  0.25 0 0  0.2625000000000002 0 0  0.2750000000000004 0 0  0.2874999999999996 0 0  0.2999999999999998 0 0  0.3125 0 0  0.3250000000000002 0 0  0.3375000000000004 0 0  0.3499999999999996 0 0  0.3624999999999998 0 0  0.375 0 0  0.3875000000000002 0 0  0.4000000000000004 0 0  0.4124999999999996 0 0  0.4249999999999998 0 0  0.4375 0 0  0.4500000000000002 0 0  0.4625000000000004 0 0  0.4749999999999996 0 0  0.4874999999999998 0 0  0.5 0 0  0.5125000000000002 0 0  0.5250000000000004 0 0  0.5374999999999996 0 0  0.5499999999999998 0 0  0.5625 0 0  0.5750000000000002 0 0  0.5875000000000004 0 0  0.5999999999999996 0 0  0.6124999999999998 0 0  0.625 0 0  0.6375000000000002 0 0  0.6500000000000004 0 0  0.6624999999999996 0 0  0.6749999999999998 0 0  0.6875 0 0  0.7000000000000002 0 0  0.7125000000000004 0 0  0.7249999999999996 0 0  0.7374999999999998 0 0  0.75 0 0  0.7625000000000002 0 0  0.7750000000000004 0 0  0.7874999999999996 0 0  0.7999999999999998 0 0  0.8125 0 0  0.8250000000000002 0 0  0.8375000000000004 0 0  0.8499999999999996 0 0  0.8624999999999998 0 0  0.875 0 0  0.8875000000000002 0 0  0.9000000000000004 0 0  0.9124999999999996 0 0  0.9249999999999998 0 0  0.9375 0 0  0.9500000000000002 0 0  0.9625000000000004 0 0  0.9749999999999996 0 0  0.9874999999999998 0 0  1 0 0  1.0125 0 0  1.025 0 0  1.0375 0 0  1.05 0 0  1.0625 0 0  1.075 0 0  1.0875 0 0  1.1 0 0  1.1125 0 0  1.125 0 0  1.1375 0 0  1.15 0 0  1.1625 0 0  1.175 0 0  1.1875 0 0  1.2 0 0  1.2125 0 0  1.225 0 0  1.2375 0 0  1.25 0 0  1.2625 0 0  1.275 0 0  1.2875 0 0  1.3 0 0  1.3125 0 0  1.325 0 0  1.3375 0 0  1.35 0 0  1.3625 0 0  1.375 0 0  1.3875 0 0  1.4 0 0  1.4125 0 0  1.425 0 0  1.4375 0 0  1.45 0 0  1.4625 0 0  1.475 0 0  1.4875 0 0  1.5 0 0  1.5125 0 0  1.525 0 0  1.5375 0 0  1.55 0 0  1.5625 0 0  1.575 0 0  1.5875 0 0  1.6 0 0  1.6125 0 0  1.625 0 0  1.6375 0 0  1.65 0 0  1.6625 0 0  1.675 0 0  1.6875 0 0  1.7 0 0  1.7125 0 0  1.725 0 0  1.7375 0 0  1.75 0 0  1.7625 0 0  1.775 0 0  1.7875 0 0  1.8 0 0  1.8125 0 0  1.825 0 0  1.8375 0 0  1.85 0 0  1.8625 0 0  1.875 0 0  1.8875 0 0  1.9 0 0  1.9125 0 0  1.925 0 0  1.9375 0 0  1.95 0 0  1.9625 0 0  1.975 0 0  1.9875 0 0  2 0 0  2.0125 0 0  2.025 0 0  2.0375 0 0  2.05 0 0  2.0625 0 0  2.075 0 0  2.0875 0 0  2.1 0 0  2.1125 0 0  2.125 0 0  2.1375 0 0  2.15 0 0  2.1625 0 0  2.175 0 0  2.1875 0 0  2.2 0 0  2.2125 0 0  2.225 0 0  2.2375 0 0  2.25 0 0  2.2625 0 0  2.275 0 0  2.2875 0 0  2.3 0 0  2.3125 0 0  2.325 0 0  2.3375 0 0  2.35 0 0  2.3625 0 0  2.375 0 0  2.3875 0 0  2.4 0 0  2.4125 0 0  2.425 0 0  2.4375 0 0  2.45 0 0  2.4625 0 0  2.475 0 0  2.4875 0 0  2.5 0 0  2.5125 0 0  2.525 0 0  2.5375 0 0  2.55 0 0  2.5625 0 0  2.575 0 0  2.5875 0 0  2.6 0 0  2.6125 0 0  2.625 0 0  2.6375 0 0  2.65 0 0  2.6625 0 0  2.675 0 0  2.6875 0 0  2.7 0 0  2.7125 0 0  2.725 0 0  2.7375 0 0  2.75 0 0  2.7625 0 0  2.775 0 0  2.7875 0 0  2.8 0 0  2.8125 0 0  2.825 0 0  2.8375 0 0  2.85 0 0  2.8625 0 0  2.875 0 0  2.8875 0 0  2.9 0 0  2.9125 0 0  2.925 0 0  2.9375 0 0  2.95 0 0  2.9625 0 0  2.975 0 0  2.9875 0 0  3 0 0  3.012499999999999 0 0  3.025 0 0  3.0375 0 0  3.050000000000001 0 0  3.0625 0 0  3.074999999999999 0 0  3.0875 0 0  3.1 0 0  3.112500000000001 0 0  3.125 0 0  3.137499999999999 0 0  3.15 0 0  3.1625 0 0  3.175000000000001 0 0  3.1875 0 0  3.199999999999999 0 0  3.2125 0 0  3.225 0 0  3.237500000000001 0 0  3.25 0 0  3.262499999999999 0 0  3.275 0 0  3.2875 0 0  3.300000000000001 0 0  3.3125 0 0  3.324999999999999 0 0  3.3375 0 0  3.35 0 0  3.362500000000001 0 0  3.375 0 0  3.387499999999999 0 0  3.4 0 0  3.4125 0 0  3.425000000000001 0 0  3.4375 0 0  3.449999999999999 0 0  3.4625 0 0  3.475 0 0  3.4875
[...]
<PointData  Vectors="(h, u)"> 
<DataArray  type="Float64"  Name="(h, u)"  NumberOfComponents="3" format="ascii">1.3504659540463876e-01 0.0000000000000000e+00 0.0000000000000000e+00  1.2916086882932853e-01 2.6352488979246701e-03 0.0000000000000000e+00  1.3511461569878894e-01 1.3154937691050930e-02 0.0000000000000000e+00  1.2902063199006591e-01 7.8603626789103091e-03 0.0000000000000000e+00  1.3530909918760325e-01 2.6380112326312006e-02 0.0000000000000000e+00  1.2875895411924834e-01 1.2983655608467586e-02 0.0000000000000000e+00  1.3560253248975909e-01 3.9682295033066355e-02 0.0000000000000000e+00  1.2841096676994210e-01 1.8041996258395990e-02 0.0000000000000000e+00  1.3595306313605912e-01 5.2962633619857473e-02 0.0000000000000000e+00  1.2802338864228485e-01 2.3196238314255279e-02 0.0000000000000000e+00  1.3631022825915215e-01 6.6010156370042386e-02 0.0000000000000000e+00  1.2764799140692154e-01 2.8719954943358054e-02 0.0000000000000000e+00  1.3662216065806423e-01 7.8535306597490168e-02 0.0000000000000000e+00  1.2733417825743759e-01 3.4944644123153193e-02 0.0000000000000000e+00  1.3684304782106271e-01 9.0237021863671385e-02 0.0000000000000000e+00  1.2712193013086340e-01 4.2175381081146678e-02 0.0000000000000000e+00  1.3693934143228209e-01 1.0088502779971700e-01 0.0000000000000000e+00  1.2703661271774128e-01 5.0602532605643701e-02 0.0000000000000000e+00  1.3689351522981402e-01 1.1039007687276456e-01 0.0000000000000000e+00  1.2708688356661360e-01 6.0239123967286236e-02 0.0000000000000000e+00  1.3670473671347036e-01 1.1883653488683303e-01 0.0000000000000000e+00  1.2726593775671760e-01 7.0908791381971356e-02 0.0000000000000000e+00  1.3638643728866648e-01 1.2646505376552647e-01 0.0000000000000000e+00  1.2755520339895310e-01 8.2293205984371551e-02 0.0000000000000000e+00  1.3596169105563485e-01 1.3360959278890130e-01 0.0000000000000000e+00  1.2792916626197334e-01 9.4022870961978061e-02 0.0000000000000000e+00  1.3545819890222857e-01 1.4060691666630371e-01 0.0000000000000000e+00  1.2836001161214927e-01 1.0577658110150787e-01 0.0000000000000000e+00  1.3490445597285378e-01 1.4770858350618130e-01 0.0000000000000000e+00  1.2882071615683033e-01 1.1735570869375489e-01 0.0000000000000000e+00  1.3432752738843848e-01 1.5502893670815784e-01 0.0000000000000000e+00  1.2928585232501860e-01 1.2871268194456559e-01 0.0000000000000000e+00  1.3375227140771037e-01 1.6254623356720027e-01 0.0000000000000000e+00  1.2973105914760785e-01 1.3992675077331865e-01 0.0000000000000000e+00  1.3320180438595369e-01 1.7014667634039349e-01 0.0000000000000000e+00  1.3013295760270799e-01 1.5113884357297372e-01 0.0000000000000000e+00  1.3269806538524592e-01 1.7768798135151181e-01 0.0000000000000000e+00  1.3047009160268752e-01 1.6247972421067999e-01 0.0000000000000000e+00  1.3226056122648749e-01 1.8506121207399667e-01 0.0000000000000000e+00  1.3072465157521909e-01 1.7402599485915005e-01 0.0000000000000000e+00  1.3190316419337916e-01 1.9222774690912384e-01 0.0000000000000000e+00  1.3088546484388114e-01 1.8579039699215399e-01 0.0000000000000000e+00  1.3163112036580163e-01 1.9921307641731928e-01 0.0000000000000000e+00  1.3095187326837626e-01 1.9773478826583984e-01 0.0000000000000000e+00  1.3143937620957707e-01 2.0607126235541814e-01 0.0000000000000000e+00  1.3093547923675508e-01 2.0980055049370636e-01 0.0000000000000000e+00  1.3131175955339844e-01 2.1285760275866170e-01 0.0000000000000000e+00  1.3085778542489748e-01 2.2194256753302596e-01 0.0000000000000000e+00  1.3122258860633124e-01 2.1962146021133078e-01 0.0000000000000000e+00  1.3074602838833096e-01 2.3413259261635688e-01 0.0000000000000000e+00  1.3114273776333690e-01 2.2640543203315522e-01 0.0000000000000000e+00  1.3062894494219551e-01 2.4632651324277502e-01 0.0000000000000000e+00  1.3104689800862987e-01 2.3325930637517525e-01 0.0000000000000000e+00  1.3053052951395178e-01 2.5844061888003389e-01 0.0000000000000000e+00  1.3091719864738763e-01 2.4027775702958343e-01 0.0000000000000000e+00  1.3046333183202277e-01 2.7035691886654178e-01 0.0000000000000000e+00  1.3074510575222076e-01 2.4761511643289930e-01 0.0000000000000000e+00  1.3042770510565008e-01 2.8192498641314973e-01 0.0000000000000000e+00  1.3053432763734202e-01 2.5544004661937392e-01 0.0000000000000000e+00  1.3041612723706217e-01 2.9296990023430486e-01 0.0000000000000000e+00  1.3029922990733706e-01 2.6388626743094051e-01 0.0000000000000000e+00  1.3041469745759909e-01 3.0335570016805169e-01 0.0000000000000000e+00  1.3005647154405717e-01 2.7304444637330594e-01 0.0000000000000000e+00  1.3040409851821350e-01 3.1305524401732032e-01 0.0000000000000000e+00  1.2982027716853156e-01 2.8293391810210250e-01 0.0000000000000000e+00  1.3036790546419533e-01 3.2213214384218519e-01 0.0000000000000000e+00  1.2960471919482408e-01 2.9344650150090634e-01 0.0000000000000000e+00  1.3029948362145960e-01 3.3069587164145997e-01 0.0000000000000000e+00  1.2942026223335118e-01 3.0438134005433887e-01 0.0000000000000000e+00  1.3019625537622903e-01 3.3892791730256755e-01 0.0000000000000000e+00  1.2926554936954598e-01 3.1555411070454453e-01 0.0000000000000000e+00  1.3005569432282468e-01 3.4706950193461572e-01 0.0000000000000000e+00  1.2913293440329490e-01 3.2680091381526616e-01 0.0000000000000000e+00  1.2988446638091425e-01 3.5529064147464023e-01 0.0000000000000000e+00  1.2902015316425333e-01 3.3792544296179722e-01 0.0000000000000000e+00  1.2969796189841765e-01 3.6365223402439378e-01 0.0000000000000000e+00  1.2892292656499274e-01 3.4879726827424345e-01 0.0000000000000000e+00  1.2950299905742454e-01 3.7223250251197149e-01 0.0000000000000000e+00  1.2882597041545987e-01 3.5944396559743619e-01 0.0000000000000000e+00  1.2929951694220149e-01 3.8110773084670652e-01 0.0000000000000000e+00  1.2872088408164059e-01 3.6989186798882062e-01 0.0000000000000000e+00  1.2910020138103676e-01 3.9019011635557022e-01 0.0000000000000000e+00  1.2861538372917364e-01 3.8007308533523781e-01 0.0000000000000000e+00  1.2891832857162924e-01 3.9934766695017121e-01 0.0000000000000000e+00  1.2850666927360446e-01 3.9004291499039628e-01 0.0000000000000000e+00  1.2874411049231196e-01 4.0862535394818972e-01 0.0000000000000000e+00  1.2837981713165403e-01 3.9997920748447979e-01 0.0000000000000000e+00  1.2857138665940618e-01 4.1802656494428792e-01 0.0000000000000000e+00  1.2824483839271464e-01 4.0984552317529493e-01 0.0000000000000000e+00  1.2841941178711652e-01 4.2733488275770759e-01 0.0000000000000000e+00  1.2812037238406188e-01 4.1952313148039205e-01 0.0000000000000000e+00  1.2828718199118738e-01 4.3652197498397499e-01 0.0000000000000000e+00  1.2798885241612018e-01 4.2919493432059808e-01 0.0000000000000000e+00  1.2814886867499992e-01 4.4579481730809800e-01 0.0000000000000000e+00  1.2784099841228971e-01 4.3895019555386000e-01 0.0000000000000000e+00  1.2802087285330369e-01 4.5501344689394796e-01 0.0000000000000000e+00  1.2770965727072600e-01 4.4848788359594555e-01 0.0000000000000000e+00  1.2792825605287061e-01 4.6398081074207365e-01 0.0000000000000000e+00  1.2758681771491692e-01 4.5785091653240784e-01 0.0000000000000000e+00  1.2783585056659938e-01 4.7303529956853602e-01 0.0000000000000000e+00  1.2743523170986398e-01 4.6733599050890229e-01 0.0000000000000000e+00  1.2774226133284738e-01 4.8221544256735704e-01 0.0000000000000000e+00  1.2729337266350713e-01 4.7658643845286575e-01 0.0000000000000000e+00  1.2769717702024216e-01 4.9109560191011586e-01 0.0000000000000000e+00  1.2717603938823857e-01 4.8547587198685188e-01 0.0000000000000000e+00  1.2765896628361173e-01 5.0002449686432893e-01 0.0000000000000000e+00  1.2702388525799937e-01 4.9455534670850831e-01 0.0000000000000000e+00  1.2760096880950300e-01 5.0919399522852149e-01 0.0000000000000000e+00  1.2688398470648199e-01 5.0346294461693286e-01 0.0000000000000000e+00  1.2759405204044297e-01 5.1792490548497561e-01 0.0000000000000000e+00  1.2679025894555063e-01 5.1196326200894859e-01 0.0000000000000000e+00  1.2758130753450592e-01 5.2665464394387462e-01 0.0000000000000000e+00  1.2665796785244871e-01 5.2086060831248804e-01 0.0000000000000000e+00  1.2752915907870691e-01 5.3562492176693677e-01 0.0000000000000000e+00  1.2655925029744744e-01 5.2956385114309246e-01 0.0000000000000000e+00  1.2753666965595731e-01 5.4393523946451661e-01 0.0000000000000000e+00  1.2651277942753708e-01 5.3792956647509338e-01 0.0000000000000000e+00  1.2750533092134669e-01 5.5244245232845723e-01 0.0000000000000000e+00  1.2641016823326781e-01 5.4690779795414479e-01 0.0000000000000000e+00  1.2744861171264107e-01 5.6104156306269770e-01 0.0000000000000000e+00  1.2638175515228123e-01 5.5532904866457300e-01 0.0000000000000000e+00  1.2746441375156270e-01 5.6890293617258858e-01 0.0000000000000000e+00  1.2635720090721048e-01 5.6378019516183830e-01 0.0000000000000000e+00  1.2739170787246593e-01 5.7747506102406687e-01 0.0000000000000000e+00  1.2628390068056736e-01 5.7268887365185805e-01 0.0000000000000000e+00  1.2737485125226791e-01 5.8552215764244886e-01 0.0000000000000000e+00  1.2632005019997705e-01 5.8063475998887204e-01 0.0000000000000000e+00  1.2737041506431743e-01 5.9345058837648990e-01 0.0000000000000000e+00  1.2625541817126207e-01 5.8945010102353923e-01 0.0000000000000000e+00  1.2728842812721075e-01 6.0206298315178930e-01 0.0000000000000000e+00  1.2626219166482347e-01 5.9760967126179609e-01 0.0000000000000000e+00  1.2733746949600577e-01 6.0953302229437833e-01 0.0000000000000000e+00  1.2627314097609793e-01 6.0570383497244629e-01 0.0000000000000000e+00  1.2724741594040717e-01 6.1823653495094810e-01 0.0000000000000000e+00  1.2621103574183379e-01 6.1440757054170736e-01 0.0000000000000000e+00  1.2727639695713414e-01 6.2591082814145216e-01 0.0000000000000000e+00  1.2629167898452265e-01 6.2181270483889839e-01 0.0000000000000000e+00  1.2724609543307536e-01 6.3413801495037248e-01 0.0000000000000000e+00  1.2619056337289331e-01 6.3075820988274545e-01 0.0000000000000000e+00  1.2721046821205581e-01 6.4246258617276220e-01 0.0000000000000000e+00  1.2628486399219208e-01 6.3790140623252822e-01 0.0000000000000000e+00  1.2726476177875748e-01 6.5007040765941859e-01 0.0000000000000000e+00  1.2619204123597713e-01 6.4659457441124368e-01 0.0000000000000000e+00  1.2716839180034922e-01 6.5908391056288407e-01 0.0000000000000000e+00  1.2625041497425010e-01 6.5385699705498090e-01 0.0000000000000000e+00  1.2729201832138726e-01 6.6623544058587836e-01 0.0000000000000000e+00  1.2619727373355469e-01 6.6203042953820701e-01 0.0000000000000000e+00  1.2715321705638299e-01 6.7572213337967346e-01 0.0000000000000000e+00  1.2620825831906185e-01 6.6962225296092537e-01 0.0000000000000000e+00  1.2731390540501025e-01 6.8253733837156649e-01 0.0000000000000000e+00  1.2621142457316684e-01 6.7734933278744880e-01 0.0000000000000000e+00  1.2713229316105884e-01 6.9223317639699944e-01 0.0000000000000000e+00  1.2619838441670919e-01 6.8537327816511628e-01 0.0000000000000000e+00  1.2730152394735633e-01 6.9863142090765373e-01 0.0000000000000000e+00  1.2626438613072671e-01 6.9293887073902449e-01 0.0000000000000000e+00  1.2705502896806853e-01 7.0839982753712871e-01 0.0000000000000000e+00  1.2626572125521549e-01 7.0136071310927839e-01 0.0000000000000000e+00  1.2722633261962685e-01 7.1418155044738008e-01 0.0000000000000000e+00  1.2638337560637503e-01 7.0906118995199374e-01 0.0000000000000000e+00  1.2689157502631859e-01 7.2410301820845124e-01 0.0000000000000000e+00  1.2643693269242590e-01 7.1759460285380494e-01 0.0000000000000000e+00  1.2707207911317869e-01 7.2923711732335716e-01 0.0000000000000000e+00  1.2655131636396436e-01 7.2580619802732826e-01 0.0000000000000000e+00  1.2665214190271376e-01 7.3945888806305482e-01 0.0000000000000000e+00  1.2672521014745219e-01 7.3362127264124521e-01 0.0000000000000000e+00  1.2685476172650864e-01 7.4409960004747266e-01 0.0000000000000000e+00  1.2673662368314334e-01 7.4292850578251712e-01 0.0000000000000000e+00  1.2638938617980014e-01 7.5457188000579989e-01 0.0000000000000000e+00  1.2710822598253188e-01 7.4905373640622597e-01 0.0000000000000000e+00  1.2654010557153697e-01 7.5963946752018774e-01 0.0000000000000000e+00  1.2690601684548947e-01 7.6018814275090763e-01 0.0000000000000000e+00  1.2617624914360079e-01 7.6927438683708993e-01 0.0000000000000000e+00  1.2751488307508743e-01 7.6411149147662749e-01 0.0000000000000000e+00  1.2608804865774978e-01 7.7654528000104672e-01 0.0000000000000000e+00  1.2717469397135236e-01 7.7630496230987256e-01 0.0000000000000000e+00  1.2613609335761378e-01 7.8268973096327710e-01 0.0000000000000000e+00  1.2781228368690967e-01 7.7980282626802244e-01 0.0000000000000000e+00  1.2553133340174216e-01 7.9466512916099608e-01 0.0000000000000000e+00  1.2765748404321145e-01 7.9014993940496547e-01 0.0000000000000000e+00  1.2605115272480394e-01 7.9686357469705404e-01 0.0000000000000000e+00  1.2772554622108903e-01 7.9839975973808730e-01 0.0000000000000000e+00  1.2526012021406513e-01 8.1073581469423295e-01 0.0000000000000000e+00  1.2836134975854213e-01 8.0147556510019535e-01 0.0000000000000000e+00  1.2558447294049688e-01 8.1497021196522790e-01 0.0000000000000000e+00  1.2759370463152850e-01 8.1670879157306520e-01 0.0000000000000000e+00  1.2569225550475058e-01 8.2128805161369522e-01 0.0000000000000000e+00  1.2843413085124350e-01 8.1760069644281563e-01 0.0000000000000000e+00  1.2480311582819426e-01 8.3656645954362996e-01 0.0000000000000000e+00  1.2823013086944221e-01 8.2747531720957168e-01 0.0000000000000000e+00  1.2596794027803013e-01 8.3395293421985250e-01 0.0000000000000000e+00  1.2746177169197209e-01 8.4214238303370492e-01 0.0000000000000000e+00  1.2553678675602459e-01 8.4551459872297130e-01 0.0000000000000000e+00  1.2875938414326793e-01 8.3852095853633202e-01 0.0000000000000000e+00  1.2503919129239727e-01 8.5775479569077306e-01 0.0000000000000000e+00  1.2783756557007162e-01 8.5433151947661401e-01 0.0000000000000000e+00  1.2686629557319079e-01 8.4959290128613008e-01 0.0000000000000000e+00  1.2677157923852017e-01 8.7135119760067281e-01 0.0000000000000000e+00  1.2622998189992074e-01 8.6311577701086695e-01 0.0000000000000000e+00  1.2843609956255034e-01 8.6437577837289670e-01 0.0000000000000000e+00  1.2512984178385583e-01 8.8071404811733722e-01 0.0000000000000000e+00  1.2755106340427375e-01 8.7979167631209210e-01 0.0000000000000000e+00  1.2760435307409776e-01 8.6686979476936510e-01 0.0000000000000000e+00  1.2509194279435973e-01 9.0898797043270863e-01 0.0000000000000000e+00  1.2812097202965553e-01 8.7024809426352157e-01 0.0000000000000000e+00  1.2696464414600223e-01 9.0012076933168239e-01 0.0000000000000000e+00  1.2525655895437440e-01 9.0345915475414940e-01 0.0000000000000000e+00  1.2875719524405696e-01 8.9182254235997915e-01 0.0000000000000000e+00  1.2616608417653336e-01 9.0355806057909105e-01 0.0000000000000000e+00  1.2527221504943262e-01 9.2984026414670884e-01 0.0000000000000000e+00  1.3040291827525885e-01 8.7438235566997136e-01 0.0000000000000000e+00  1.2232500218455979e-01 9.6300645491494474e-01 0.0000000000000000e+00  1.3015705900710217e-01 8.8477369975166154e-01 0.0000000000000000e+00  1.2599481145798455e-01 9.3806064700749148e-01 0.0000000000000000e+00  1.2460637353159248e-01 9.4189264815537088e-01 0.0000000000000000e+00  1.3155909642273292e-01 8.9632979235017796e-01 0.0000000000000000e+00  1.2087491957639118e-01 9.8288427444032500e-01 0.0000000000000000e+00  1.3208837208836291e-01 8.9896405888664799e-01 0.0000000000000000e+00  1.2367746019968449e-01 9.6634320155123543e-01 0.0000000000000000e+00  1.2709849987584812e-01 9.5033736361531218e-01 0.0000000000000000e+00  1.2989210549433391e-01 9.1954927582035328e-01 0.0000000000000000e+00  1.2091217908392096e-01 1.0123493275906921e+00 0.0000000000000000e+00  1.3442682984497503e-01 8.8712841415274124e-01 0.0000000000000000e+00  1.1757263619323947e-01 1.0496387279321013e+00 0.0000000000000000e+00  1.3571782435036125e-01 8.8307765558536055e-01 0.0000000000000000e+00  1.1757329801609497e-01 1.0576792877789221e+00 0.0000000000000000e+00  1.3481564722646761e-01 8.9827296491163811e-01 0.0000000000000000e+00  1.1933167394585886e-01 1.0503367826148668e+00 0.0000000000000000e+00  1.3309045286979329e-01 9.2063548461529643e-01 0.0000000000000000e+00  1.2140333508150676e-01 1.0403285835894955e+00 0.0000000000000000e+00  1.3142003028726085e-01 9.4249600246335941e-01 0.0000000000000000e+00  1.2309454286620024e-01 1.0336856480819894e+00 0.0000000000000000e+00  1.3016182219026301e-01 9.6079445439302491e-01 0.0000000000000000e+00  1.2425812967397339e-01 1.0316013360060030e+00 0.0000000000000000e+00  1.2935015310841999e-01 9.7528169362016759e-01 0.0000000000000000e+00  1.2497333635742197e-01 1.0333025651221199e+00 0.0000000000000000e+00  1.2890891513417277e-01 9.8664545190424013e-01 0.0000000000000000e+00  1.2534112007770340e-01 1.0378735237998915e+00 0.0000000000000000e+00  1.2877258401002051e-01 9.9545862980466182e-01 0.0000000000000000e+00  1.2541783445996835e-01 1.0448379597205346e+00 0.0000000000000000e+00  1.2891228537826419e-01 1.0019549276040520e+00 0.0000000000000000e+00  1.2522219926222714e-01 1.0540794230528661e+00 0.0000000000000000e+00  1.2930662223602507e-01 1.0062875155432303e+00 0.0000000000000000e+00  1.2477247897679331e-01 1.0654924004876716e+00 0.0000000000000000e+00  1.2991186902746255e-01 1.0088005340524553e+00 0.0000000000000000e+00  1.2412222182601546e-01 1.0786525155787117e+00 0.0000000000000000e+00  1.3063784955846827e-01 1.0102555309803589e+00 0.0000000000000000e+00  1.2336558445023182e-01 1.0927586630149382e+00 0.0000000000000000e+00  1.3137190375526794e-01 1.0116312614975811e+00 0.0000000000000000e+00  1.2263574621452591e-01 1.1066370307800693e+00 0.0000000000000000e+00  1.3202336112724411e-01 1.0137359559925172e+00 0.0000000000000000e+00  1.2202946952834427e-01 1.1194037545393856e+00 0.0000000000000000e+00  1.3259504471679537e-01 1.0165783178611851e+00 0.0000000000000000e+00  1.2159361627094369e-01 1.1305957373525479e+00 0.0000000000000000e+00  1.3329225568402459e-01 1.0184120063029507e+00 0.0000000000000000e+00  1.2117776602339096e-01 1.1414960676584902e+00 0.0000000000000000e+00  1.3450376563749325e-01 1.0159013345663317e+00 0.0000000000000000e+00  1.2057644707506630e-01 1.1538935049670902e+00 0.0000000000000000e+00  1.3664609115160298e-01 1.0054888745295119e+00 0.0000000000000000e+00  1.1939206299829468e-01 1.1713020142626849e+00 0.0000000000000000e+00  1.4021393574619587e-01 9.8297168230232135e-01 0.0000000000000000e+00  1.1562924143478864e-01 1.2115477433170088e+00 0.0000000000000000e+00  1.4297847370946873e-01 9.6757541393095869e-01 0.0000000000000000e+00  1.1162729603085216e-01 1.2542797624216873e+00 0.0000000000000000e+00  1.3590764206291095e-01 1.0379820915324458e+00 0.0000000000000000e+00  1.1734814816446169e-01 1.2092825316277163e+00 0.0000000000000000e+00  1.3229963221051219e-01 1.0780822783712869e+00 0.0000000000000000e+00  1.2018277340723964e-01 1.1906339738625320e+00 0.0000000000000000e+00  1.3102245951399202e-01 1.0976598921051595e+00 0.0000000000000000e+00  1.2367304973079686e-01 1.1665320746466616e+00 0.0000000000000000e+00  1.2616949625239451e-01 1.1484683759698997e+00 0.0000000000000000e+00  1.2748300011308680e-01 1.1399789634683859e+00 0.0000000000000000e+00  1.2622553061161348e-01 1.1558301236360196e+00 0.0000000000000000e+00  1.2410772258859068e-01 1.1772039960617420e+00 0.0000000000000000e+00  1.3322511319269470e-01 1.1019648841813381e+00 0.0000000000000000e+00  1.1813127253976859e-01 1.2381552535207758e+00 0.0000000000000000e+00  1.4001022273006666e-01 1.0499603899707310e+00 0.0000000000000000e+00  1.1588835349776470e-01 1.2666234812144310e+00 0.0000000000000000e+00  1.3457542653814453e-01 1.1035057880818120e+00 0.0000000000000000e+00  1.2700328239732581e-01 1.1771287321249309e+00 0.0000000000000000e+00  1.1976013745370576e-01 1.2393061814659061e+00 0.0000000000000000e+00  1.3385898792056802e-01 1.1265904175709509e+00 0.0000000000000000e+00  1.2694167266998518e-01 1.1806685308381015e+00 0.0000000000000000e+00  1.1840720546494353e-01 1.2738862372228057e+00 0.0000000000000000e+00  1.4609682287653464e-01 1.0175454772599974e+00 0.0000000000000000e+00  1.113445