<?xml version="1.0"?>
<VTKFile type="UnstructuredGrid"  version="0.1"  >
<UnstructuredGrid>
<Piece  NumberOfPoints="801" NumberOfCells="800">
<Points>
<DataArray  type="Float64"  NumberOfComponents="3"  format="ascii">-5 0 0  -4.9875 0 0  -4.975 0 0  -4.9625 0 0  -4.95 0 0  -4.9375 0 0  -4.925 0 0  -4.9125 0 0  -4.9 0 0  -4.8875 0 0  -4.875 0 0  -4.8625 0 0  -4.85 0 0  -4.8375 0 0  -4.825 0 0  -4.8125 0 0  -4.8 0 0  -4.7875 0 0  -4.775 0 0  -4.7625 0 0  -4.75 0 0  -4.7375 0 0  -4.725 0 0  -4.7125 0 0  -4.7 0 0  -4.6875 0 0  -4.675 0 0  -4.6625 0 0  -4.65 0 0  -4.6375 0 0  -4.625 0 0  -4.6125 0 0  -4.6 0 0  -4.5875 0 0  -4.575 0 0  -4.5625 0 0  -4.55 0 0  -4.5375 0 0  -4.525 0 0  -4.5125 0 0  -4.5 0 0  -4.4875 0 0  -4.475 0 0  -4.4625 0 0  -4.45 0 0  -4.4375 0 0  -4.425 0 0  -4.4125 0 0  -4.4 0 0  -4.3875 0 0  -4.375 0 0  -4.3625 0 0  -4.35 0 0  -4.3375 0 0  -4.325 0 0  -4.3125 0 0  -4.3 0 0  -4.2875 0 0  -4.275 0 0  -4.2625 0 0  -4.25 0 0  -4.2375 0 0  -4.225 0 0  -4.2125 0 0  -4.2 0 0  -4.1875 0 0  -4.175 0 0  -4.1625 0 0  -4.15 0 0  -4.1375 0 0  -4.125 0 0  -4.1125 0 0  -4.1 0 0  -4.0875 0 0  -4.075 0 0  -4.0625 0 0  -4.05 0 0  -4.0375 0 0  -4.025 0 0  -4.0125 0 0  -4 0 0  -3.9875 0 0  -3.975 0 0  -3.9625 0 0  -3.95 0 0  -3.9375 0 0  -3.925 0 0  -3.9125 0 0  -3.9 0 0  -3.8875 0 0  -3.875 0 0  -3.8625 0 0  -3.85 0 0  -3.8375 0 0  -3.825 0 0  -3.8125 0 0  -3.8 0 0  -3.7875 0 0  -3.775 0 0  -3.7625 0 0  -3.75 0 0  -3.7375 0 0  -3.725 0 0  -3.7125 0 0  -3.7 0 0  -3.6875 0 0  -3.675 0 0  -3.6625 0 0  -3.65 0 0  -3.6375 0 0  -3.625 0 0  -3.6125 0 0  -3.6 0 0  -3.5875 0 0  -3.575 0 0  -3.5625 0 0  -3.55 0 0  -3.5375 0 0  -3.525 0 0  -3.5125 0 0  -3.5 0 0  -3.4875 0 0  -3.475 0 0  -3.4625 0 0  -3.45 0 0  -3.4375 0 0  -3.425 0 0  -3.4125 0 0  -3.4 0 0  -3.3875 0 0  -3.375 0 0  -3.3625 0 0  -3.35 0 0  -3.3375 0 0  -3.325 0 0  -3.3125 0 0  -3.3 0 0  -3.2875 0 0  -3.275 0 0  -3.2625 0 0  -3.25 0 0  -3.2375 0 0  -3.225 0 0  -3.2125 0 0  -3.2 0 0  -3.1875 0 0  -3.175 0 0  -3.1625 0 0  -3.15 0 0  -3.1375 0 0  -3.125 0 0  -3.1125 0 0  -3.1 0 0  -3.0875 0 0  -3.075 0 0  -3.0625 0 0  -3.05 0 0  -3.0375 0 0  -3.025 0 0  -3.0125 0 0  -3 0 0  -2.9875 0 0  -2.975 0 0  -2.9625 0 0  -2.95 0 0  -2.9375 0 0  -2.925 0 0  -2.9125 0 0  -2.9 0 0  -2.8875 0 0  -2.875 0 0  -2.8625 0 0  -2.85 0 0  -2.8375 0 0  -2.825 0 0  -2.8125 0 0  -2.8 0 0  -2.7875 0 0  -2.775 0 0  -2.7625 0 0  -2.75 0 0  -2.7375 0 0  -2.725 0 0  -2.7125 0 0  -2.7 0 0  -2.6875 0 0  -2.675 0 0  -2.6625 0 0  -2.65 0 0  -2.6375 0 0  -2.625 0 0  -2.6125 0 0  -2.6 0 0  -2.5875 0 0  -2.575 0 0  -2.5625 0 0  -2.55 0 0  -2.5375 0 0  -2.525 0 0  -2.5125 0 0  -2.5 0 0  -2.4875 0 0  -2.475 0 0  -2.4625 0 0  -2.45 0 0  -2.4375 0 0  -2.425 0 0  -2.4125 0 0  -2.4 0 0  -2.3875 0 0  -2.375 0 0  -2.3625 0 0  -2.35 0 0  -2.3375 0 0  -2.325 0 0  -2.3125 0 0  -2.3 0 0  -2.2875 0 0  -2.275 0 0  -2.2625 0 0  -2.25 0 0  -2.2375 0 0  -2.225 0 0  -2.2125 0 0  -2.2 0 0  -2.1875 0 0  -2.175 0 0  -2.1625 0 0  -2.15 0 0  -2.1375 0 0  -2.125 0 0  -2.1125 0 0  -2.1 0 0  -2.0875 0 0  -2.075 0 0  -2.0625 0 0  -2.05 0 0  -2.0375 0 0  -2.025 0 0  -2.0125 0 0  -2 0 0  -1.9875 0 0  -1.975 0 0  -1.9625 0 0  -1.95 0 0  -1.9375 0 0  -1.925 0 0  -1.9125 0 0  -1.9 0 0  -1.8875 0 0  -1.875 0 0  -1.8625 0 0  -1.85 0 0  -1.8375 0 0  -1.825 0 0  -1.8125 0 0  -1.8 0 0  -1.7875 0 0  -1.775 0 0  -1.7625 0 0  -1.75 0 0  -1.7375 0 0  -1.725 0 0  -1.7125 0 0  -1.7 0 0  -1.6875 0 0  -1.675 0 0  -1.6625 0 0  -1.65 0 0  -1.6375 0 0  -1.625 0 0  -1.6125 0 0  -1.6 0 0  -1.5875 0 0  -1.575 0 0  -1.5625 0 0  -1.55 0 0  -1.5375 0 0  -1.525 0 0  -1.5125 0 0  -1.5 0 0  -1.4875 0 0  -1.475 0 0  -1.4625 0 0  -1.45 0 0  -1.4375 0 0  -1.425 0 0  -1.4125 0 0  -1.4 0 0  -1.3875 0 0  -1.375 0 0  -1.3625 0 0  -1.35 0 0  -1.3375 0 0  -1.325 0 0  -1.3125 0 0  -1.3 0 0  -1.2875 0 0  -1.275 0 0  -1.2625 0 0  -1.25 0 0  -1.2375 0 0  -1.225 0 0  -1.2125 0 0  -1.2 0 0  -1.1875 0 0  -1.175 0 0  -1.1625 0 0  -1.15 0 0  -1.1375 0 0  -1.125 0 0  -1.1125 0 0  -1.1 0 0  -1.0875 0 0  -1.075 0 0  -1.0625 0 0  -1.05 0 0  -1.0375 0 0  -1.025 0 0  -1.0125 0 0  -1 0 0  -0.9874999999999998 0 0  -0.9749999999999996 0 0  -0.9625000000000004 0 0  -0.9500000000000002 0 0  -0.9375 0 0  -0.9249999999999998 0 0  -0.9124999999999996 0 0  -0.9000000000000004 0 0  -0.8875000000000002 0 0  -0.875 0 0  -0.8624999999999998 0 0  -0.8499999999999996 0 0  -0.8375000000000004 0 0  -0.8250000000000002 0 0  -0.8125 0 0  -0.7999999999999998 0 0  -0.7874999999999996 0 0  -0.7750000000000004 0 0  -0.7625000000000002 0 0  -0.75 0 0  -0.7374999999999998 0 0  -0.7249999999999996 0 0  -0.7125000000000004 0 0  -0.7000000000000002 0 0  -0.6875 0 0  -0.6749999999999998 0 0  -0.6624999999999996 0 0  -0.6500000000000004 0 0  -0.6375000000000002 0 0  -0.625 0 0  -0.6124999999999998 0 0  -0.5999999999999996 0 0  -0.5875000000000004 0 0  -0.5750000000000002 0 0  -0.5625 0 0  -0.5499999999999998 0 0  -0.5374999999999996 0 0  -0.5250000000000004 0 0  -0.5125000000000002 0 0  -0.5 0 0  -0.4874999999999998 0 0  -0.4749999999999996 0 0  -0.4625000000000004 0 0  -0.4500000000000002 0 0  -0.4375 0 0  -0.4249999999999998 0 0  -0.4124999999999996 0 0  -0.4000000000000004 0 0  -0.3875000000000002 0 0  -0.375 0 0  -0.3624999999999998 0 0  -0.3499999999999996 0 0  -0.3375000000000004 0 0  -0.3250000000000002 0 0  -0.3125 0 0  -0.2999999999999998 0 0  -0.2874999999999996 0 0  -0.2750000000000004 0 0  -0.2625000000000002 0 0  -0.25 0 0  -0.2374999999999998 0 0  -0.2249999999999996 0 0  -0.2125000000000004 0 0  -0.2000000000000002 0 0  -0.1875 0 0  -0.1749999999999998 0 0  -0.1624999999999996 0 0  -0.1500000000000004 0 0  -0.1375000000000002 0 0  -0.125 0 0  -0.1124999999999998 0 0  -0.09999999999999964 0 0  -0.08750000000000036 0 0  -0.07500000000000018 0 0  -0.0625 0 0  -0.04999999999999982 0 0  -0.03749999999999964 0 0  -0.02500000000000036 0 0  -0.01250000000000018 0 0  0 0 0  0.01250000000000018 0 0  0.02500000000000036 0 0  0.03749999999999964 0 0  0.04999999999999982 0 0  0.0625 0 0  0.07500000000000018 0 0  0.08750000000000036 0 0  0.09999999999999964 0 0  0.1124999999999998 0 0  0.125 0 0  0.1375000000000002 0 0  0.1500000000000004 0 0  0.1624999999999996 0 0  0.1749999999999998 0 0  0.1875 0 0  0.2000000000000002 0 0  0.2125000000000004 0 0  0.2249999999999996 0 0  0.2374999999999998 0 0  0.25 0 0  0.2625000000000002 0 0  0.2750000000000004 0 0  0.2874999999999996 0 0  0.2999999999999998 0 0  0.3125 0 0  0.3250000000000002 0 0  0.3375000000000004 0 0  0.3499999999999996 0 0  0.3624999999999998 0 0  0.375 0 0  0.3875000000000002 0 0  0.4000000000000004 0 0  0.4124999999999996 0 0  0.4249999999999998 0 0  0.4375 0 0  0.4500000000000002 0 0  0.4625000000000004 0 0  0.4749999999999996 0 0  0.4874999999999998 0 0  0.5 0 0  0.5125000000000002 0 0  0.5250000000000004 0 0  0.5374999999999996 0 0  0.5499999999999998 0 0  0.5625 0 0  0.5750000000000002 0 0  0.5875000000000004 0 0  0.5999999999999996 0 0  0.6124999999999998 0 0  0.625 0 0  0.6375000000000002 0 0  0.6500000000000004 0 0  0.6624999999999996 0 0  0.6749999999999998 0 0  0.6875 0 0  0.7000000000000002 0 0  0.7125000000000004 0 0  0.7249999999999996 0 0  0.7374999999999998 0 0  0.75 0 0  0.7625000000000002 0 0  0.7750000000000004 0 0  0.7874999999999996 0 0  0.7999999999999998 0 0  0.8125 0 0  0.8250000000000002 0 0  0.8375000000000004 0 0  0.8499999999999996 0 0  0.8624999999999998 0 0  0.875 0 0  0.8875000000000002 0 0  0.9000000000000004 0 0  0.9124999999999996 0 0  0.9249999999999998 0 0  0.9375 0 0  0.9500000000000002 0 0  0.9625000000000004 0 0  0.9749999999999996 0 0  0.9874999999999998 0 0  1 0 0  1.0125 0 0  1.025 0 0  1.0375 0 0  1.05 0 0  1.0625 0 0  1.075 0 0  1.0875 0 0  1.1 0 0  1.1125 0 0  1.125 0 0  1.1375 0 0  1.15 0 0  1.1625 0 0  1.175 0 0  1.1875 0 0  1.2 0 0  1.2125 0 0  1.225 0 0  1.2375 0 0  1.25 0 0  1.2625 0 0  1.275 0 0  1.2875 0 0  1.3 0 0  1.3125 0 0  1.325 0 0  1.3375 0 0  1.35 0 0  1.3625 0 0  1.375 0 0  1.3875 0 0  1.4 0 0  1.4125 0 0  1.425 0 0  1.4375 0 0  1.45 0 0  1.4625 0 0  1.475 0 0  1.4875 0 0  1.5 0 0  1.5125 0 0  1.525 0 0  1.5375 0 0  1.55 0 0  1.5625 0 0  1.575 0 0  1.5875 0 0  1.6 0 0  1.6125 0 0  1.625 0 0  1.6375 0 0  1.65 0 0  1.6625 0 0  1.675 0 0  1.6875 0 0  1.7 0 0  1.7125 0 0  1.725 0 0  1.7375 0 0  1.75 0 0  1.7625 0 0  1.775 0 0  1.7875 0 0  1.8 0 0  1.8125 0 0  1.825 0 0  1.8375 0 0  1.85 0 0  1.8625 0 0  1.875 0 0  1.8875 0 0  1.9 0 0  1.9125 0 0  1.925 0 0  1.9375 0 0  1.95 0 0  1.9625 0 0  1.975 0 0  1.9875 0 0  2 0 0  2.0125 0 0  2.025 0 0  2.0375 0 0  2.05 0 0  2.0625 0 0  2.075 0 0  2.0875 0 0  2.1 0 0  2.1125 0 0  2.125 0 0  2.1375 0 0  2.15 0 0  2.1625 0 0  2.175 0 0  2.1875 0 0  2.2 0 0  2.2125 0 0  2.225 0 0  2.2375 0 0  2.25 0 0  2.2625 0 0  2.275 0 0  2.2875 0 0  2.3 0 0  2.3125 0 0  2.325 0 0  2.3375 0 0  2.35 0 0  2.3625 0 0  2.375 0 0  2.3875 0 0  2.4 0 0  2.4125 0 0  2.425 0 0  2.4375 0 0  2.45 0 0  2.4625 0 0  2.475 0 0  2.4875 0 0  2.5 0 0  2.5125 0 0  2.525 0 0  2.5375 0 0  2.55 0 0  2.5625 0 0  2.575 0 0  2.5875 0 0  2.6 0 0  2.6125 0 0  2.625 0 0  2.6375 0 0  2.65 0 0  2.6625 0 0  2.675 0 0  2.6875 0 0  2.7 0 0  2.7125 0 0  2.725 0 0  2.7375 0 0  2.75 0 0  2.7625 0 0  2.775 0 0  2.7875 0 0  2.8 0 0  2.8125 0 0  2.825 0 0  2.8375 0 0  2.85 0 0  2.8625 0 0  2.875 0 0  2.8875 0 0  2.9 0 0  2.9125 0 0  2.925 0 0  2.9375 0 0  2.95 0 0  2.9625 0 0  2.975 0 0  2.9875 0 0  3 0 0  3.012499999999999 0 0  3.025 0 0  3.0375 0 0  3.050000000000001 0 0  3.0625 0 0  3.074999999999999 0 0  3.0875 0 0  3.1 0 0  3.112500000000001 0 0  3.125 0 0  3.137499999999999 0 0  3.15 0 0  3.1625 0 0  3.175000000000001 0 0  3.1875 0 0  3.199999999999999 0 0  3.2125 0 0  3.225 0 0  3.237500000000001 0 0  3.25 0 0  3.262499999999999 0 0  3.275 0 0  3.2875 0 0  3.300000000000001 0 0  3.3125 0 0  3.324999999999999 0 0  3.3375 0 0  3.35 0 0  3.362500000000001 0 0  3.375 0 0  3.387499999999999 0 0  3.4 0 0  3.4125 0 0  3.425000000000001 0 0  3.4375 0 0  3.449999999999999 0 0  3.4625 0 0  3.475 0 0  3.4875
[...]
<PointData  Vectors="(h, u)"> 
<DataArray  type="Float64"  Name="(h, u)"  NumberOfComponents="3" format="ascii">1.1688361554476154e-01 0.0000000000000000e+00 0.0000000000000000e+00  1.1659991227242847e-01 4.2277677383728484e-03 0.0000000000000000e+00  1.1688209311927580e-01 8.3593299941970983e-03 0.0000000000000000e+00  1.1659737962398725e-01 1.2683395027966192e-02 0.0000000000000000e+00  1.1687754291518028e-01 1.6719489097523434e-02 0.0000000000000000e+00  1.1659228019666953e-01 2.1139318038607694e-02 0.0000000000000000e+00  1.1687001463043471e-01 2.5081299350429381e-02 0.0000000000000000e+00  1.1658454601653737e-01 2.9595795091986229e-02 0.0000000000000000e+00  1.1685958649071329e-01 3.3445554705618226e-02 0.0000000000000000e+00  1.1657407646270333e-01 3.8053157030498115e-02 0.0000000000000000e+00  1.1684635971376142e-01 4.1812978544966066e-02 0.0000000000000000e+00  1.1656074113702128e-01 4.6511808295983094e-02 0.0000000000000000e+00  1.1683045278534528e-01 5.0184162749846328e-02 0.0000000000000000e+00  1.1654438469360079e-01 5.4972220181472645e-02 0.0000000000000000e+00  1.1681199632520486e-01 5.8559501939718768e-02 0.0000000000000000e+00  1.1652483317162607e-01 6.3434931799284056e-02 0.0000000000000000e+00  1.1679112856880734e-01 6.6939142941317739e-02 0.0000000000000000e+00  1.1650190102248092e-01 7.1900571443512126e-02 0.0000000000000000e+00  1.1676799082914081e-01 7.5322969467811543e-02 0.0000000000000000e+00  1.1647539858182789e-01 8.0369896862210383e-02 0.0000000000000000e+00  1.1674272192585029e-01 8.3710636185296561e-02 0.0000000000000000e+00  1.1644514113970846e-01 8.8843831426270933e-02 0.0000000000000000e+00  1.1671545042575063e-01 9.2101658228097141e-02 0.0000000000000000e+00  1.1641096217410847e-01 9.7323454637313636e-02 0.0000000000000000e+00  1.1668628351505493e-01 1.0049555523357512e-01 0.0000000000000000e+00  1.1637273343094469e-01 1.0580990329677246e-01 0.0000000000000000e+00  1.1665529151779652e-01 1.0889204361597418e-01 0.0000000000000000e+00  1.1633039232660293e-01 1.1430416351315655e-01 0.0000000000000000e+00  1.1662248792004240e-01 1.1729126348393321e-01 0.0000000000000000e+00  1.1628397279930210e-01 1.2280678085321185e-01 0.0000000000000000e+00  1.1658780675770899e-01 1.2569401217626033e-01 0.0000000000000000e+00  1.1623363116184879e-01 1.3131756695502661e-01 0.0000000000000000e+00  1.1655108219892393e-01 1.3410193524896333e-01 0.0000000000000000e+00  1.1617965683896382e-01 1.3983540504056655e-01 0.0000000000000000e+00  1.1651203740458216e-01 1.4251761182541847e-01 0.0000000000000000e+00  1.1612246185705652e-01 1.4835822682453367e-01 0.0000000000000000e+00  1.1647028818128952e-01 1.5094449131334886e-01 0.0000000000000000e+00  1.1606255320516844e-01 1.5688314227587183e-01 0.0000000000000000e+00  1.1642535889261542e-01 1.5938671563990789e-01 0.0000000000000000e+00  1.1600050617946962e-01 1.6540657410029191e-01 0.0000000000000000e+00  1.1637669417704799e-01 1.6784898911879004e-01 0.0000000000000000e+00  1.1593696892058257e-01 1.7392413285607966e-01 0.0000000000000000e+00  1.1632363585580445e-01 1.7633678551746215e-01 0.0000000000000000e+00  1.1587273106651162e-01 1.8242993646968492e-01 0.0000000000000000e+00  1.1626532987215463e-01 1.8485721938085237e-01 0.0000000000000000e+00  1.1580887648153899e-01 1.9091518957952372e-01 0.0000000000000000e+00  1.1620054375107602e-01 1.9342076087860902e-01 0.0000000000000000e+00  1.1574701008318009e-01 1.9936610800479637e-01 0.0000000000000000e+00  1.1612741571602975e-01 2.0204359787622847e-01 0.0000000000000000e+00  1.1568950713423495e-01 2.0776165544038142e-01 0.0000000000000000e+00  1.1604321382678609e-01 2.1074992412970994e-01 0.0000000000000000e+00  1.1563969044856651e-01 2.1607195799522147e-01 0.0000000000000000e+00  1.1594423376963735e-01 2.1957297467929571e-01 0.0000000000000000e+00  1.1560181159749869e-01 2.2425853954770844e-01 0.0000000000000000e+00  1.1582597818088063e-01 2.2855350289100335e-01 0.0000000000000000e+00  1.1558071541254933e-01 2.3227749632374051e-01 0.0000000000000000e+00  1.1568371955805147e-01 2.3773476620329057e-01 0.0000000000000000e+00  1.1558111943522298e-01 2.4008623956705560e-01 0.0000000000000000e+00  1.1551345280384043e-01 2.4715395083186278e-01 0.0000000000000000e+00  1.1560654196835531e-01 2.4765346612453595e-01 0.0000000000000000e+00  1.1531311226925246e-01 2.5683113228408738e-01 0.0000000000000000e+00  1.1565804234454974e-01 2.5497077133221591e-01 0.0000000000000000e+00  1.1508380213500259e-01 2.6675798458649386e-01 0.0000000000000000e+00  1.1573305879648173e-01 2.6206315827171561e-01 0.0000000000000000e+00  1.1483071896273192e-01 2.7688909029299452e-01 0.0000000000000000e+00  1.1582469754037095e-01 2.6899508761836549e-01 0.0000000000000000e+00  1.1456346257698362e-01 2.8713862307117100e-01 0.0000000000000000e+00  1.1592178974344111e-01 2.7586916157690938e-01 0.0000000000000000e+00  1.1429552838430597e-01 2.9738445032808331e-01 0.0000000000000000e+00  1.1600986638597591e-01 2.8281624393100974e-01 0.0000000000000000e+00  1.1404293078984121e-01 3.0748044630801369e-01 0.0000000000000000e+00  1.1607295533118948e-01 2.8997821802321061e-01 0.0000000000000000e+00  1.1382211586570500e-01 3.1727595725332391e-01 0.0000000000000000e+00  1.1609588222842521e-01 2.9748660906239088e-01 0.0000000000000000e+00  1.1364754351571024e-01 3.2663917043863605e-01 0.0000000000000000e+00  1.1606662008450770e-01 3.0544131848936917e-01 0.0000000000000000e+00  1.1352945728373019e-01 3.3547952971620554e-01 0.0000000000000000e+00  1.1597819335456366e-01 3.1389372680482119e-01 0.0000000000000000e+00  1.1347234751107972e-01 3.4376409122496981e-01 0.0000000000000000e+00  1.1582973045496030e-01 3.2283735416291626e-01 0.0000000000000000e+00  1.1347447851458124e-01 3.5152379476047807e-01 0.0000000000000000e+00  1.1562646925202903e-01 3.3220734577517402e-01 0.0000000000000000e+00  1.1352860329118304e-01 3.5884805973518868e-01 0.0000000000000000e+00  1.1537872172899818e-01 3.4188851347369764e-01 0.0000000000000000e+00  1.1362362452640846e-01 3.6586986189333598e-01 0.0000000000000000e+00  1.1509992736832279e-01 3.5173098881183562e-01 0.0000000000000000e+00  1.1374669351163362e-01 3.7274629293560763e-01 0.0000000000000000e+00  1.1480414427107208e-01 3.6157085335665823e-01 0.0000000000000000e+00  1.1388534176944230e-01 3.7963880667328392e-01 0.0000000000000000e+00  1.1450364300609794e-01 3.7125024832680475e-01 0.0000000000000000e+00  1.1402946433221935e-01 3.8669512696022146e-01 0.0000000000000000e+00  1.1420721921989418e-01 3.8063174111619463e-01 0.0000000000000000e+00  1.1417286428559932e-01 3.9403544229951010e-01 0.0000000000000000e+00  1.1391934234633680e-01 3.8960607999117275e-01 0.0000000000000000e+00  1.1431394653205272e-01 4.0174629065550466e-01 0.0000000000000000e+00  1.1363999672988423e-01 3.9809468897846234e-01 0.0000000000000000e+00  1.1445549439397272e-01 4.0988216101817304e-01 0.0000000000000000e+00  1.1336515341989405e-01 4.0604745825523270e-01 0.0000000000000000e+00  1.1460373870055490e-01 4.1847229706408079e-01 0.0000000000000000e+00  1.1308766528115625e-01 4.1343783006999568e-01 0.0000000000000000e+00  1.1476692555286239e-01 4.2753037199920879e-01 0.0000000000000000e+00  1.1279847215226362e-01 4.2025641555444793e-01 0.0000000000000000e+00  1.1495398670257619e-01 4.3706123401135744e-01 0.0000000000000000e+00  1.1248838751114974e-01 4.2650081816722607e-01 0.0000000000000000e+00  1.1517370940719707e-01 4.4706108594927507e-01 0.0000000000000000e+00  1.1214983724205534e-01 4.3216757557723040e-01 0.0000000000000000e+00  1.1543344039847087e-01 4.5752032217028749e-01 0.0000000000000000e+00  1.1177733359676795e-01 4.3725738607484160e-01 0.0000000000000000e+00  1.1573720851277075e-01 4.6843055723250321e-01 0.0000000000000000e+00  1.1136778643844569e-01 4.4178295617942531e-01 0.0000000000000000e+00  1.1608528402389755e-01 4.7977791150982652e-01 0.0000000000000000e+00  1.1092197495497888e-01 4.4576631992781901e-01 0.0000000000000000e+00  1.1647479218205189e-01 4.9152725975590644e-01 0.0000000000000000e+00  1.1044506837021276e-01 4.4924410280323296e-01 0.0000000000000000e+00  1.1689915026441225e-01 5.0361938860202182e-01 0.0000000000000000e+00  1.0994562495562263e-01 4.5228473412741788e-01 0.0000000000000000e+00  1.1734773660539960e-01 5.1596934985898668e-01 0.0000000000000000e+00  1.0943522526071776e-01 4.5499596531009440e-01 0.0000000000000000e+00  1.1780665799990502e-01 5.2845941877367253e-01 0.0000000000000000e+00  1.0892811644029110e-01 4.5752690950710584e-01 0.0000000000000000e+00  1.1825957678229641e-01 5.4093736982527862e-01 0.0000000000000000e+00  1.0844108115171296e-01 4.6006128893926823e-01 0.0000000000000000e+00  1.1868927373025989e-01 5.5321447072827501e-01 0.0000000000000000e+00  1.0799282424417976e-01 4.6280771920869190e-01 0.0000000000000000e+00  1.1907712807510289e-01 5.6508899245648403e-01 0.0000000000000000e+00  1.0760090805077716e-01 4.6600582054639222e-01 0.0000000000000000e+00  1.1940311422766411e-01 5.7637018156225350e-01 0.0000000000000000e+00  1.0728268837799743e-01 4.6988863967661926e-01 0.0000000000000000e+00  1.1965069108176152e-01 5.8686119539862092e-01 0.0000000000000000e+00  1.0705582526757582e-01 4.7464512148033827e-01 0.0000000000000000e+00  1.1980548626622478e-01 5.9640024830053828e-01 0.0000000000000000e+00  1.0693217890828824e-01 4.8044485372269941e-01 0.0000000000000000e+00  1.1985454173616039e-01 6.0489444718393404e-01 0.0000000000000000e+00  1.0691960379482154e-01 4.8739200322711101e-01 0.0000000000000000e+00  1.1979286867924868e-01 6.1228190252689563e-01 0.0000000000000000e+00  1.0702222321052852e-01 4.9550131536280267e-01 0.0000000000000000e+00  1.1962082214818487e-01 6.1856985222363192e-01 0.0000000000000000e+00  1.0723581062364326e-01 5.0473164675779036e-01 0.0000000000000000e+00  1.1934458155270820e-01 6.2383412875972410e-01 0.0000000000000000e+00  1.0755028266434684e-01 5.1496536802837389e-01 0.0000000000000000e+00  1.1897684367605398e-01 6.2820539428164179e-01 0.0000000000000000e+00  1.0794904827507186e-01 5.2603104349326202e-01 0.0000000000000000e+00  1.1853661312976248e-01 6.3185248832165619e-01 0.0000000000000000e+00  1.0841337332107435e-01 5.3769048803063690e-01 0.0000000000000000e+00  1.1804731847805364e-01 6.3497162857995915e-01 0.0000000000000000e+00  1.0891735631440203e-01 5.4972288025211447e-01 0.0000000000000000e+00  1.1752967046057214e-01 6.3781738670131405e-01 0.0000000000000000e+00  1.0943667389047307e-01 5.6188274676599170e-01 0.0000000000000000e+00  1.1701252737650127e-01 6.4056535979967744e-01 0.0000000000000000e+00  1.0995101145990351e-01 5.7391730568957522e-01 0.0000000000000000e+00  1.1651433196310200e-01 6.4344692487020883e-01 0.0000000000000000e+00  1.1043464011825764e-01 5.8568866153262122e-01 0.0000000000000000e+00  1.1605334059452053e-01 6.4662535384731079e-01 0.0000000000000000e+00  1.1087742909339475e-01 5.9700168575061896e-01 0.0000000000000000e+00  1.1564507040357964e-01 6.5019807926617335e-01 0.0000000000000000e+00  1.1126512401946653e-01 6.0780247226594208e-01 0.0000000000000000e+00  1.1529352822246977e-01 6.5426866629881564e-01 0.0000000000000000e+00  1.1159506978530169e-01 6.1803196670987570e-01 0.0000000000000000e+00  1.1500302179379585e-01 6.5883986508696279e-01 0.0000000000000000e+00  1.1186563682485783e-01 6.2771544437602989e-01 0.0000000000000000e+00  1.1476970256923401e-01 6.6390475200076926e-01 0.0000000000000000e+00  1.1208556309968286e-01 6.3685667633434961e-01 0.0000000000000000e+00  1.1458810747036041e-01 6.6940657062140863e-01 0.0000000000000000e+00  1.1225501218944027e-01 6.4559136593898891e-01 0.0000000000000000e+00  1.1444674822218866e-01 6.7530389974580129e-01 0.0000000000000000e+00  1.1239301196248838e-01 6.5390608524545601e-01 0.0000000000000000e+00  1.1434371667009288e-01 6.8145022126867449e-01 0.0000000000000000e+00  1.1249666600287599e-01 6.6199612459284385e-01 0.0000000000000000e+00  1.1425831175209043e-01 6.8787784045037592e-01 0.0000000000000000e+00  1.1258480503537806e-01 6.6983990319102682e-01 0.0000000000000000e+00  1.1419848177602014e-01 6.9437328779989194e-01 0.0000000000000000e+00  1.1265518022639771e-01 6.7758663774534922e-01 0.0000000000000000e+00  1.1414238529933676e-01 7.0102809031696933e-01 0.0000000000000000e+00  1.1272120593706209e-01 6.8520787534613659e-01 0.0000000000000000e+00  1.1409991602991877e-01 7.0767078537049433e-01 0.0000000000000000e+00  1.1277717514447959e-01 6.9282237366525701e-01 0.0000000000000000e+00  1.1405804168720390e-01 7.1437159033200082e-01 0.0000000000000000e+00  1.1283691490098924e-01 7.0033978692662913e-01 0.0000000000000000e+00  1.1401815619029745e-01 7.2109050060751467e-01 0.0000000000000000e+00  1.1288382090725133e-01 7.0793302589405793e-01 0.0000000000000000e+00  1.1398533231119017e-01 7.2776986948944700e-01 0.0000000000000000e+00  1.1294211770314649e-01 7.1538141212983863e-01 0.0000000000000000e+00  1.1394391903343291e-01 7.3455444772835554e-01 0.0000000000000000e+00  1.1298350920514649e-01 7.2294634744821651e-01 0.0000000000000000e+00  1.1392214338551848e-01 7.4118592526076588e-01 0.0000000000000000e+00  1.1303635681696442e-01 7.3035962839004342e-01 0.0000000000000000e+00  1.1388064977789429e-01 7.4803400031651879e-01 0.0000000000000000e+00  1.1307925646449650e-01 7.3781677973056470e-01 0.0000000000000000e+00  1.1386788974171477e-01 7.5465160179259183e-01 0.0000000000000000e+00  1.1311616905164588e-01 7.4527973054855412e-01 0.0000000000000000e+00  1.1383469341078500e-01 7.6149559915688458e-01 0.0000000000000000e+00  1.1316644828477174e-01 7.5256892359203897e-01 0.0000000000000000e+00  1.1381646823178850e-01 7.6823574095556935e-01 0.0000000000000000e+00  1.1318742752804171e-01 7.6008420221517192e-01 0.0000000000000000e+00  1.1380908623593071e-01 7.7490713198993055e-01 0.0000000000000000e+00  1.1323068774368190e-01 7.6734917762461696e-01 0.0000000000000000e+00  1.1377169103837054e-01 7.8188556157543565e-01 0.0000000000000000e+00  1.1326517475644335e-01 7.7465650410787745e-01 0.0000000000000000e+00  1.1378400890303983e-01 7.8842708346747059e-01 0.0000000000000000e+00  1.1326949239246896e-01 7.8220924141494008e-01 0.0000000000000000e+00  1.1375982820065952e-01 7.9532864359059152e-01 0.0000000000000000e+00  1.1333149125749122e-01 7.8919296380991932e-01 0.0000000000000000e+00  1.1373541319730750e-01 8.0225117756251030e-01 0.0000000000000000e+00  1.1333239371100591e-01 7.9671519496616505e-01 0.0000000000000000e+00  1.1376410890394702e-01 8.0869682670125087e-01 0.0000000000000000e+00  1.1334413991038525e-01 8.0410903451632543e-01 0.0000000000000000e+00  1.1372339972733453e-01 8.1580158908202716e-01 0.0000000000000000e+00  1.1341436939335070e-01 8.1093255231677164e-01 0.0000000000000000e+00  1.1369282274309250e-01 8.2282587379361249e-01 0.0000000000000000e+00  1.1341477653144139e-01 8.1838044727282766e-01 0.0000000000000000e+00  1.1374009433643402e-01 8.2913948296403261e-01 0.0000000000000000e+00  1.1340981608792745e-01 8.2585476876114305e-01 0.0000000000000000e+00  1.1368510691189151e-01 8.3641388590665855e-01 0.0000000000000000e+00  1.1352551596330862e-01 8.3218398529085047e-01 0.0000000000000000e+00  1.1358710066114509e-01 8.4409867022206853e-01 0.0000000000000000e+00  1.1355673881014311e-01 8.3927607678747085e-01 0.0000000000000000e+00  1.1364649106031778e-01 8.5033172467151119e-01 0.0000000000000000e+00  1.1350088792020829e-01 8.4715686971696713e-01 0.0000000000000000e+00  1.1366718805455840e-01 8.5693298637149651e-01 0.0000000000000000e+00  1.1360275947034516e-01 8.5355100010196061e-01 0.0000000000000000e+00  1.1350498866462873e-01 8.6524162106971314e-01 0.0000000000000000e+00  1.1379932881644160e-01 8.5904398988400599e-01 0.0000000000000000e+00  1.1337850024982683e-01 8.7322735318511668e-01 0.0000000000000000e+00  1.1381328529082965e-01 8.6621465595961622e-01 0.0000000000000000e+00  1.1349217652318846e-01 8.7899086634466317e-01 0.0000000000000000e+00  1.1363146583012555e-01 8.7518678349931234e-01 0.0000000000000000e+00  1.1365856134101997e-01 8.8427126168668368e-01 0.0000000000000000e+00  1.1357182661707559e-01 8.8300554459771108e-01 0.0000000000000000e+00  1.1357448290109029e-01 8.9188426605576965e-01 0.0000000000000000e+00  1.1380049319897230e-01 8.8812681244236202e-01 0.0000000000000000e+00  1.1325486009451131e-01 9.0169173561308802e-01 0.0000000000000000e+00  1.1415951617269475e-01 8.9201830524821790e-01 0.0000000000000000e+00  1.1292011933524294e-01 9.1164661321531260e-01 0.0000000000000000e+00  1.1443536137134107e-01 8.9666584340905287e-01 0.0000000000000000e+00  1.1273585746921883e-01 9.2021055801216023e-01 0.0000000000000000e+00  1.1453009188494900e-01 9.0298086747393491e-01 0.0000000000000000e+00  1.1273314557382393e-01 9.2709318559358256e-01 0.0000000000000000e+00  1.1447594598470158e-01 9.1066412794219531e-01 0.0000000000000000e+00  1.1283403592436093e-01 9.3301666457565136e-01 0.0000000000000000e+00  1.1436912417552579e-01 9.1882236857347677e-01 0.0000000000000000e+00  1.1294720399902362e-01 9.3882898574166329e-01 0.0000000000000000e+00  1.1427398196665836e-01 9.2685938885959018e-01 0.0000000000000000e+00  1.1303730050374668e-01 9.4485924036297431e-01 0.0000000000000000e+00  1.1420207676860392e-01 9.3466969733790572e-01 0.0000000000000000e+00  1.1310426365562076e-01 9.5110804118573367e-01 0.0000000000000000e+00  1.1415164804649656e-01 9.4227000572847708e-01 0.0000000000000000e+00  1.1314741585382709e-01 9.5757983399747826e-01 0.0000000000000000e+00  1.1412479561737018e-01 9.4963903313210629e-01 0.0000000000000000e+00  1.1316607934691252e-01 9.6427770771464227e-01 0.0000000000000000e+00  1.1412161496312929e-01 9.5677338971732351e-01 0.0000000000000000e+00  1.1316321641982692e-01 9.7117163777887661e-01 0.0000000000000000e+00  1.1414601487830335e-01 9.6363589537059435e-01 0.0000000000000000e+00  1.1316260038271184e-01 9.7804097526927303e-01 0.0000000000000000e+00  1.1417258071815202e-01 9.7046469332722607e-01 0.0000000000000000e+00  1.1324898108664790e-01 9.8410142924218658e-01 0.0000000000000000e+00  1.1417039556171427e-01 9.7755167535378273e-01 0.0000000000000000e+00  1.1331313943238909e-01 9.9037183258909645e-01 0.0000000000000000e+00  1.1440907688058433e-01 9.8239932046801748e-01 0.0000000000000000e+00  1.1269816206116001e-01 1.0029601940805846e+00 0.0000000000000000e+00  1.1526905410294182e-01 9.8147889151067957e-01 0.0000000000000000e+00  1.1148484183159320e-01 1.0211338554597964e+00 0.0000000000000000e+00  1.1583083977548368e-01 9.8331251944989662e-01 0.0000000000000000e+00  1.1137984187831246e-01 1.0290041339167966e+00 0.0000000000000000e+00  1.1546499072623535e-01 9.9374530391432303e-01 0.0000000000000000e+00  1.1193552782926196e-01 1.0307203867483634e+00 0.0000000000000000e+00  1.1510549750322756e-01 1.0041133254341446e+00 0.0000000000000000e+00  1.1223500559976222e-01 1.0348227792995548e+00 0.0000000000000000e+00  1.1459590290638336e-01 1.0158642336030750e+00 0.0000000000000000e+00  1.1301492042525026e-01 1.0344519937512922e+00 0.0000000000000000e+00  1.1357239110740326e-01 1.0323814455180351e+00 0.0000000000000000e+00  1.1460711077637292e-01 1.0265429696131958e+00 0.0000000000000000e+00  1.1194729892385080e-01 1.0545002605120479e+00 0.0000000000000000e+00  1.1744207377980342e-01 1.0071799932755945e+00 0.0000000000000000e+00  1.0984311437216772e-01 1.0811066460737275e+00 0.0000000000000000e+00  1.2118866546703301e-01 9.7955638265636347e-01 0.0000000000000000e+00  1.0734216565231268e-01 1.1114692933424688e+00 0.0000000000000000e+00  1.2530263968819419e-01 9.4875388264184013e-01 0.0000000000000000e+00  1.0332682745600126e-01 1.1562434253099985e+00 0.0000000000000000e+00  1.2176655396474297e-01 9.8815900339557272e-01 0.0000000000000000e+00  1.0943333979756505e-01 1.1058021193884542e+00 0.0000000000000000e+00  1.1021296113159872e-01 1.1023378552305407e+00 0.0000000000000000e+00  1.2068271729986559e-01 1.0080778900765757e+00 0.0000000000000000e+00  1.0596612015745061e-01 1.1490627826382607e+00 0.0000000000000000e+00  1.2228624030343667e-01 1.0002238548132232e+00 0.0000000000000000e+00  1.083316