<?xml version="1.0"?>
<VTKFile type="UnstructuredGrid"  version="0.1"  >
<UnstructuredGrid>
<Piece  NumberOfPoints="801" NumberOfCells="800">
<Points>
<DataArray  type="Float64"  NumberOfComponents="3"  format="ascii">-5 0 0  -4.9875 0 0  -4.975 0 0  -4.9625 0 0  -4.95 0 0  -4.9375 0 0  -4.925 0 0  -4.9125 0 0  -4.9 0 0  -4.8875 0 0  -4.875 0 0  -4.8625 0 0  -4.85 0 0  -4.8375 0 0  -4.825 0 0  -4.8125 0 0  -4.8 0 0  -4.7875 0 0  -4.775 0 0  -4.7625 0 0  -4.75 0 0  -4.7375 0 0  -4.725 0 0  -4.7125 0 0  -4.7 0 0  -4.6875 0 0  -4.675 0 0  -4.6625 0 0  -4.65 0 0  -4.6375 0 0  -4.625 0 0  -4.6125 0 0  -4.6 0 0  -4.5875 0 0  -4.575 0 0  -4.5625 0 0  -4.55 0 0  -4.5375 0 0  -4.525 0 0  -4.5125 0 0  -4.5 0 0  -4.4875 0 0  -4.475 0 0  -4.4625 0 0  -4.45 0 0  -4.4375 0 0  -4.425 0 0  -4.4125 0 0  -4.4 0 0  -4.3875 0 0  -4.375 0 0  -4.3625 0 0  -4.35 0 0  -4.3375 0 0  -4.325 0 0  -4.3125 0 0  -4.3 0 0  -4.2875 0 0  -4.275 0 0  -4.2625 0 0  -4.25 0 0  -4.2375 0 0  -4.225 0 0  -4.2125 0 0  -4.2 0 0  -4.1875 0 0  -4.175 0 0  -4.1625 0 0  -4.15 0 0  -4.1375 0 0  -4.125 0 0  -4.1125 0 0  -4.1 0 0  -4.0875 0 0  -4.075 0 0  -4.0625 0 0  -4.05 0 0  -4.0375 0 0  -4.025 0 0  -4.0125 0 0  -4 0 0  -3.9875 0 0  -3.975 0 0  -3.9625 0 0  -3.95 0 0  -3.9375 0 0  -3.925 0 0  -3.9125 0 0  -3.9 0 0  -3.8875 0 0  -3.875 0 0  -3.8625 0 0  -3.85 0 0  -3.8375 0 0  -3.825 0 0  -3.8125 0 0  -3.8 0 0  -3.7875 0 0  -3.775 0 0  -3.7625 0 0  -3.75 0 0  -3.7375 0 0  -3.725 0 0  -3.7125 0 0  -3.7 0 0  -3.6875 0 0  -3.675 0 0  -3.6625 0 0  -3.65 0 0  -3.6375 0 0  -3.625 0 0  -3.6125 0 0  -3.6 0 0  -3.5875 0 0  -3.575 0 0  -3.5625 0 0  -3.55 0 0  -3.5375 0 0  -3.525 0 0  -3.5125 0 0  -3.5 0 0  -3.4875 0 0  -3.475 0 0  -3.4625 0 0  -3.45 0 0  -3.4375 0 0  -3.425 0 0  -3.4125 0 0  -3.4 0 0  -3.3875 0 0  -3.375 0 0  -3.3625 0 0  -3.35 0 0  -3.3375 0 0  -3.325 0 0  -3.3125 0 0  -3.3 0 0  -3.2875 0 0  -3.275 0 0  -3.2625 0 0  -3.25 0 0  -3.2375 0 0  -3.225 0 0  -3.2125 0 0  -3.2 0 0  -3.1875 0 0  -3.175 0 0  -3.1625 0 0  -3.15 0 0  -3.1375 0 0  -3.125 0 0  -3.1125 0 0  -3.1 0 0  -3.0875 0 0  -3.075 0 0  -3.0625 0 0  -3.05 0 0  -3.0375 0 0  -3.025 0 0  -3.0125 0 0  -3 0 0  -2.9875 0 0  -2.975 0 0  -2.9625 0 0  -2.95 0 0  -2.9375 0 0  -2.925 0 0  -2.9125 0 0  -2.9 0 0  -2.8875 0 0  -2.875 0 0  -2.8625 0 0  -2.85 0 0  -2.8375 0 0  -2.825 0 0  -2.8125 0 0  -2.8 0 0  -2.7875 0 0  -2.775 0 0  -2.7625 0 0  -2.75 0 0  -2.7375 0 0  -2.725 0 0  -2.7125 0 0  -2.7 0 0  -2.6875 0 0  -2.675 0 0  -2.6625 0 0  -2.65 0 0  -2.6375 0 0  -2.625 0 0  -2.6125 0 0  -2.6 0 0  -2.5875 0 0  -2.575 0 0  -2.5625 0 0  -2.55 0 0  -2.5375 0 0  -2.525 0 0  -2.5125 0 0  -2.5 0 0  -2.4875 0 0  -2.475 0 0  -2.4625 0 0  -2.45 0 0  -2.4375 0 0  -2.425 0 0  -2.4125 0 0  -2.4 0 0  -2.3875 0 0  -2.375 0 0  -2.3625 0 0  -2.35 0 0  -2.3375 0 0  -2.325 0 0  -2.3125 0 0  -2.3 0 0  -2.2875 0 0  -2.275 0 0  -2.2625 0 0  -2.25 0 0  -2.2375 0 0  -2.225 0 0  -2.2125 0 0  -2.2 0 0  -2.1875 0 0  -2.175 0 0  -2.1625 0 0  -2.15 0 0  -2.1375 0 0  -2.125 0 0  -2.1125 0 0  -2.1 0 0  -2.0875 0 0  -2.075 0 0  -2.0625 0 0  -2.05 0 0  -2.0375 0 0  -2.025 0 0  -2.0125 0 0  -2 0 0  -1.9875 0 0  -1.975 0 0  -1.9625 0 0  -1.95 0 0  -1.9375 0 0  -1.925 0 0  -1.9125 0 0  -1.9 0 0  -1.8875 0 0  -1.875 0 0  -1.8625 0 0  -1.85 0 0  -1.8375 0 0  -1.825 0 0  -1.8125 0 0  -1.8 0 0  -1.7875 0 0  -1.775 0 0  -1.7625 0 0  -1.75 0 0  -1.7375 0 0  -1.725 0 0  -1.7125 0 0  -1.7 0 0  -1.6875 0 0  -1.675 0 0  -1.6625 0 0  -1.65 0 0  -1.6375 0 0  -1.625 0 0  -1.6125 0 0  -1.6 0 0  -1.5875 0 0  -1.575 0 0  -1.5625 0 0  -1.55 0 0  -1.5375 0 0  -1.525 0 0  -1.5125 0 0  -1.5 0 0  -1.4875 0 0  -1.475 0 0  -1.4625 0 0  -1.45 0 0  -1.4375 0 0  -1.425 0 0  -1.4125 0 0  -1.4 0 0  -1.3875 0 0  -1.375 0 0  -1.3625 0 0  -1.35 0 0  -1.3375 0 0  -1.325 0 0  -1.3125 0 0  -1.3 0 0  -1.2875 0 0  -1.275 0 0  -1.2625 0 0  -1.25 0 0  -1.2375 0 0  -1.225 0 0  -1.2125 0 0  -1.2 0 0  -1.1875 0 0  -1.175 0 0  -1.1625 0 0  -1.15 0 0  -1.1375 0 0  -1.125 0 0  -1.1125 0 0  -1.1 0 0  -1.0875 0 0  -1.075 0 0  -1.0625 0 0  -1.05 0 0  -1.0375 0 0  -1.025 0 0  -1.0125 0 0  -1 0 0  -0.9874999999999998 0 0  -0.9749999999999996 0 0  -0.9625000000000004 0 0  -0.9500000000000002 0 0  -0.9375 0 0  -0.9249999999999998 0 0  -0.9124999999999996 0 0  -0.9000000000000004 0 0  -0.8875000000000002 0 0  -0.875 0 0  -0.8624999999999998 0 0  -0.8499999999999996 0 0  -0.8375000000000004 0 0  -0.8250000000000002 0 0  -0.8125 0 0  -0.7999999999999998 0 0  -0.7874999999999996 0 0  -0.7750000000000004 0 0  -0.7625000000000002 0 0  -0.75 0 0  -0.7374999999999998 0 0  -0.7249999999999996 0 0  -0.7125000000000004 0 0  -0.7000000000000002 0 0  -0.6875 0 0  -0.6749999999999998 0 0  -0.6624999999999996 0 0  -0.6500000000000004 0 0  -0.6375000000000002 0 0  -0.625 0 0  -0.6124999999999998 0 0  -0.5999999999999996 0 0  -0.5875000000000004 0 0  -0.5750000000000002 0 0  -0.5625 0 0  -0.5499999999999998 0 0  -0.5374999999999996 0 0  -0.5250000000000004 0 0  -0.5125000000000002 0 0  -0.5 0 0  -0.4874999999999998 0 0  -0.4749999999999996 0 0  -0.4625000000000004 0 0  -0.4500000000000002 0 0  -0.4375 0 0  -0.4249999999999998 0 0  -0.4124999999999996 0 0  -0.4000000000000004 0 0  -0.3875000000000002 0 0  -0.375 0 0  -0.3624999999999998 0 0  -0.3499999999999996 0 0  -0.3375000000000004 0 0  -0.3250000000000002 0 0  -0.3125 0 0  -0.2999999999999998 0 0  -0.2874999999999996 0 0  -0.2750000000000004 0 0  -0.2625000000000002 0 0  -0.25 0 0  -0.2374999999999998 0 0  -0.2249999999999996 0 0  -0.2125000000000004 0 0  -0.2000000000000002 0 0  -0.1875 0 0  -0.1749999999999998 0 0  -0.1624999999999996 0 0  -0.1500000000000004 0 0  -0.1375000000000002 0 0  -0.125 0 0  -0.1124999999999998 0 0  -0.09999999999999964 0 0  -0.08750000000000036 0 0  -0.07500000000000018 0 0  -0.0625 0 0  -0.04999999999999982 0 0  -0.03749999999999964 0 0  -0.02500000000000036 0 0  -0.01250000000000018 0 0  0 0 0  0.01250000000000018 0 0  0.02500000000000036 0 0  0.03749999999999964 0 0  0.04999999999999982 0 0  0.0625 0 0  0.07500000000000018 0 0  0.08750000000000036 0 0  0.09999999999999964 0 0  0.1124999999999998 0 0  0.125 0 0  0.1375000000000002 0 0  0.1500000000000004 0 0  0.1624999999999996 0 0  0.1749999999999998 0 0  0.1875 0 0  0.2000000000000002 0 0  0.2125000000000004 0 0  0.2249999999999996 0 0  0.2374999999999998 0 0  0.25 0 0  0.2625000000000002 0 0  0.2750000000000004 0 0  0.2874999999999996 0 0  0.2999999999999998 0 0  0.3125 0 0  0.3250000000000002 0 0  0.3375000000000004 0 0  0.3499999999999996 0 0  0.3624999999999998 0 0  0.375 0 0  0.3875000000000002 0 0  0.4000000000000004 0 0  0.4124999999999996 0 0  0.4249999999999998 0 0  0.4375 0 0  0.4500000000000002 0 0  0.4625000000000004 0 0  0.4749999999999996 0 0  0.4874999999999998 0 0  0.5 0 0  0.5125000000000002 0 0  0.5250000000000004 0 0  0.5374999999999996 0 0  0.5499999999999998 0 0  0.5625 0 0  0.5750000000000002 0 0  0.5875000000000004 0 0  0.5999999999999996 0 0  0.6124999999999998 0 0  0.625 0 0  0.6375000000000002 0 0  0.6500000000000004 0 0  0.6624999999999996 0 0  0.6749999999999998 0 0  0.6875 0 0  0.7000000000000002 0 0  0.7125000000000004 0 0  0.7249999999999996 0 0  0.7374999999999998 0 0  0.75 0 0  0.7625000000000002 0 0  0.7750000000000004 0 0  0.7874999999999996 0 0  0.7999999999999998 0 0  0.8125 0 0  0.8250000000000002 0 0  0.8375000000000004 0 0  0.8499999999999996 0 0  0.8624999999999998 0 0  0.875 0 0  0.8875000000000002 0 0  0.9000000000000004 0 0  0.9124999999999996 0 0  0.9249999999999998 0 0  0.9375 0 0  0.9500000000000002 0 0  0.9625000000000004 0 0  0.9749999999999996 0 0  0.9874999999999998 0 0  1 0 0  1.0125 0 0  1.025 0 0  1.0375 0 0  1.05 0 0  1.0625 0 0  1.075 0 0  1.0875 0 0  1.1 0 0  1.1125 0 0  1.125 0 0  1.1375 0 0  1.15 0 0  1.1625 0 0  1.175 0 0  1.1875 0 0  1.2 0 0  1.2125 0 0  1.225 0 0  1.2375 0 0  1.25 0 0  1.2625 0 0  1.275 0 0  1.2875 0 0  1.3 0 0  1.3125 0 0  1.325 0 0  1.3375 0 0  1.35 0 0  1.3625 0 0  1.375 0 0  1.3875 0 0  1.4 0 0  1.4125 0 0  1.425 0 0  1.4375 0 0  1.45 0 0  1.4625 0 0  1.475 0 0  1.4875 0 0  1.5 0 0  1.5125 0 0  1.525 0 0  1.5375 0 0  1.55 0 0  1.5625 0 0  1.575 0 0  1.5875 0 0  1.6 0 0  1.6125 0 0  1.625 0 0  1.6375 0 0  1.65 0 0  1.6625 0 0  1.675 0 0  1.6875 0 0  1.7 0 0  1.7125 0 0  1.725 0 0  1.7375 0 0  1.75 0 0  1.7625 0 0  1.775 0 0  1.7875 0 0  1.8 0 0  1.8125 0 0  1.825 0 0  1.8375 0 0  1.85 0 0  1.8625 0 0  1.875 0 0  1.8875 0 0  1.9 0 0  1.9125 0 0  1.925 0 0  1.9375 0 0  1.95 0 0  1.9625 0 0  1.975 0 0  1.9875 0 0  2 0 0  2.0125 0 0  2.025 0 0  2.0375 0 0  2.05 0 0  2.0625 0 0  2.075 0 0  2.0875 0 0  2.1 0 0  2.1125 0 0  2.125 0 0  2.1375 0 0  2.15 0 0  2.1625 0 0  2.175 0 0  2.1875 0 0  2.2 0 0  2.2125 0 0  2.225 0 0  2.2375 0 0  2.25 0 0  2.2625 0 0  2.275 0 0  2.2875 0 0  2.3 0 0  2.3125 0 0  2.325 0 0  2.3375 0 0  2.35 0 0  2.3625 0 0  2.375 0 0  2.3875 0 0  2.4 0 0  2.4125 0 0  2.425 0 0  2.4375 0 0  2.45 0 0  2.4625 0 0  2.475 0 0  2.4875 0 0  2.5 0 0  2.5125 0 0  2.525 0 0  2.5375 0 0  2.55 0 0  2.5625 0 0  2.575 0 0  2.5875 0 0  2.6 0 0  2.6125 0 0  2.625 0 0  2.6375 0 0  2.65 0 0  2.6625 0 0  2.675 0 0  2.6875 0 0  2.7 0 0  2.7125 0 0  2.725 0 0  2.7375 0 0  2.75 0 0  2.7625 0 0  2.775 0 0  2.7875 0 0  2.8 0 0  2.8125 0 0  2.825 0 0  2.8375 0 0  2.85 0 0  2.8625 0 0  2.875 0 0  2.8875 0 0  2.9 0 0  2.9125 0 0  2.925 0 0  2.9375 0 0  2.95 0 0  2.9625 0 0  2.975 0 0  2.9875 0 0  3 0 0  3.012499999999999 0 0  3.025 0 0  3.0375 0 0  3.050000000000001 0 0  3.0625 0 0  3.074999999999999 0 0  3.0875 0 0  3.1 0 0  3.112500000000001 0 0  3.125 0 0  3.137499999999999 0 0  3.15 0 0  3.1625 0 0  3.175000000000001 0 0  3.1875 0 0  3.199999999999999 0 0  3.2125 0 0  3.225 0 0  3.237500000000001 0 0  3.25 0 0  3.262499999999999 0 0  3.275 0 0  3.2875 0 0  3.300000000000001 0 0  3.3125 0 0  3.324999999999999 0 0  3.3375 0 0  3.35 0 0  3.362500000000001 0 0  3.375 0 0  3.387499999999999 0 0  3.4 0 0  3.4125 0 0  3.425000000000001 0 0  3.4375 0 0  3.449999999999999 0 0  3.4625 0 0  3.475 0 0  3.4875
[...]
<PointData  Vectors="(h, u)"> 
<DataArray  type="Float64"  Name="(h, u)"  NumberOfComponents="3" format="ascii">3.6351441783717470e-01 0.0000000000000000e+00 0.0000000000000000e+00  3.6362572854668046e-01 9.2764802379714604e-03 0.0000000000000000e+00  3.6350934000791352e-01 1.8565860598667019e-02 0.0000000000000000e+00  3.6361574299087601e-01 2.7829794345646065e-02 0.0000000000000000e+00  3.6349410483511835e-01 3.7132465262884183e-02 0.0000000000000000e+00  3.6359576848143504e-01 4.6384169979932451e-02 0.0000000000000000e+00  3.6346870724633101e-01 5.5700559070967978e-02 0.0000000000000000e+00  3.6356579816122164e-01 6.4940316849706206e-02 0.0000000000000000e+00  3.6343313865460686e-01 7.4270889047197003e-02 0.0000000000000000e+00  3.6352582152507967e-01 8.3498947559381961e-02 0.0000000000000000e+00  3.6338738675132276e-01 9.2844204837259081e-02 0.0000000000000000e+00  3.6347582421943347e-01 1.0206077816919495e-01 0.0000000000000000e+00  3.6333143530662282e-01 1.1142125884080700e-01 0.0000000000000000e+00  3.6341578778290040e-01 1.2062652854496067e-01 0.0000000000000000e+00  3.6326526384291247e-01 1.3000280657180097e-01 0.0000000000000000e+00  3.6334568929862376e-01 1.3919692285230456e-01 0.0000000000000000e+00  3.6318884738300139e-01 1.4858960658058021e-01 0.0000000000000000e+00  3.6326550123467050e-01 1.5777268923876400e-01 0.0000000000000000e+00  3.6310215629897569e-01 1.6718242029254199e-01 0.0000000000000000e+00  3.6317519116434088e-01 1.7635456075927622e-01 0.0000000000000000e+00  3.6300515601353850e-01 1.8578201348397083e-01 0.0000000000000000e+00  3.6307472165098953e-01 1.9494327648764326e-01 0.0000000000000000e+00  3.6289780721793496e-01 2.0438915633466878e-01 0.0000000000000000e+00  3.6296405050880998e-01 2.1353958201768677e-01 0.0000000000000000e+00  3.6278006586735179e-01 2.2300462604961127e-01 0.0000000000000000e+00  3.6284313053634787e-01 2.3214423402283552e-01 0.0000000000000000e+00  3.6265188327092784e-01 2.4162921018656480e-01 0.0000000000000000e+00  3.6271191024810001e-01 2.5075800057150471e-01 0.0000000000000000e+00  3.6251320696978695e-01 2.6026370653557601e-01 0.0000000000000000e+00  3.6257033386489756e-01 2.6938166554902110e-01 0.0000000000000000e+00  3.6236397996313696e-01 2.7890893137664724e-01 0.0000000000000000e+00  3.6241834110803339e-01 2.8801603343348797e-01 0.0000000000000000e+00  3.6220414203972012e-01 2.9756571563726614e-01 0.0000000000000000e+00  3.6225586855976583e-01 3.0666192436901818e-01 0.0000000000000000e+00  3.6203362890830898e-01 3.1623491056328495e-01 0.0000000000000000e+00  3.6208284696262649e-01 3.2532018815601976e-01 0.0000000000000000e+00  3.6185237142019805e-01 3.3491739060066417e-01 0.0000000000000000e+00  3.6189920394735564e-01 3.4399168768374722e-01 0.0000000000000000e+00  3.6166029763678392e-01 3.5361403941540537e-01 0.0000000000000000e+00  3.6170486033394234e-01 3.6267731404572834e-01 0.0000000000000000e+00  3.6145732668671654e-01 3.7232577727234872e-01 0.0000000000000000e+00  3.6149973059382062e-01 3.8137797936132062e-01 0.0000000000000000e+00  3.6124337641352849e-01 3.9105351649464704e-01 0.0000000000000000e+00  3.6128372479088411e-01 4.0009460279041376e-01 0.0000000000000000e+00  3.6101835221066320e-01 4.0979821600023153e-01 0.0000000000000000e+00  3.6105673916372966e-01 4.1882815769252829e-01 0.0000000000000000e+00  3.6078215727529500e-01 4.2856082666642098e-01 0.0000000000000000e+00  3.6081867320785654e-01 4.3757958332989516e-01 0.0000000000000000e+00  3.6053468498126667e-01 4.4734233308276200e-01 0.0000000000000000e+00  3.6056940203790144e-01 4.5634993169911459e-01 0.0000000000000000e+00  3.6027581876185005e-01 4.6614375900136379e-01 0.0000000000000000e+00  3.6030881514858842e-01 4.7514016962876460e-01 0.0000000000000000e+00  3.6000544678704111e-01 4.8496609741333829e-01 0.0000000000000000e+00  3.6003676729598771e-01 4.9395143982878603e-01 0.0000000000000000e+00  3.5972342673547308e-01 5.0381049943673994e-01 0.0000000000000000e+00  3.5975313736049713e-01 5.1278475883175789e-01 0.0000000000000000e+00  3.5942965183879555e-01 5.2267793183607425e-01 0.0000000000000000e+00  3.5945776397346801e-01 5.3164135830849013e-01 0.0000000000000000e+00  3.5912394346083348e-01 5.4156973429618804e-01 0.0000000000000000e+00  3.5915051297136796e-01 5.5052233657950378e-01 0.0000000000000000e+00  3.5880621192065393e-01 5.6048677474215214e-01 0.0000000000000000e+00  3.5883121099533860e-01 5.6942900440138688e-01 0.0000000000000000e+00  3.5847622237008492e-01 5.7943067236640478e-01 0.0000000000000000e+00  3.5849970448238649e-01 5.8836256041679469e-01 0.0000000000000000e+00  3.5813392350669887e-01 5.9840209664660537e-01 0.0000000000000000e+00  3.5815579689166882e-01 6.0732439218833989e-01 0.0000000000000000e+00  3.5777899186885220e-01 6.1740316493362624e-01 0.0000000000000000e+00  3.5779931065344123e-01 6.2631575156640185e-01 0.0000000000000000e+00  3.5741144856502044e-01 6.3643417445558303e-01 0.0000000000000000e+00  3.5742999593833968e-01 6.4533832234154431e-01 0.0000000000000000e+00  3.5703079882360478e-01 6.5549798871719356e-01 0.0000000000000000e+00  3.5704772168644050e-01 6.6439330377337469e-01 0.0000000000000000e+00  3.5663716834966952e-01 6.7459413549412139e-01 0.0000000000000000e+00  3.5665207091292472e-01 6.8348326617832056e-01 0.0000000000000000e+00  3.5622987794684524e-01 6.9372680584689317e-01 0.0000000000000000e+00  3.5624303791474160e-01 7.0260783022902906e-01 0.0000000000000000e+00  3.5580933279188193e-01 7.1289538537311736e-01 0.0000000000000000e+00  3.5581965526835302e-01 7.2177128715397376e-01 0.0000000000000000e+00  3.5537473453900797e-01 7.3210457509633697e-01 0.0000000000000000e+00  3.5538281625616891e-01 7.4097132630304929e-01 0.0000000000000000e+00  3.5492573611260175e-01 7.5135128719574396e-01 0.0000000000000000e+00  3.5493158137695863e-01 7.6022149734493472e-01 0.0000000000000000e+00  3.5446130905434969e-01 7.7063257519761941e-01 0.0000000000000000e+00  3.5446789964236153e-01 7.7951529582838708e-01 0.0000000000000000e+00  3.5398114600045416e-01 7.8996043057704701e-01 0.0000000000000000e+00  3.5398643454645073e-01 7.9885010577852045e-01 0.0000000000000000e+00  3.5349236428491904e-01 8.0935101844217361e-01 0.0000000000000000e+00  3.5348217208398813e-01 8.1818943981958658e-01 0.0000000000000000e+00  3.5299447938996553e-01 8.2884879454787741e-01 0.0000000000000000e+00  3.5295818397736500e-01 8.3754717312563787e-01 0.0000000000000000e+00  3.5247718470371131e-01 8.4835350303123691e-01 0.0000000000000000e+00  3.5243886118794227e-01 8.5710291054198018e-01 0.0000000000000000e+00  3.5189705949954864e-01 8.6767508449536013e-01 0.0000000000000000e+00  3.5196779697665886e-01 8.7700520392789949e-01 0.0000000000000000e+00  3.5124580660469601e-01 8.8679706614295983e-01 0.0000000000000000e+00  3.5147783242108310e-01 8.9700010147875908e-01 0.0000000000000000e+00  3.5068194232764055e-01 9.0644449126706894e-01 0.0000000000000000e+00  3.5073435767373945e-01 9.1582900889770480e-01 0.0000000000000000e+00  3.5045657169911332e-01 9.2813130756529216e-01 0.0000000000000000e+00  3.4957802182402403e-01 9.3250088489154537e-01 0.0000000000000000e+00  3.5046025068268499e-01 9.5120258637631105e-01 0.0000000000000000e+00  3.4859110005834681e-01 9.5039672271537756e-01 0.0000000000000000e+00  3.4948984827205598e-01 9.6910767982304713e-01 0.0000000000000000e+00  3.4948372744745460e-01 9.7846166107709709e-01 0.0000000000000000e+00  3.4583072440298596e-01 9.7314690537295467e-01 0.0000000000000000e+00  3.5294298043786454e-01 1.0199176764533910e+00 0.0000000000000000e+00  3.4109690470234799e-01 9.7156802593039859e-01 0.0000000000000000e+00  3.5375628990221325e-01 1.0481766535007584e+00 0.0000000000000000e+00  3.4421582113212884e-01 1.0120053888666423e+00 0.0000000000000000e+00  3.4024856325381514e-01 1.0019648057422179e+00 0.0000000000000000e+00  3.6503568518264007e-01 1.1433324242840064e+00 0.0000000000000000e+00  3.0816669007078207e-01 8.5856447323056073e-01 0.0000000000000000e+00  3.8513628039667291e-01 1.2336023185882177e+00 0.0000000000000000e+00  2.1017641875798670e-01 4.4543021395098353e-01 0.0000000000000000e+00  6.1545470689792575e-02 -1.7359543705460754e+00 0.0000000000000000e+00  8.1829897325605319e-02 -1.0249380494572313e+00 0.0000000000000000e+00  7.8909372563812252e-02 -1.3064134808584582e+00 0.0000000000000000e+00  7.7315176462095916e-02 -1.1917965310897283e+00 0.0000000000000000e+00  7.7486539101302959e-02 -1.2359152683045245e+00 0.0000000000000000e+00  7.7094850232611908e-02 -1.2184352773434124e+00 0.0000000000000000e+00  7.6015066864432629e-02 -1.2222951946847032e+00 0.0000000000000000e+00  7.6302452588036640e-02 -1.2201125307274432e+00 0.0000000000000000e+00  7.4969093376169110e-02 -1.2192552712915947e+00 0.0000000000000000e+00  7.5296129951910831e-02 -1.2178125331747438e+00 0.0000000000000000e+00  7.3996026944723459e-02 -1.2176821245143317e+00 0.0000000000000000e+00  7.4276883516417661e-02 -1.2154212404911053e+00 0.0000000000000000e+00  7.3008552844181424e-02 -1.2161099803158497e+00 0.0000000000000000e+00  7.3269795844032218e-02 -1.2133765591808434e+00 0.0000000000000000e+00  7.2006925672444808e-02 -1.2145138272293903e+00 0.0000000000000000e+00  7.2266407933099464e-02 -1.2115991097477170e+00 0.0000000000000000e+00  7.0998841284621680e-02 -1.2129966232730851e+00 0.0000000000000000e+00  7.1260677692318780e-02 -1.2100242483591697e+00 0.0000000000000000e+00  6.9987299368196212e-02 -1.2116123856182799e+00 0.0000000000000000e+00  7.0250572634303524e-02 -1.2086328757974154e+00 0.0000000000000000e+00  6.8972560602447122e-02 -1.2103842810404899e+00 0.0000000000000000e+00  6.9235618374474117e-02 -1.2074251223400652e+00 0.0000000000000000e+00  6.7954064453705498e-02 -1.2093259182830332e+00 0.0000000000000000e+00  6.8215666318927906e-02 -1.2064065928226215e+00 0.0000000000000000e+00  6.6931128540037341e-02 -1.2084491434081877e+00 0.0000000000000000e+00  6.7190544314282244e-02 -1.2055844778243294e+00 0.0000000000000000e+00  6.5903109357304618e-02 -1.2077657096195518e+00 0.0000000000000000e+00  6.6160003335628173e-02 -1.2049669332120021e+00 0.0000000000000000e+00  6.4869422489637063e-02 -1.2072873431633091e+00 0.0000000000000000e+00  6.5123729141999195e-02 -1.2045630473568048e+00 0.0000000000000000e+00  6.3829543985024842e-02 -1.2070255858596952e+00 0.0000000000000000e+00  6.4081365103648549e-02 -1.2043827319555338e+00 0.0000000000000000e+00  6.2783016389366925e-02 -1.2069916380137098e+00 0.0000000000000000e+00  6.3032541950675341e-02 -1.2044364395517764e+00 0.0000000000000000e+00  6.1729462801146488e-02 -1.2071961555257629e+00 0.0000000000000000e+00  6.1976918302378385e-02 -1.2047346918492639e+00 0.0000000000000000e+00  6.0668612300810568e-02 -1.2076489120460143e+00 0.0000000000000000e+00  6.0914236398031431e-02 -1.2052873799585924e+00 0.0000000000000000e+00  5.9600342884162286e-02 -1.2083582195464009e+00 0.0000000000000000e+00  5.9844398513507924e-02 -1.2061027593081493e+00 0.0000000000000000e+00  5.8524750652577479e-02 -1.2093299719096238e+00 0.0000000000000000e+00  5.8767571928760060e-02 -1.2071860160300667e+00 0.0000000000000000e+00  5.7442256552141767e-02 -1.2105661353758472e+00 0.0000000000000000e+00  5.7684333475529072e-02 -1.2085372272412183e+00 0.0000000000000000e+00  5.6353764356150450e-02 -1.2120624629487839e+00 0.0000000000000000e+00  5.6595867607345779e-02 -1.2101484829276461e+00 0.0000000000000000e+00  5.5260884812796764e-02 -1.2138051731502488e+00 0.0000000000000000e+00  5.5504232505148743e-02 -1.2119999087101134e+00 0.0000000000000000e+00  5.4166238199319601e-02 -1.2157663458902641e+00 0.0000000000000000e+00  5.4412702928013493e-02 -1.2140543843758873e+00 0.0000000000000000e+00  5.3073835777235019e-02 -1.2178979268722119e+00 0.0000000000000000e+00  5.3326179928014396e-02 -1.2162509913691772e+00 0.0000000000000000e+00  5.1989512740592159e-02 -1.2201246117698177e+00 0.0000000000000000e+00  5.2251619221649420e-02 -1.2184977635245027e+00 0.0000000000000000e+00  5.0921335270861040e-02 -1.2223366172194714e+00 0.0000000000000000e+00  5.1198367351290484e-02 -1.2206652623219882e+00 0.0000000000000000e+00  4.9879828231370285e-02 -1.2243845389296579e+00 0.0000000000000000e+00  5.0178204936480474e-02 -1.2225839368736215e+00 0.0000000000000000e+00  4.8877772322467705e-02 -1.2260801298591593e+00 0.0000000000000000e+00  4.9204807209878042e-02 -1.2240497998117379e+00 0.0000000000000000e+00  4.7929273007943821e-02 -1.2272078713831311e+00 0.0000000000000000e+00  4.8292373546201590e-02 -1.2248427468415208e+00 0.0000000000000000e+00  4.7047977008484190e-02 -1.2275500641511292e+00 0.0000000000000000e+00  4.7453503883698615e-02 -1.2247573564395098e+00 0.0000000000000000e+00  4.6244772314377985e-02 -1.2269214352249669e+00 0.0000000000000000e+00  4.6696930848869118e-02 -1.2236379278989973e+00 0.0000000000000000e+00  4.5525805508893555e-02 -1.2252012260085285e+00 0.0000000000000000e+00  4.6026053590299681e-02 -1.2214035758665931e+00 0.0000000000000000e+00  4.4891705316055332e-02 -1.2223487486634956e+00 0.0000000000000000e+00  4.5438921776256191e-02 -1.2180525298901932e+00 0.0000000000000000e+00  4.4338278187126594e-02 -1.2183969016506915e+00 0.0000000000000000e+00  4.4929502311772868e-02 -1.2136466138000583e+00 0.0000000000000000e+00  4.3858137387665259e-02 -1.2134304186814775e+00 0.0000000000000000e+00  4.4489462291992549e-02 -1.2082864887647864e+00 0.0000000000000000e+00  4.3442448158436939e-02 -1.2075607555285552e+00 0.0000000000000000e+00  4.4109747315046376e-02 -1.2020884993242564e+00 0.0000000000000000e+00  4.3082256250182978e-02 -1.2009060158046103e+00 0.0000000000000000e+00  4.3781636020817347e-02 -1.1951684458554890e+00 0.0000000000000000e+00  4.2769272338329382e-02 -1.1935784390836932e+00 0.0000000000000000e+00  4.3497287272280562e-02 -1.1876325833310748e+00 0.0000000000000000e+00  4.2496219172786953e-02 -1.1856783015467869e+00 0.0000000000000000e+00  4.3249931698621333e-02 -1.1795739156117424e+00 0.0000000000000000e+00  4.2256904099193603e-02 -1.1772920204369848e+00 0.0000000000000000e+00  4.3033860579664421e-02 -1.1710716448882501e+00 0.0000000000000000e+00  4.2046149198055251e-02 -1.1684925551839009e+00 0.0000000000000000e+00  4.2844320085014480e-02 -1.1621921956363008e+00 0.0000000000000000e+00  4.1859663257090909e-02 -1.1593408416825242e+00 0.0000000000000000e+00  4.2677374119377255e-02 -1.1529908522083880e+00 0.0000000000000000e+00  4.1693901450491476e-02 -1.1498875436026772e+00 0.0000000000000000e+00  4.2529767863798189e-02 -1.1435135005076458e+00 0.0000000000000000e+00  4.1545934336249146e-02 -1.1401747643506872e+00 0.0000000000000000e+00  4.2398805779664574e-02 -1.1337982386985335e+00 0.0000000000000000e+00  4.1413334346738315e-02 -1.1302375693882276e+00 0.0000000000000000e+00  4.2282248232813430e-02 -1.1238767710240807e+00 0.0000000000000000e+00  4.1294081256904779e-02 -1.1201052754345928e+00 0.0000000000000000e+00  4.2178226377755590e-02 -1.1137755722922544e+00 0.0000000000000000e+00  4.1186485170434224e-02 -1.1098025130604303e+00 0.0000000000000000e+00  4.2085173134270085e-02 -1.1035168426165916e+00 0.0000000000000000e+00  4.1089124533409849e-02 -1.0993500891761887e+00 0.0000000000000000e+00  4.2001767610813610e-02 -1.0931192829160876e+00 0.0000000000000000e+00  4.1000796557039296e-02 -1.0887656811367215e+00 0.0000000000000000e+00  4.1926890439514461e-02 -1.0825987227472096e+00 0.0000000000000000e+00  4.0920477678654865e-02 -1.0780643927922147e+00 0.0000000000000000e+00  4.1859587826829116e-02 -1.0719686288721517e+00 0.0000000000000000e+00  4.0847292048641286e-02 -1.0672591990516720e+00 0.0000000000000000e+00  4.1799042504666484e-02 -1.0612405185981084e+00 0.0000000000000000e+00  4.0780486424704922e-02 -1.0563613007164263e+00 0.0000000000000000e+00  4.1744550086170784e-02 -1.0504242980748433e+00 0.0000000000000000e+00  4.0719410191289065e-02 -1.0453804070535249e+00 0.0000000000000000e+00  4.1695499694699815e-02 -1.0395285408991111e+00 0.0000000000000000e+00  4.0663499397670937e-02 -1.0343249615107868e+00 0.0000000000000000e+00  4.1651357980547817e-02 -1.0285607191379691e+00 0.0000000000000000e+00  4.0612264169665992e-02 -1.0232023193064579e+00 0.0000000000000000e+00  4.1611655434911674e-02 -1.0175274024196792e+00 0.0000000000000000e+00  4.0565279167631092e-02 -1.0120188810517763e+00 0.0000000000000000e+00  4.1575974660474004e-02 -1.0064344294893119e+00 0.0000000000000000e+00  4.0522175680119593e-02 -1.0007802035706956e+00 0.0000000000000000e+00  4.1543941048185665e-02 -9.9528704469755691e-01 0.0000000000000000e+00  4.0482635562876831e-02 -9.8949108414544562e-01 0.0000000000000000e+00  4.1515212423920769e-02 -9.8409005183657705e-01 0.0000000000000000e+00  4.0446390949332556e-02 -9.7815555703575019e-01 0.0000000000000000e+00  4.1489466123193215e-02 -9.7284800857659293e-01 0.0000000000000000e+00  4.0413223398261110e-02 -9.6677690029570518e-01 0.0000000000000000e+00  4.1466396130196440e-02 -9.6156526659801544e-01 0.0000000000000000e+00  4.0382952023219940e-02 -9.5535781454462254e-01 0.0000000000000000e+00  4.1445712678099912e-02 -9.5024597475710704e-01 0.0000000000000000e+00  4.0355444585942514e-02 -9.4390024623549096e-01 0.0000000000000000e+00  4.1427095038135756e-02 -9.3889480407825576e-01 0.0000000000000000e+00  4.0330678122563281e-02 -9.3240444452091120e-01 0.0000000000000000e+00  4.1410138994244727e-02 -9.2751775285444193e-01 0.0000000000000000e+00  4.0308721904437649e-02 -9.2086922653627201e-01 0.0000000000000000e+00  4.1394463577015025e-02 -9.1612049549923735e-01 0.0000000000000000e+00  4.0289559105794896e-02 -9.0929474390642295e-01 0.0000000000000000e+00  4.1379842465949411e-02 -9.0470635756472717e-01 0.0000000000000000e+00  4.0273159941788490e-02 -8.9768133816055806e-01 0.0000000000000000e+00  4.1365777174154378e-02 -8.9328290536941413e-01 0.0000000000000000e+00  4.0260257531098992e-02 -8.8601749656119311e-01 0.0000000000000000e+00  4.1350586206473007e-02 -8.8187598137671974e-01 0.0000000000000000e+00  4.0252933135924096e-02 -8.7427081111874194e-01 0.0000000000000000e+00  4.1331698888797910e-02 -8.7052511786681919e-01 0.0000000000000000e+00  4.0252992487573094e-02 -8.6241325731669205e-01 0.0000000000000000e+00  4.1308691837972596e-02 -8.5923664712502024e-01 0.0000000000000000e+00  4.0257962521846921e-02 -8.5048330461611599e-01 0.0000000000000000e+00  4.1287316443461806e-02 -8.4792161821066614e-01 0.0000000000000000e+00  4.0258277971336492e-02 -8.3862930286894077e-01 0.0000000000000000e+00  4.1279945898502438e-02 -8.3638913424168126e-01 0.0000000000000000e+00  4.0239870524910980e-02 -8.2706893456255481e-01 0.0000000000000000e+00  4.1300022052233869e-02 -8.2443248473396180e-01 0.0000000000000000e+00  4.0191788762147934e-02 -8.1597095080993731e-01 0.0000000000000000e+00  4.1353897210677816e-02 -8.1195539264396965e-01 0.0000000000000000e+00  4.0113224956307786e-02 -8.0534647180305019e-01 0.0000000000000000e+00  4.1436365628365231e-02 -7.9904061792808845e-01 0.0000000000000000e+00  4.0014707792465430e-02 -7.9503067711654474e-01 0.0000000000000000e+00  4.1532708405486125e-02 -7.8591730017702977e-01 0.0000000000000000e+00  3.9913303422203242e-02 -7.8475723433577471e-01 0.0000000000000000e+00  4.1625282638805952e-02 -7.7285833804648663e-01 0.0000000000000000e+00  3.9825078054429267e-02 -7.7427544454794905e-01 0.0000000000000000e+00  4.1700861354301344e-02 -7.6006717047914207e-01 0.0000000000000000e+00  3.9759032191224758e-02 -7.6344485910028237e-01 0.0000000000000000e+00  4.1754509866169513e-02 -7.4761878833552253e-01 0.0000000000000000e+00  3.9716049399537830e-02 -7.5225180859705087e-01 0.0000000000000000e+00  4.1788106863720607e-02 -7.3548330787429583e-01 0.0000000000000000e+00  3.9692220375691263e-02 -7.4075747956413207e-01 0.0000000000000000e+00  4.1806363087467331e-02 -7.2358764299392442e-01 0.0000000000000000e+00  3.9682500551326425e-02 -7.2904067662458172e-01 0.0000000000000000e+00  4.1814042151998271e-02 -7.1185830521300963e-01 0.0000000000000000e+00  3.9682463700423533e-02 -7.1717035503967086e-01 0.0000000000000000e+00  4.1814995075492870e-02 -7.0023616528241883e-01 0.00