<?xml version="1.0"?>
<VTKFile type="UnstructuredGrid"  version="0.1"  >
<UnstructuredGrid>
<Piece  NumberOfPoints="801" NumberOfCells="800">
<Points>
<DataArray  type="Float64"  NumberOfComponents="3"  format="ascii">-5 0 0  -4.9875 0 0  -4.975 0 0  -4.9625 0 0  -4.95 0 0  -4.9375 0 0  -4.925 0 0  -4.9125 0 0  -4.9 0 0  -4.8875 0 0  -4.875 0 0  -4.8625 0 0  -4.85 0 0  -4.8375 0 0  -4.825 0 0  -4.8125 0 0  -4.8 0 0  -4.7875 0 0  -4.775 0 0  -4.7625 0 0  -4.75 0 0  -4.7375 0 0  -4.725 0 0  -4.7125 0 0  -4.7 0 0  -4.6875 0 0  -4.675 0 0  -4.6625 0 0  -4.65 0 0  -4.6375 0 0  -4.625 0 0  -4.6125 0 0  -4.6 0 0  -4.5875 0 0  -4.575 0 0  -4.5625 0 0  -4.55 0 0  -4.5375 0 0  -4.525 0 0  -4.5125 0 0  -4.5 0 0  -4.4875 0 0  -4.475 0 0  -4.4625 0 0  -4.45 0 0  -4.4375 0 0  -4.425 0 0  -4.4125 0 0  -4.4 0 0  -4.3875 0 0  -4.375 0 0  -4.3625 0 0  -4.35 0 0  -4.3375 0 0  -4.325 0 0  -4.3125 0 0  -4.3 0 0  -4.2875 0 0  -4.275 0 0  -4.2625 0 0  -4.25 0 0  -4.2375 0 0  -4.225 0 0  -4.2125 0 0  -4.2 0 0  -4.1875 0 0  -4.175 0 0  -4.1625 0 0  -4.15 0 0  -4.1375 0 0  -4.125 0 0  -4.1125 0 0  -4.1 0 0  -4.0875 0 0  -4.075 0 0  -4.0625 0 0  -4.05 0 0  -4.0375 0 0  -4.025 0 0  -4.0125 0 0  -4 0 0  -3.9875 0 0  -3.975 0 0  -3.9625 0 0  -3.95 0 0  -3.9375 0 0  -3.925 0 0  -3.9125 0 0  -3.9 0 0  -3.8875 0 0  -3.875 0 0  -3.8625 0 0  -3.85 0 0  -3.8375 0 0  -3.825 0 0  -3.8125 0 0  -3.8 0 0  -3.7875 0 0  -3.775 0 0  -3.7625 0 0  -3.75 0 0  -3.7375 0 0  -3.725 0 0  -3.7125 0 0  -3.7 0 0  -3.6875 0 0  -3.675 0 0  -3.6625 0 0  -3.65 0 0  -3.6375 0 0  -3.625 0 0  -3.6125 0 0  -3.6 0 0  -3.5875 0 0  -3.575 0 0  -3.5625 0 0  -3.55 0 0  -3.5375 0 0  -3.525 0 0  -3.5125 0 0  -3.5 0 0  -3.4875 0 0  -3.475 0 0  -3.4625 0 0  -3.45 0 0  -3.4375 0 0  -3.425 0 0  -3.4125 0 0  -3.4 0 0  -3.3875 0 0  -3.375 0 0  -3.3625 0 0  -3.35 0 0  -3.3375 0 0  -3.325 0 0  -3.3125 0 0  -3.3 0 0  -3.2875 0 0  -3.275 0 0  -3.2625 0 0  -3.25 0 0  -3.2375 0 0  -3.225 0 0  -3.2125 0 0  -3.2 0 0  -3.1875 0 0  -3.175 0 0  -3.1625 0 0  -3.15 0 0  -3.1375 0 0  -3.125 0 0  -3.1125 0 0  -3.1 0 0  -3.0875 0 0  -3.075 0 0  -3.0625 0 0  -3.05 0 0  -3.0375 0 0  -3.025 0 0  -3.0125 0 0  -3 0 0  -2.9875 0 0  -2.975 0 0  -2.9625 0 0  -2.95 0 0  -2.9375 0 0  -2.925 0 0  -2.9125 0 0  -2.9 0 0  -2.8875 0 0  -2.875 0 0  -2.8625 0 0  -2.85 0 0  -2.8375 0 0  -2.825 0 0  -2.8125 0 0  -2.8 0 0  -2.7875 0 0  -2.775 0 0  -2.7625 0 0  -2.75 0 0  -2.7375 0 0  -2.725 0 0  -2.7125 0 0  -2.7 0 0  -2.6875 0 0  -2.675 0 0  -2.6625 0 0  -2.65 0 0  -2.6375 0 0  -2.625 0 0  -2.6125 0 0  -2.6 0 0  -2.5875 0 0  -2.575 0 0  -2.5625 0 0  -2.55 0 0  -2.5375 0 0  -2.525 0 0  -2.5125 0 0  -2.5 0 0  -2.4875 0 0  -2.475 0 0  -2.4625 0 0  -2.45 0 0  -2.4375 0 0  -2.425 0 0  -2.4125 0 0  -2.4 0 0  -2.3875 0 0  -2.375 0 0  -2.3625 0 0  -2.35 0 0  -2.3375 0 0  -2.325 0 0  -2.3125 0 0  -2.3 0 0  -2.2875 0 0  -2.275 0 0  -2.2625 0 0  -2.25 0 0  -2.2375 0 0  -2.225 0 0  -2.2125 0 0  -2.2 0 0  -2.1875 0 0  -2.175 0 0  -2.1625 0 0  -2.15 0 0  -2.1375 0 0  -2.125 0 0  -2.1125 0 0  -2.1 0 0  -2.0875 0 0  -2.075 0 0  -2.0625 0 0  -2.05 0 0  -2.0375 0 0  -2.025 0 0  -2.0125 0 0  -2 0 0  -1.9875 0 0  -1.975 0 0  -1.9625 0 0  -1.95 0 0  -1.9375 0 0  -1.925 0 0  -1.9125 0 0  -1.9 0 0  -1.8875 0 0  -1.875 0 0  -1.8625 0 0  -1.85 0 0  -1.8375 0 0  -1.825 0 0  -1.8125 0 0  -1.8 0 0  -1.7875 0 0  -1.775 0 0  -1.7625 0 0  -1.75 0 0  -1.7375 0 0  -1.725 0 0  -1.7125 0 0  -1.7 0 0  -1.6875 0 0  -1.675 0 0  -1.6625 0 0  -1.65 0 0  -1.6375 0 0  -1.625 0 0  -1.6125 0 0  -1.6 0 0  -1.5875 0 0  -1.575 0 0  -1.5625 0 0  -1.55 0 0  -1.5375 0 0  -1.525 0 0  -1.5125 0 0  -1.5 0 0  -1.4875 0 0  -1.475 0 0  -1.4625 0 0  -1.45 0 0  -1.4375 0 0  -1.425 0 0  -1.4125 0 0  -1.4 0 0  -1.3875 0 0  -1.375 0 0  -1.3625 0 0  -1.35 0 0  -1.3375 0 0  -1.325 0 0  -1.3125 0 0  -1.3 0 0  -1.2875 0 0  -1.275 0 0  -1.2625 0 0  -1.25 0 0  -1.2375 0 0  -1.225 0 0  -1.2125 0 0  -1.2 0 0  -1.1875 0 0  -1.175 0 0  -1.1625 0 0  -1.15 0 0  -1.1375 0 0  -1.125 0 0  -1.1125 0 0  -1.1 0 0  -1.0875 0 0  -1.075 0 0  -1.0625 0 0  -1.05 0 0  -1.0375 0 0  -1.025 0 0  -1.0125 0 0  -1 0 0  -0.9874999999999998 0 0  -0.9749999999999996 0 0  -0.9625000000000004 0 0  -0.9500000000000002 0 0  -0.9375 0 0  -0.9249999999999998 0 0  -0.9124999999999996 0 0  -0.9000000000000004 0 0  -0.8875000000000002 0 0  -0.875 0 0  -0.8624999999999998 0 0  -0.8499999999999996 0 0  -0.8375000000000004 0 0  -0.8250000000000002 0 0  -0.8125 0 0  -0.7999999999999998 0 0  -0.7874999999999996 0 0  -0.7750000000000004 0 0  -0.7625000000000002 0 0  -0.75 0 0  -0.7374999999999998 0 0  -0.7249999999999996 0 0  -0.7125000000000004 0 0  -0.7000000000000002 0 0  -0.6875 0 0  -0.6749999999999998 0 0  -0.6624999999999996 0 0  -0.6500000000000004 0 0  -0.6375000000000002 0 0  -0.625 0 0  -0.6124999999999998 0 0  -0.5999999999999996 0 0  -0.5875000000000004 0 0  -0.5750000000000002 0 0  -0.5625 0 0  -0.5499999999999998 0 0  -0.5374999999999996 0 0  -0.5250000000000004 0 0  -0.5125000000000002 0 0  -0.5 0 0  -0.4874999999999998 0 0  -0.4749999999999996 0 0  -0.4625000000000004 0 0  -0.4500000000000002 0 0  -0.4375 0 0  -0.4249999999999998 0 0  -0.4124999999999996 0 0  -0.4000000000000004 0 0  -0.3875000000000002 0 0  -0.375 0 0  -0.3624999999999998 0 0  -0.3499999999999996 0 0  -0.3375000000000004 0 0  -0.3250000000000002 0 0  -0.3125 0 0  -0.2999999999999998 0 0  -0.2874999999999996 0 0  -0.2750000000000004 0 0  -0.2625000000000002 0 0  -0.25 0 0  -0.2374999999999998 0 0  -0.2249999999999996 0 0  -0.2125000000000004 0 0  -0.2000000000000002 0 0  -0.1875 0 0  -0.1749999999999998 0 0  -0.1624999999999996 0 0  -0.1500000000000004 0 0  -0.1375000000000002 0 0  -0.125 0 0  -0.1124999999999998 0 0  -0.09999999999999964 0 0  -0.08750000000000036 0 0  -0.07500000000000018 0 0  -0.0625 0 0  -0.04999999999999982 0 0  -0.03749999999999964 0 0  -0.02500000000000036 0 0  -0.01250000000000018 0 0  0 0 0  0.01250000000000018 0 0  0.02500000000000036 0 0  0.03749999999999964 0 0  0.04999999999999982 0 0  0.0625 0 0  0.07500000000000018 0 0  0.08750000000000036 0 0  0.09999999999999964 0 0  0.1124999999999998 0 0  0.125 0 0  0.1375000000000002 0 0  0.1500000000000004 0 0  0.1624999999999996 0 0  0.1749999999999998 0 0  0.1875 0 0  0.2000000000000002 0 0  0.2125000000000004 0 0  0.2249999999999996 0 0  0.2374999999999998 0 0  0.25 0 0  0.2625000000000002 0 0  0.2750000000000004 0 0  0.2874999999999996 0 0  0.2999999999999998 0 0  0.3125 0 0  0.3250000000000002 0 0  0.3375000000000004 0 0  0.3499999999999996 0 0  0.3624999999999998 0 0  0.375 0 0  0.3875000000000002 0 0  0.4000000000000004 0 0  0.4124999999999996 0 0  0.4249999999999998 0 0  0.4375 0 0  0.4500000000000002 0 0  0.4625000000000004 0 0  0.4749999999999996 0 0  0.4874999999999998 0 0  0.5 0 0  0.5125000000000002 0 0  0.5250000000000004 0 0  0.5374999999999996 0 0  0.5499999999999998 0 0  0.5625 0 0  0.5750000000000002 0 0  0.5875000000000004 0 0  0.5999999999999996 0 0  0.6124999999999998 0 0  0.625 0 0  0.6375000000000002 0 0  0.6500000000000004 0 0  0.6624999999999996 0 0  0.6749999999999998 0 0  0.6875 0 0  0.7000000000000002 0 0  0.7125000000000004 0 0  0.7249999999999996 0 0  0.7374999999999998 0 0  0.75 0 0  0.7625000000000002 0 0  0.7750000000000004 0 0  0.7874999999999996 0 0  0.7999999999999998 0 0  0.8125 0 0  0.8250000000000002 0 0  0.8375000000000004 0 0  0.8499999999999996 0 0  0.8624999999999998 0 0  0.875 0 0  0.8875000000000002 0 0  0.9000000000000004 0 0  0.9124999999999996 0 0  0.9249999999999998 0 0  0.9375 0 0  0.9500000000000002 0 0  0.9625000000000004 0 0  0.9749999999999996 0 0  0.9874999999999998 0 0  1 0 0  1.0125 0 0  1.025 0 0  1.0375 0 0  1.05 0 0  1.0625 0 0  1.075 0 0  1.0875 0 0  1.1 0 0  1.1125 0 0  1.125 0 0  1.1375 0 0  1.15 0 0  1.1625 0 0  1.175 0 0  1.1875 0 0  1.2 0 0  1.2125 0 0  1.225 0 0  1.2375 0 0  1.25 0 0  1.2625 0 0  1.275 0 0  1.2875 0 0  1.3 0 0  1.3125 0 0  1.325 0 0  1.3375 0 0  1.35 0 0  1.3625 0 0  1.375 0 0  1.3875 0 0  1.4 0 0  1.4125 0 0  1.425 0 0  1.4375 0 0  1.45 0 0  1.4625 0 0  1.475 0 0  1.4875 0 0  1.5 0 0  1.5125 0 0  1.525 0 0  1.5375 0 0  1.55 0 0  1.5625 0 0  1.575 0 0  1.5875 0 0  1.6 0 0  1.6125 0 0  1.625 0 0  1.6375 0 0  1.65 0 0  1.6625 0 0  1.675 0 0  1.6875 0 0  1.7 0 0  1.7125 0 0  1.725 0 0  1.7375 0 0  1.75 0 0  1.7625 0 0  1.775 0 0  1.7875 0 0  1.8 0 0  1.8125 0 0  1.825 0 0  1.8375 0 0  1.85 0 0  1.8625 0 0  1.875 0 0  1.8875 0 0  1.9 0 0  1.9125 0 0  1.925 0 0  1.9375 0 0  1.95 0 0  1.9625 0 0  1.975 0 0  1.9875 0 0  2 0 0  2.0125 0 0  2.025 0 0  2.0375 0 0  2.05 0 0  2.0625 0 0  2.075 0 0  2.0875 0 0  2.1 0 0  2.1125 0 0  2.125 0 0  2.1375 0 0  2.15 0 0  2.1625 0 0  2.175 0 0  2.1875 0 0  2.2 0 0  2.2125 0 0  2.225 0 0  2.2375 0 0  2.25 0 0  2.2625 0 0  2.275 0 0  2.2875 0 0  2.3 0 0  2.3125 0 0  2.325 0 0  2.3375 0 0  2.35 0 0  2.3625 0 0  2.375 0 0  2.3875 0 0  2.4 0 0  2.4125 0 0  2.425 0 0  2.4375 0 0  2.45 0 0  2.4625 0 0  2.475 0 0  2.4875 0 0  2.5 0 0  2.5125 0 0  2.525 0 0  2.5375 0 0  2.55 0 0  2.5625 0 0  2.575 0 0  2.5875 0 0  2.6 0 0  2.6125 0 0  2.625 0 0  2.6375 0 0  2.65 0 0  2.6625 0 0  2.675 0 0  2.6875 0 0  2.7 0 0  2.7125 0 0  2.725 0 0  2.7375 0 0  2.75 0 0  2.7625 0 0  2.775 0 0  2.7875 0 0  2.8 0 0  2.8125 0 0  2.825 0 0  2.8375 0 0  2.85 0 0  2.8625 0 0  2.875 0 0  2.8875 0 0  2.9 0 0  2.9125 0 0  2.925 0 0  2.9375 0 0  2.95 0 0  2.9625 0 0  2.975 0 0  2.9875 0 0  3 0 0  3.012499999999999 0 0  3.025 0 0  3.0375 0 0  3.050000000000001 0 0  3.0625 0 0  3.074999999999999 0 0  3.0875 0 0  3.1 0 0  3.112500000000001 0 0  3.125 0 0  3.137499999999999 0 0  3.15 0 0  3.1625 0 0  3.175000000000001 0 0  3.1875 0 0  3.199999999999999 0 0  3.2125 0 0  3.225 0 0  3.237500000000001 0 0  3.25 0 0  3.262499999999999 0 0  3.275 0 0  3.2875 0 0  3.300000000000001 0 0  3.3125 0 0  3.324999999999999 0 0  3.3375 0 0  3.35 0 0  3.362500000000001 0 0  3.375 0 0  3.387499999999999 0 0  3.4 0 0  3.4125 0 0  3.425000000000001 0 0  3.4375 0 0  3.449999999999999 0 0  3.4625 0 0  3.475 0 0  3.4875
[...]
<PointData  Vectors="(h, u)"> 
<DataArray  type="Float64"  Name="(h, u)"  NumberOfComponents="3" format="ascii">1.8895623083496860e-01 0.0000000000000000e+00 0.0000000000000000e+00  1.8885126616012546e-01 5.8025017838651220e-03 0.0000000000000000e+00  1.8895436184751915e-01 1.1587543215859643e-02 0.0000000000000000e+00  1.8884708684958618e-01 1.7407547369469808e-02 0.0000000000000000e+00  1.8894874194887826e-01 2.3175843554548412e-02 0.0000000000000000e+00  1.8883875035492689e-01 2.9012746119803194e-02 0.0000000000000000e+00  1.8893933390304080e-01 3.4765633317484626e-02 0.0000000000000000e+00  1.8882629667877479e-01 4.0618286857695758e-02 0.0000000000000000e+00  1.8892608077815373e-01 4.6357593418506288e-02 0.0000000000000000e+00  1.8880977618173886e-01 5.2224476061091429e-02 0.0000000000000000e+00  1.8890891317825198e-01 5.7952324823512973e-02 0.0000000000000000e+00  1.8878924046694040e-01 6.3831761601554141e-02 0.0000000000000000e+00  1.8888775827660800e-01 6.9550320478951627e-02 0.0000000000000000e+00  1.8876473353745019e-01 7.5440736936142963e-02 0.0000000000000000e+00  1.8886254930154250e-01 8.1151943507170046e-02 0.0000000000000000e+00  1.8873628478110371e-01 8.7052125764898486e-02 0.0000000000000000e+00  1.8883323367537896e-01 9.2757420067831720e-02 0.0000000000000000e+00  1.8870390466789111e-01 9.8666750748243298e-02 0.0000000000000000e+00  1.8879977789801927e-01 1.0436685557795992e-01 0.0000000000000000e+00  1.8866758331317091e-01 1.1028549249321003e-01 0.0000000000000000e+00  1.8876216774552193e-01 1.1598027949504494e-01 0.0000000000000000e+00  1.8862729155727520e-01 1.2190924548448064e-01 0.0000000000000000e+00  1.8872040348762595e-01 1.2759771631533789e-01 0.0000000000000000e+00  1.8858298407898952e-01 1.3353887567938361e-01 0.0000000000000000e+00  1.8867449137401182e-01 1.3921927055676558e-01 0.0000000000000000e+00  1.8853460418793064e-01 1.4517518132594195e-01 0.0000000000000000e+00  1.8862443404097573e-01 1.5084520508785415e-01 0.0000000000000000e+00  1.8848209000723667e-01 1.5681885666076589e-01 0.0000000000000000e+00  1.8857022305932894e-01 1.6247598988192610e-01 0.0000000000000000e+00  1.8842538142656071e-01 1.6847045985255313e-01 0.0000000000000000e+00  1.8851183610147781e-01 1.7411230525293356e-01 0.0000000000000000e+00  1.8836442641233020e-01 1.8013039215120580e-01 0.0000000000000000e+00  1.8844923924534751e-01 1.8575499893877748e-01 0.0000000000000000e+00  1.8829918443103005e-01 1.9179890142209186e-01 0.0000000000000000e+00  1.8838239258461853e-01 1.9740501393681797e-01 0.0000000000000000e+00  1.8822962470470359e-01 2.0347612391380374e-01 0.0000000000000000e+00  1.8831125586148414e-01 2.0906331451828897e-01 0.0000000000000000e+00  1.8815571850772608e-01 2.1516216783538733e-01 0.0000000000000000e+00  1.8823579126999573e-01 2.2073083431344473e-01 0.0000000000000000e+00  1.8807742762345436e-01 2.2685722181255707e-01 0.0000000000000000e+00  1.8815596279116614e-01 2.3240845366925517e-01 0.0000000000000000e+00  1.8799469405357294e-01 2.3856165029523843e-01 0.0000000000000000e+00  1.8807173397585020e-01 2.4409699418109346e-01 0.0000000000000000e+00  1.8790743694468209e-01 2.5027603212166699e-01 0.0000000000000000e+00  1.8798306695748318e-01 2.5579721117968113e-01 0.0000000000000000e+00  1.8781555989216578e-01 2.6200111906016260e-01 0.0000000000000000e+00  1.8788992360168727e-01 2.6750977771425766e-01 0.0000000000000000e+00  1.8771896595727516e-01 2.7373773351847336e-01 0.0000000000000000e+00  1.8779226626046447e-01 2.7923527778653395e-01 0.0000000000000000e+00  1.8761757218389460e-01 2.8548666496853237e-01 0.0000000000000000e+00  1.8769005368852615e-01 2.9097423995614546e-01 0.0000000000000000e+00  1.8751131449137445e-01 2.9724863147330338e-01 0.0000000000000000e+00  1.8758323023345730e-01 3.0272722375297256e-01 0.0000000000000000e+00  1.8740013975864350e-01 3.0902433004235447e-01 0.0000000000000000e+00  1.8747171301816176e-01 3.1449492352617031e-01 0.0000000000000000e+00  1.8728399155401301e-01 3.2081453007523203e-01 0.0000000000000000e+00  1.8735538724219683e-01 3.2627821531938123e-01 0.0000000000000000e+00  1.8716280162892129e-01 3.3262012329031054e-01 0.0000000000000000e+00  1.8723411737970694e-01 3.3807808945485157e-01 0.0000000000000000e+00  1.8703649467658703e-01 3.4444207686778033e-01 0.0000000000000000e+00  1.8710777037979101e-01 3.4989549607363363e-01 0.0000000000000000e+00  1.8690500056328035e-01 3.5628133253870053e-01 0.0000000000000000e+00  1.8697623386649320e-01 3.6173122592077239e-01 0.0000000000000000e+00  1.8676825816759507e-01 3.6813876708646759e-01 0.0000000000000000e+00  1.8683941199662629e-01 3.7358595139015333e-01 0.0000000000000000e+00  1.8662620093206062e-01 3.8001528644840765e-01 0.0000000000000000e+00  1.8669719938317245e-01 3.8546042462948416e-01 0.0000000000000000e+00  1.8647873380561306e-01 3.9191198381065284e-01 0.0000000000000000e+00  1.8654945603799419e-01 3.9735566639703712e-01 0.0000000000000000e+00  1.8632572625175373e-01 4.0383018328168374e-01 0.0000000000000000e+00  1.8639601099617509e-01 4.0927294523707120e-01 0.0000000000000000e+00  1.8616703592499426e-01 4.1577126338531356e-01 0.0000000000000000e+00  1.8623669554460551e-01 4.2121354025362145e-01 0.0000000000000000e+00  1.8600254331372948e-01 4.2773640299807020e-01 0.0000000000000000e+00  1.8607137096651702e-01 4.3317854193532712e-01 0.0000000000000000e+00  1.8583215730670608e-01 4.3972653989563437e-01 0.0000000000000000e+00  1.8589991453059421e-01 4.4516895440217141e-01 0.0000000000000000e+00  1.8565577506136552e-01 4.5174266246458161e-01 0.0000000000000000e+00  1.8572216936108699e-01 4.5718605865941742e-01 0.0000000000000000e+00  1.8547323211351854e-01 4.6378617376968040e-01 0.0000000000000000e+00  1.8553791566139652e-01 4.6923161997917995e-01 0.0000000000000000e+00  1.8528430819215316e-01 4.7585885234438574e-01 0.0000000000000000e+00  1.8534691143796089e-01 4.8130758965171044e-01 0.0000000000000000e+00  1.8508879496003161e-01 4.8796236374055357e-01 0.0000000000000000e+00  1.8514896108189755e-01 4.9341560347202235e-01 0.0000000000000000e+00  1.8488654587765721e-01 5.0009790212822092e-01 0.0000000000000000e+00  1.8494392284426961e-01 5.0555692400205787e-01 0.0000000000000000e+00  1.8467743412296467e-01 5.1226650068533375e-01 0.0000000000000000e+00  1.8473162027133619e-01 5.1773308173431465e-01 0.0000000000000000e+00  1.8446124420146667e-01 5.2446982506964690e-01 0.0000000000000000e+00  1.8451175768587205e-01 5.2994648755481710e-01 0.0000000000000000e+00  1.8423765527288574e-01 5.3671029969350503e-01 0.0000000000000000e+00  1.8428398828817502e-01 5.4219993392592714e-01 0.0000000000000000e+00  1.8400637052025848e-01 5.4899016960599478e-01 0.0000000000000000e+00  1.8404805246123340e-01 5.5449558381956732e-01 0.0000000000000000e+00  1.8376721430552076e-01 5.6131079561948427e-01 0.0000000000000000e+00  1.8380379699365246e-01 5.6683482741954294e-01 0.0000000000000000e+00  1.8352005288832138e-01 5.7367323554398097e-01 0.0000000000000000e+00  1.8355099682305479e-01 5.7921958106513605e-01 0.0000000000000000e+00  1.8326456975042338e-01 5.8607988787450571e-01 0.0000000000000000e+00  1.8328919972280300e-01 5.9165342121532327e-01 0.0000000000000000e+00  1.8300029630966838e-01 5.9853427145306237e-01 0.0000000000000000e+00  1.8301795757913145e-01 6.0413989401340862e-01 0.0000000000000000e+00  1.8272691803416669e-01 6.1103879029650687e-01 0.0000000000000000e+00  1.8273704480068345e-01 6.1668091631998723e-01 0.0000000000000000e+00  1.8244432830237534e-01 6.2359433954058741e-01 0.0000000000000000e+00  1.8244636512497828e-01 6.2927745544712921e-01 0.0000000000000000e+00  1.8215238708572171e-01 6.3620207242979521e-01 0.0000000000000000e+00  1.8214555830265897e-01 6.4193241104687127e-01 0.0000000000000000e+00  1.8185051831756052e-01 6.4886635420792937e-01 0.0000000000000000e+00  1.8183394203950046e-01 6.5465104464105661e-01 0.0000000000000000e+00  1.8153822213887089e-01 6.6159100929234571e-01 0.0000000000000000e+00  1.8151132059910197e-01 6.6743504733280312e-01 0.0000000000000000e+00  1.8121554012048197e-01 6.7437590437830930e-01 0.0000000000000000e+00  1.8117779454708316e-01 6.8028393211366955e-01 0.0000000000000000e+00  1.8088254602022152e-01 6.8722068354716426e-01 0.0000000000000000e+00  1.8083337107361297e-01 6.9319789572872770e-01 0.0000000000000000e+00  1.8053896535061095e-01 7.0012756796526454e-01 0.0000000000000000e+00  1.8047737802369396e-01 7.0618213716705003e-01 0.0000000000000000e+00  1.8018399318768585e-01 7.1310270358765016e-01 0.0000000000000000e+00  1.8010967617506576e-01 7.1923793324330043e-01 0.0000000000000000e+00  1.7981846173641763e-01 7.2614018588809182e-01 0.0000000000000000e+00  1.7973154784206297e-01 7.3235607400189318e-01 0.0000000000000000e+00  1.7944311567451390e-01 7.3923475920201998e-01 0.0000000000000000e+00  1.7934320435473275e-01 7.4553524228273060e-01 0.0000000000000000e+00  1.7905819692954769e-01 7.5238488096423928e-01 0.0000000000000000e+00  1.7894509619556914e-01 7.5877234860627774e-01 0.0000000000000000e+00  1.7866370411739613e-01 7.6559081641503124e-01 0.0000000000000000e+00  1.7853727309235989e-01 7.7206726239370216e-01 0.0000000000000000e+00  1.7826153485398705e-01 7.7883876472609059e-01 0.0000000000000000e+00  1.7812409807394816e-01 7.8538787639573937e-01 0.0000000000000000e+00  1.7785563999311654e-01 7.9209967403749248e-01 0.0000000000000000e+00  1.7770621432289402e-01 7.9872961335615100e-01 0.0000000000000000e+00  1.7744500718402939e-01 8.0538126898777840e-01 0.0000000000000000e+00  1.7728537038001677e-01 8.1207965504072255e-01 0.0000000000000000e+00  1.7703429036756682e-01 8.1864916688914025e-01 0.0000000000000000e+00  1.7686510436168662e-01 8.2541184254091549e-01 0.0000000000000000e+00  1.7662578213801752e-01 8.3188646636972108e-01 0.0000000000000000e+00  1.7645142464686228e-01 8.3868152921695127e-01 0.0000000000000000e+00  1.7622817981145072e-01 8.4502849149495873e-01 0.0000000000000000e+00  1.7604620487793740e-01 8.5187480230442836e-01 0.0000000000000000e+00  1.7583517673533075e-01 8.5812233942887395e-01 0.0000000000000000e+00  1.7564983575430568e-01 8.6498873810275334e-01 0.0000000000000000e+00  1.7546170853524984e-01 8.7105654497699225e-01 0.0000000000000000e+00  1.7527507874250636e-01 8.7792801253927333e-01 0.0000000000000000e+00  1.7510353818017213e-01 8.8386277917404388e-01 0.0000000000000000e+00  1.7491615433037830e-01 8.9073573824416330e-01 0.0000000000000000e+00  1.7476929174851291e-01 8.9647647806846464e-01 0.0000000000000000e+00  1.7457860669737219e-01 9.0337040381818989e-01 0.0000000000000000e+00  1.7444825773231004e-01 9.0897786962244298e-01 0.0000000000000000e+00  1.7426507327443788e-01 9.1581212927491296e-01 0.0000000000000000e+00  1.7416696743649840e-01 9.2116807576916038e-01 0.0000000000000000e+00  1.7397578431100102e-01 9.2805925105668219e-01 0.0000000000000000e+00  1.7388624491234828e-01 9.3334103969644888e-01 0.0000000000000000e+00  1.7370669602433830e-01 9.4014197035807978e-01 0.0000000000000000e+00  1.7365128591051496e-01 9.4515748376473840e-01 0.0000000000000000e+00  1.7346015683396024e-01 9.5204284855907684e-01 0.0000000000000000e+00  1.7341771493592062e-01 9.5695088811355333e-01 0.0000000000000000e+00  1.7324352777442534e-01 9.6370646112684089e-01 0.0000000000000000e+00  1.7321245351424322e-01 9.6851904873906036e-01 0.0000000000000000e+00  1.7302279518154182e-01 9.7538879622681285e-01 0.0000000000000000e+00  1.7303337070112990e-01 9.7987790305942568e-01 0.0000000000000000e+00  1.7285508443673517e-01 9.8666014471194985e-01 0.0000000000000000e+00  1.7283573506789840e-01 9.9136463084634185e-01 0.0000000000000000e+00  1.7267095149913572e-01 9.9804321842032284e-01 0.0000000000000000e+00  1.7270998658825376e-01 1.0022979217564230e+00 0.0000000000000000e+00  1.7250762046929338e-01 1.0092582288910914e+00 0.0000000000000000e+00  1.7253559025747781e-01 1.0135862652446930e+00 0.0000000000000000e+00  1.7239199857055287e-01 1.0201020137023873e+00 0.0000000000000000e+00  1.7239307379734933e-01 1.0246230333660629e+00 0.0000000000000000e+00  1.7223637813726900e-01 1.0312361786224968e+00 0.0000000000000000e+00  1.7230940877592021e-01 1.0352045267724246e+00 0.0000000000000000e+00  1.7209041583272566e-01 1.0422867227752850e+00 0.0000000000000000e+00  1.7215590629755936e-01 1.0463018563845849e+00 0.0000000000000000e+00  1.7204856322594406e-01 1.0525404136802792e+00 0.0000000000000000e+00  1.7200996194509668e-01 1.0573317905061235e+00 0.0000000000000000e+00  1.7190258238339698e-01 1.0635691972698569e+00 0.0000000000000000e+00  1.7199020435696319e-01 1.0673979813687460e+00 0.0000000000000000e+00  1.7172921756695489e-01 1.0747946278340847e+00 0.0000000000000000e+00  1.7192753687515089e-01 1.0777773813629119e+00 0.0000000000000000e+00  1.7165386926004408e-01 1.0852693614635334e+00 0.0000000000000000e+00  1.7176272162111028e-01 1.0889183008368657e+00 0.0000000000000000e+00  1.7166219022083246e-01 1.0951011236085126e+00 0.0000000000000000e+00  1.7162527841982919e-01 1.0998426310904181e+00 0.0000000000000000e+00  1.7152635019657994e-01 1.1060120092782597e+00 0.0000000000000000e+00  1.7169639157576355e-01 1.1091799022432527e+00 0.0000000000000000e+00  1.7123206907475452e-01 1.1181116396130351e+00 0.0000000000000000e+00  1.7185625735859761e-01 1.1178346413311080e+00 0.0000000000000000e+00  1.7090581905891755e-01 1.1304446656936069e+00 0.0000000000000000e+00  1.7201953784021540e-01 1.1264519463056555e+00 0.0000000000000000e+00  1.7063760759950250e-01 1.1423309001005197e+00 0.0000000000000000e+00  1.7206725468875869e-01 1.1359318657157287e+00 0.0000000000000000e+00  1.7051467630337375e-01 1.1531099145025963e+00 0.0000000000000000e+00  1.7201044942054364e-01 1.1461915997932310e+00 0.0000000000000000e+00  1.7045186595297063e-01 1.1634256959333173e+00 0.0000000000000000e+00  1.7191617082703531e-01 1.1567239728506702e+00 0.0000000000000000e+00  1.7044467550703082e-01 1.1733122072097786e+00 0.0000000000000000e+00  1.7176503878647301e-01 1.1676759157982259e+00 0.0000000000000000e+00  1.7047237892146971e-01 1.1829258922620876e+00 0.0000000000000000e+00  1.7162527189698837e-01 1.1785316708951428e+00 0.0000000000000000e+00  1.7046989119395187e-01 1.1927594355685174e+00 0.0000000000000000e+00  1.7150669085276887e-01 1.1892172844220155e+00 0.0000000000000000e+00  1.7047576334367759e-01 1.2025203496362356e+00 0.0000000000000000e+00  1.7137123210568314e-01 1.2000219905438014e+00 0.0000000000000000e+00  1.7048643509424188e-01 1.2122344062760304e+00 0.0000000000000000e+00  1.7125841190178459e-01 1.2106480321158477e+00 0.0000000000000000e+00  1.7046139933167181e-01 1.2222072243964539e+00 0.0000000000000000e+00  1.7117478252741961e-01 1.2210473093831633e+00 0.0000000000000000e+00  1.7042995875113148e-01 1.2322151584226670e+00 0.0000000000000000e+00  1.7108110140362928e-01 1.2315191167781070e+00 0.0000000000000000e+00  1.7041412997435335e-01 1.2420892172412596e+00 0.0000000000000000e+00  1.7098451673167786e-01 1.2420116540981476e+00 0.0000000000000000e+00  1.7038692990996218e-01 1.2520318219239090e+00 0.0000000000000000e+00  1.7091047749801402e-01 1.2523341673347383e+00 0.0000000000000000e+00  1.7033798077875970e-01 1.2621199057439993e+00 0.0000000000000000e+00  1.7084959396564903e-01 1.2625595080553043e+00 0.0000000000000000e+00  1.7028774236862385e-01 1.2721969581663215e+00 0.0000000000000000e+00  1.7078160630071981e-01 1.2728425028913459e+00 0.0000000000000000e+00  1.7024761629581894e-01 1.2821757043248894e+00 0.0000000000000000e+00  1.7070678665432021e-01 1.2831815831302487e+00 0.0000000000000000e+00  1.7020868627822391e-01 1.2921239372652582e+00 0.0000000000000000e+00  1.7063714098579716e-01 1.2934850748760796e+00 0.0000000000000000e+00  1.7016063842169860e-01 1.3021212994054592e+00 0.0000000000000000e+00  1.7057784266681544e-01 1.3037118226463851e+00 0.0000000000000000e+00  1.7010338400974742e-01 1.3121711298073329e+00 0.0000000000000000e+00  1.7052463866586667e-01 1.3138909321355441e+00 0.0000000000000000e+00  1.7004297388109835e-01 1.3222313386763884e+00 0.0000000000000000e+00  1.7047119485757017e-01 1.3240662160149701e+00 0.0000000000000000e+00  1.6998432181382861e-01 1.3322694421469115e+00 0.0000000000000000e+00  1.7041430963049786e-01 1.3342568592129174e+00 0.0000000000000000e+00  1.6992864214241055e-01 1.3422817560090023e+00 0.0000000000000000e+00  1.7035412811019104e-01 1.3444560985795830e+00 0.0000000000000000e+00  1.6987472457680930e-01 1.3522833649309558e+00 0.0000000000000000e+00  1.7029217833562202e-01 1.3546465271817278e+00 0.0000000000000000e+00  1.6982090191405314e-01 1.3622927417288611e+00 0.0000000000000000e+00  1.7022977162256753e-01 1.3648127013013247e+00 0.0000000000000000e+00  1.6976611681431666e-01 1.3723231675473511e+00 0.0000000000000000e+00  1.7016744227886044e-01 1.3749458672525585e+00 0.0000000000000000e+00  1.6971009817441920e-01 1.3823809375189680e+00 0.0000000000000000e+00  1.7010503424972911e-01 1.3850437236470354e+00 0.0000000000000000e+00  1.6965310400800707e-01 1.3924669407654986e+00 0.0000000000000000e+00  1.7004204891106575e-01 1.3951080945213425e+00 0.0000000000000000e+00  1.6959559265212437e-01 1.4025789118573524e+00 0.0000000000000000e+00  1.6997787949099494e-01 1.4051433211601783e+00 0.0000000000000000e+00  1.6953805469377206e-01 1.4127126134706318e+00 0.0000000000000000e+00  1.6991202635952402e-01 1.4151546413704990e+00 0.0000000000000000e+00  1.6948074395768764e-01 1.4228639469938447e+00 0.0000000000000000e+00  1.6984423664690709e-01 1.4251469845057716e+00 0.0000000000000000e+00  1.6942382051514207e-01 1.4330280837219720e+00 0.0000000000000000e+00  1.6977429521255502e-01 1.4351262773983091e+00 0.0000000000000000e+00  1.6936717051295141e-01 1.4432011699854006e+00 0.0000000000000000e+00  1.6970261308363618e-01 1.4450946069746358e+00 0.0000000000000000e+00  1.6931016746770003e-01 1.4533825044850412e+00 0.0000000000000000e+00  1.6962939866276874e-01 1.4550562102364450e+00 0.0000000000000000e+00  1.6925294329447896e-01 1.4635650956758215e+00 0.0000000000000000e+00  1.6955474956113425e-01 1.4650166119834458e+00 0.0000000000000000e+00  1.6919420066727095e-01 1.4737525446226616e+00 0.0000000000000000e+00  1.6948066007229196e-01 1.4749667752940561e+00 0.0000000000000000e+00  1.6913314858989223e-01 1.4839456026112956e+00 0.0000000000000000e+00  1.6940485996446264e-01 1.4849276928031609e+00 0.0000000000000000e+00  1.6907404900475467e-01 1.4941107021798921e+00 0.0000000000000000e+00  1.6932518149205514e-01 1.4949141862173563e+00 0.0000000000000000e+00  1.6901365974434138e-01 1.5042759166512902e+00 0.0000000000000000e+00  1.6924747718008717e-01 1.5048808435923038e+00 0.0000000000000000e+00  1.6895263916946193e-01 1.5144271092549146e+00 0.0000000000000000e+00  1.6915649709238056e-01 1.5149728929372346e+00 0.0000000000000000e+00  1.6891583751119738e-01 1.5243189260192931e+00 0.0000000000000000e+00  1.6903935816669330e-01 1.5253658646750257e+00 0.0000000000000000e+00  1.6887420191899399e-01 1.5341062742447447e+00 0.0000000000000000e+00  1.6898198237328887e-01 1.5353912079072187e+00 0.0000000000000000e+00  1.6870062997066035e-01 1.5449566635279781e+00 0.0000000000000000e+00  1.6910163265109643e-01 1.5436702485030149e+00 0.0000000000000000e+00  1.6835105584432403e-01 1.5579943121200657e+00 0.0000000000000000e+00  1.6933477600282193e-01 1.5498046760197901e+00 0.0000000000000000e+00  1.6797061539904526e-01 1.5725191624839370e+00 0.0000000000000000e+00  1.6955588368120639e-01 1.5558151975136916e+00 0.0000000000000000e+00  1.6751875369889058e-01 1.5850776679381733e+00 0.0000000000000000e+00  1.7005915774862507e-01 1.5666910328409107e+00 0.0000000000000000e+00  1.6641941760586959e-01 1.5901148227132882e+00 0.0000000000000000e+00  1.7139331011979275e-01 1.5865646706173431e+00 0.0000000000000000e+00  1.6470299156194657e-01 1.5882394807499385e+00 0.0000000000000000e+00  1.7195877103215845e-01 1.6013088597911007e+00 0.0000000000000000e+00  1.6532808652106723e-01 1.6047545339145373e+00 0.0000000000000000e+00  1.6210240460304412e-01 1.5329061076905310e+00 0.0000000000000000e+00  1.584051