<?xml version="1.0"?>
<VTKFile type="UnstructuredGrid"  version="0.1"  >
<UnstructuredGrid>
<Piece  NumberOfPoints="801" NumberOfCells="800">
<Points>
<DataArray  type="Float64"  NumberOfComponents="3"  format="ascii">-5 0 0  -4.9875 0 0  -4.975 0 0  -4.9625 0 0  -4.95 0 0  -4.9375 0 0  -4.925 0 0  -4.9125 0 0  -4.9 0 0  -4.8875 0 0  -4.875 0 0  -4.8625 0 0  -4.85 0 0  -4.8375 0 0  -4.825 0 0  -4.8125 0 0  -4.8 0 0  -4.7875 0 0  -4.775 0 0  -4.7625 0 0  -4.75 0 0  -4.7375 0 0  -4.725 0 0  -4.7125 0 0  -4.7 0 0  -4.6875 0 0  -4.675 0 0  -4.6625 0 0  -4.65 0 0  -4.6375 0 0  -4.625 0 0  -4.6125 0 0  -4.6 0 0  -4.5875 0 0  -4.575 0 0  -4.5625 0 0  -4.55 0 0  -4.5375 0 0  -4.525 0 0  -4.5125 0 0  -4.5 0 0  -4.4875 0 0  -4.475 0 0  -4.4625 0 0  -4.45 0 0  -4.4375 0 0  -4.425 0 0  -4.4125 0 0  -4.4 0 0  -4.3875 0 0  -4.375 0 0  -4.3625 0 0  -4.35 0 0  -4.3375 0 0  -4.325 0 0  -4.3125 0 0  -4.3 0 0  -4.2875 0 0  -4.275 0 0  -4.2625 0 0  -4.25 0 0  -4.2375 0 0  -4.225 0 0  -4.2125 0 0  -4.2 0 0  -4.1875 0 0  -4.175 0 0  -4.1625 0 0  -4.15 0 0  -4.1375 0 0  -4.125 0 0  -4.1125 0 0  -4.1 0 0  -4.0875 0 0  -4.075 0 0  -4.0625 0 0  -4.05 0 0  -4.0375 0 0  -4.025 0 0  -4.0125 0 0  -4 0 0  -3.9875 0 0  -3.975 0 0  -3.9625 0 0  -3.95 0 0  -3.9375 0 0  -3.925 0 0  -3.9125 0 0  -3.9 0 0  -3.8875 0 0  -3.875 0 0  -3.8625 0 0  -3.85 0 0  -3.8375 0 0  -3.825 0 0  -3.8125 0 0  -3.8 0 0  -3.7875 0 0  -3.775 0 0  -3.7625 0 0  -3.75 0 0  -3.7375 0 0  -3.725 0 0  -3.7125 0 0  -3.7 0 0  -3.6875 0 0  -3.675 0 0  -3.6625 0 0  -3.65 0 0  -3.6375 0 0  -3.625 0 0  -3.6125 0 0  -3.6 0 0  -3.5875 0 0  -3.575 0 0  -3.5625 0 0  -3.55 0 0  -3.5375 0 0  -3.525 0 0  -3.5125 0 0  -3.5 0 0  -3.4875 0 0  -3.475 0 0  -3.4625 0 0  -3.45 0 0  -3.4375 0 0  -3.425 0 0  -3.4125 0 0  -3.4 0 0  -3.3875 0 0  -3.375 0 0  -3.3625 0 0  -3.35 0 0  -3.3375 0 0  -3.325 0 0  -3.3125 0 0  -3.3 0 0  -3.2875 0 0  -3.275 0 0  -3.2625 0 0  -3.25 0 0  -3.2375 0 0  -3.225 0 0  -3.2125 0 0  -3.2 0 0  -3.1875 0 0  -3.175 0 0  -3.1625 0 0  -3.15 0 0  -3.1375 0 0  -3.125 0 0  -3.1125 0 0  -3.1 0 0  -3.0875 0 0  -3.075 0 0  -3.0625 0 0  -3.05 0 0  -3.0375 0 0  -3.025 0 0  -3.0125 0 0  -3 0 0  -2.9875 0 0  -2.975 0 0  -2.9625 0 0  -2.95 0 0  -2.9375 0 0  -2.925 0 0  -2.9125 0 0  -2.9 0 0  -2.8875 0 0  -2.875 0 0  -2.8625 0 0  -2.85 0 0  -2.8375 0 0  -2.825 0 0  -2.8125 0 0  -2.8 0 0  -2.7875 0 0  -2.775 0 0  -2.7625 0 0  -2.75 0 0  -2.7375 0 0  -2.725 0 0  -2.7125 0 0  -2.7 0 0  -2.6875 0 0  -2.675 0 0  -2.6625 0 0  -2.65 0 0  -2.6375 0 0  -2.625 0 0  -2.6125 0 0  -2.6 0 0  -2.5875 0 0  -2.575 0 0  -2.5625 0 0  -2.55 0 0  -2.5375 0 0  -2.525 0 0  -2.5125 0 0  -2.5 0 0  -2.4875 0 0  -2.475 0 0  -2.4625 0 0  -2.45 0 0  -2.4375 0 0  -2.425 0 0  -2.4125 0 0  -2.4 0 0  -2.3875 0 0  -2.375 0 0  -2.3625 0 0  -2.35 0 0  -2.3375 0 0  -2.325 0 0  -2.3125 0 0  -2.3 0 0  -2.2875 0 0  -2.275 0 0  -2.2625 0 0  -2.25 0 0  -2.2375 0 0  -2.225 0 0  -2.2125 0 0  -2.2 0 0  -2.1875 0 0  -2.175 0 0  -2.1625 0 0  -2.15 0 0  -2.1375 0 0  -2.125 0 0  -2.1125 0 0  -2.1 0 0  -2.0875 0 0  -2.075 0 0  -2.0625 0 0  -2.05 0 0  -2.0375 0 0  -2.025 0 0  -2.0125 0 0  -2 0 0  -1.9875 0 0  -1.975 0 0  -1.9625 0 0  -1.95 0 0  -1.9375 0 0  -1.925 0 0  -1.9125 0 0  -1.9 0 0  -1.8875 0 0  -1.875 0 0  -1.8625 0 0  -1.85 0 0  -1.8375 0 0  -1.825 0 0  -1.8125 0 0  -1.8 0 0  -1.7875 0 0  -1.775 0 0  -1.7625 0 0  -1.75 0 0  -1.7375 0 0  -1.725 0 0  -1.7125 0 0  -1.7 0 0  -1.6875 0 0  -1.675 0 0  -1.6625 0 0  -1.65 0 0  -1.6375 0 0  -1.625 0 0  -1.6125 0 0  -1.6 0 0  -1.5875 0 0  -1.575 0 0  -1.5625 0 0  -1.55 0 0  -1.5375 0 0  -1.525 0 0  -1.5125 0 0  -1.5 0 0  -1.4875 0 0  -1.475 0 0  -1.4625 0 0  -1.45 0 0  -1.4375 0 0  -1.425 0 0  -1.4125 0 0  -1.4 0 0  -1.3875 0 0  -1.375 0 0  -1.3625 0 0  -1.35 0 0  -1.3375 0 0  -1.325 0 0  -1.3125 0 0  -1.3 0 0  -1.2875 0 0  -1.275 0 0  -1.2625 0 0  -1.25 0 0  -1.2375 0 0  -1.225 0 0  -1.2125 0 0  -1.2 0 0  -1.1875 0 0  -1.175 0 0  -1.1625 0 0  -1.15 0 0  -1.1375 0 0  -1.125 0 0  -1.1125 0 0  -1.1 0 0  -1.0875 0 0  -1.075 0 0  -1.0625 0 0  -1.05 0 0  -1.0375 0 0  -1.025 0 0  -1.0125 0 0  -1 0 0  -0.9874999999999998 0 0  -0.9749999999999996 0 0  -0.9625000000000004 0 0  -0.9500000000000002 0 0  -0.9375 0 0  -0.9249999999999998 0 0  -0.9124999999999996 0 0  -0.9000000000000004 0 0  -0.8875000000000002 0 0  -0.875 0 0  -0.8624999999999998 0 0  -0.8499999999999996 0 0  -0.8375000000000004 0 0  -0.8250000000000002 0 0  -0.8125 0 0  -0.7999999999999998 0 0  -0.7874999999999996 0 0  -0.7750000000000004 0 0  -0.7625000000000002 0 0  -0.75 0 0  -0.7374999999999998 0 0  -0.7249999999999996 0 0  -0.7125000000000004 0 0  -0.7000000000000002 0 0  -0.6875 0 0  -0.6749999999999998 0 0  -0.6624999999999996 0 0  -0.6500000000000004 0 0  -0.6375000000000002 0 0  -0.625 0 0  -0.6124999999999998 0 0  -0.5999999999999996 0 0  -0.5875000000000004 0 0  -0.5750000000000002 0 0  -0.5625 0 0  -0.5499999999999998 0 0  -0.5374999999999996 0 0  -0.5250000000000004 0 0  -0.5125000000000002 0 0  -0.5 0 0  -0.4874999999999998 0 0  -0.4749999999999996 0 0  -0.4625000000000004 0 0  -0.4500000000000002 0 0  -0.4375 0 0  -0.4249999999999998 0 0  -0.4124999999999996 0 0  -0.4000000000000004 0 0  -0.3875000000000002 0 0  -0.375 0 0  -0.3624999999999998 0 0  -0.3499999999999996 0 0  -0.3375000000000004 0 0  -0.3250000000000002 0 0  -0.3125 0 0  -0.2999999999999998 0 0  -0.2874999999999996 0 0  -0.2750000000000004 0 0  -0.2625000000000002 0 0  -0.25 0 0  -0.2374999999999998 0 0  -0.2249999999999996 0 0  -0.2125000000000004 0 0  -0.2000000000000002 0 0  -0.1875 0 0  -0.1749999999999998 0 0  -0.1624999999999996 0 0  -0.1500000000000004 0 0  -0.1375000000000002 0 0  -0.125 0 0  -0.1124999999999998 0 0  -0.09999999999999964 0 0  -0.08750000000000036 0 0  -0.07500000000000018 0 0  -0.0625 0 0  -0.04999999999999982 0 0  -0.03749999999999964 0 0  -0.02500000000000036 0 0  -0.01250000000000018 0 0  0 0 0  0.01250000000000018 0 0  0.02500000000000036 0 0  0.03749999999999964 0 0  0.04999999999999982 0 0  0.0625 0 0  0.07500000000000018 0 0  0.08750000000000036 0 0  0.09999999999999964 0 0  0.1124999999999998 0 0  0.125 0 0  0.1375000000000002 0 0  0.1500000000000004 0 0  0.1624999999999996 0 0  0.1749999999999998 0 0  0.1875 0 0  0.2000000000000002 0 0  0.2125000000000004 0 0  0.2249999999999996 0 0  0.2374999999999998 0 0  0.25 0 0  0.2625000000000002 0 0  0.2750000000000004 0 0  0.2874999999999996 0 0  0.2999999999999998 0 0  0.3125 0 0  0.3250000000000002 0 0  0.3375000000000004 0 0  0.3499999999999996 0 0  0.3624999999999998 0 0  0.375 0 0  0.3875000000000002 0 0  0.4000000000000004 0 0  0.4124999999999996 0 0  0.4249999999999998 0 0  0.4375 0 0  0.4500000000000002 0 0  0.4625000000000004 0 0  0.4749999999999996 0 0  0.4874999999999998 0 0  0.5 0 0  0.5125000000000002 0 0  0.5250000000000004 0 0  0.5374999999999996 0 0  0.5499999999999998 0 0  0.5625 0 0  0.5750000000000002 0 0  0.5875000000000004 0 0  0.5999999999999996 0 0  0.6124999999999998 0 0  0.625 0 0  0.6375000000000002 0 0  0.6500000000000004 0 0  0.6624999999999996 0 0  0.6749999999999998 0 0  0.6875 0 0  0.7000000000000002 0 0  0.7125000000000004 0 0  0.7249999999999996 0 0  0.7374999999999998 0 0  0.75 0 0  0.7625000000000002 0 0  0.7750000000000004 0 0  0.7874999999999996 0 0  0.7999999999999998 0 0  0.8125 0 0  0.8250000000000002 0 0  0.8375000000000004 0 0  0.8499999999999996 0 0  0.8624999999999998 0 0  0.875 0 0  0.8875000000000002 0 0  0.9000000000000004 0 0  0.9124999999999996 0 0  0.9249999999999998 0 0  0.9375 0 0  0.9500000000000002 0 0  0.9625000000000004 0 0  0.9749999999999996 0 0  0.9874999999999998 0 0  1 0 0  1.0125 0 0  1.025 0 0  1.0375 0 0  1.05 0 0  1.0625 0 0  1.075 0 0  1.0875 0 0  1.1 0 0  1.1125 0 0  1.125 0 0  1.1375 0 0  1.15 0 0  1.1625 0 0  1.175 0 0  1.1875 0 0  1.2 0 0  1.2125 0 0  1.225 0 0  1.2375 0 0  1.25 0 0  1.2625 0 0  1.275 0 0  1.2875 0 0  1.3 0 0  1.3125 0 0  1.325 0 0  1.3375 0 0  1.35 0 0  1.3625 0 0  1.375 0 0  1.3875 0 0  1.4 0 0  1.4125 0 0  1.425 0 0  1.4375 0 0  1.45 0 0  1.4625 0 0  1.475 0 0  1.4875 0 0  1.5 0 0  1.5125 0 0  1.525 0 0  1.5375 0 0  1.55 0 0  1.5625 0 0  1.575 0 0  1.5875 0 0  1.6 0 0  1.6125 0 0  1.625 0 0  1.6375 0 0  1.65 0 0  1.6625 0 0  1.675 0 0  1.6875 0 0  1.7 0 0  1.7125 0 0  1.725 0 0  1.7375 0 0  1.75 0 0  1.7625 0 0  1.775 0 0  1.7875 0 0  1.8 0 0  1.8125 0 0  1.825 0 0  1.8375 0 0  1.85 0 0  1.8625 0 0  1.875 0 0  1.8875 0 0  1.9 0 0  1.9125 0 0  1.925 0 0  1.9375 0 0  1.95 0 0  1.9625 0 0  1.975 0 0  1.9875 0 0  2 0 0  2.0125 0 0  2.025 0 0  2.0375 0 0  2.05 0 0  2.0625 0 0  2.075 0 0  2.0875 0 0  2.1 0 0  2.1125 0 0  2.125 0 0  2.1375 0 0  2.15 0 0  2.1625 0 0  2.175 0 0  2.1875 0 0  2.2 0 0  2.2125 0 0  2.225 0 0  2.2375 0 0  2.25 0 0  2.2625 0 0  2.275 0 0  2.2875 0 0  2.3 0 0  2.3125 0 0  2.325 0 0  2.3375 0 0  2.35 0 0  2.3625 0 0  2.375 0 0  2.3875 0 0  2.4 0 0  2.4125 0 0  2.425 0 0  2.4375 0 0  2.45 0 0  2.4625 0 0  2.475 0 0  2.4875 0 0  2.5 0 0  2.5125 0 0  2.525 0 0  2.5375 0 0  2.55 0 0  2.5625 0 0  2.575 0 0  2.5875 0 0  2.6 0 0  2.6125 0 0  2.625 0 0  2.6375 0 0  2.65 0 0  2.6625 0 0  2.675 0 0  2.6875 0 0  2.7 0 0  2.7125 0 0  2.725 0 0  2.7375 0 0  2.75 0 0  2.7625 0 0  2.775 0 0  2.7875 0 0  2.8 0 0  2.8125 0 0  2.825 0 0  2.8375 0 0  2.85 0 0  2.8625 0 0  2.875 0 0  2.8875 0 0  2.9 0 0  2.9125 0 0  2.925 0 0  2.9375 0 0  2.95 0 0  2.9625 0 0  2.975 0 0  2.9875 0 0  3 0 0  3.012499999999999 0 0  3.025 0 0  3.0375 0 0  3.050000000000001 0 0  3.0625 0 0  3.074999999999999 0 0  3.0875 0 0  3.1 0 0  3.112500000000001 0 0  3.125 0 0  3.137499999999999 0 0  3.15 0 0  3.1625 0 0  3.175000000000001 0 0  3.1875 0 0  3.199999999999999 0 0  3.2125 0 0  3.225 0 0  3.237500000000001 0 0  3.25 0 0  3.262499999999999 0 0  3.275 0 0  3.2875 0 0  3.300000000000001 0 0  3.3125 0 0  3.324999999999999 0 0  3.3375 0 0  3.35 0 0  3.362500000000001 0 0  3.375 0 0  3.387499999999999 0 0  3.4 0 0  3.4125 0 0  3.425000000000001 0 0  3.4375 0 0  3.449999999999999 0 0  3.4625 0 0  3.475 0 0  3.4875
[...]
<PointData  Vectors="(h, u)"> 
<DataArray  type="Float64"  Name="(h, u)"  NumberOfComponents="3" format="ascii">1.2279218919760887e-01 0.0000000000000000e+00 0.0000000000000000e+00  1.2507092091765004e-01 6.0801559316930251e-03 0.0000000000000000e+00  1.2281032593534730e-01 5.6208121078057628e-03 0.0000000000000000e+00  1.2502460204456547e-01 1.8280659741381607e-02 0.0000000000000000e+00  1.2286716065987628e-01 1.1167712319626797e-02 0.0000000000000000e+00  1.2492688387169626e-01 3.0577139687893492e-02 0.0000000000000000e+00  1.2297007969133515e-01 1.6612424742101350e-02 0.0000000000000000e+00  1.2476784646549077e-01 4.2970064435474603e-02 0.0000000000000000e+00  1.2313122768889127e-01 2.1987059006293778e-02 0.0000000000000000e+00  1.2453382462385365e-01 5.5415021207595956e-02 0.0000000000000000e+00  1.2336585000677544e-01 2.7357667502438791e-02 0.0000000000000000e+00  1.2421027614157439e-01 6.7865494305287141e-02 0.0000000000000000e+00  1.2368837785086005e-01 3.2775572722666214e-02 0.0000000000000000e+00  1.2378684666907816e-01 8.0314693136652349e-02 0.0000000000000000e+00  1.2410640227186642e-01 3.8244189860609422e-02 0.0000000000000000e+00  1.2326376708476097e-01 9.2802116355199582e-02 0.0000000000000000e+00  1.2461387749905567e-01 4.3731748578983994e-02 0.0000000000000000e+00  1.2265754798786846e-01 1.0537136592915024e-01 0.0000000000000000e+00  1.2518600110184200e-01 4.9228972337790923e-02 0.0000000000000000e+00  1.2200366123837285e-01 1.1799550601825379e-01 0.0000000000000000e+00  1.2577844897757762e-01 5.4818112945712302e-02 0.0000000000000000e+00  1.2135440524748346e-01 1.3051061803074249e-01 0.0000000000000000e+00  1.2633235503991527e-01 6.0710307097711233e-02 0.0000000000000000e+00  1.2077126341857686e-01 1.4260282368718996e-01 0.0000000000000000e+00  1.2678430642061672e-01 6.7225060572803710e-02 0.0000000000000000e+00  1.2031306787403048e-01 1.5386984803924086e-01 0.0000000000000000e+00  1.2707902119113235e-01 7.4712973679409003e-02 0.0000000000000000e+00  1.2002352050287496e-01 1.6393656276070603e-01 0.0000000000000000e+00  1.2718150126684438e-01 8.3447917407075953e-02 0.0000000000000000e+00  1.1992210196472987e-01 1.7257576326846388e-01 0.0000000000000000e+00  1.2708492040850922e-01 9.3531935402233549e-02 0.0000000000000000e+00  1.2000057229592737e-01 1.7978846017524847e-01 0.0000000000000000e+00  1.2681125039268404e-01 1.0485367975822786e-01 0.0000000000000000e+00  1.2022541734866304e-01 1.8581744415425105e-01 0.0000000000000000e+00  1.2640459613410868e-01 1.1711284362067716e-01 0.0000000000000000e+00  1.2054598331615973e-01 1.9108755077727402e-01 0.0000000000000000e+00  1.2592034550534920e-01 1.2989114456775211e-01 0.0000000000000000e+00  1.2090659657559867e-01 1.9609274534232263e-01 0.0000000000000000e+00  1.2541353269579697e-01 1.4274410439653828e-01 0.0000000000000000e+00  1.2125830104818477e-01 2.0127915046161554e-01 0.0000000000000000e+00  1.2492849461474261e-01 1.5529552771902125e-01 0.0000000000000000e+00  1.2156594882399877e-01 2.0696980329686213e-01 0.0000000000000000e+00  1.2449237873696965e-01 1.6730754541109361e-01 0.0000000000000000e+00  1.2181028533112216e-01 2.1333732380829659e-01 0.0000000000000000e+00  1.2411544710608402e-01 1.7869291905869522e-01 0.0000000000000000e+00  1.2198676080575167e-01 2.2040879566558219e-01 0.0000000000000000e+00  1.2379703227338737e-01 1.8947372327413267e-01 0.0000000000000000e+00  1.2210092611115417e-01 2.2810367903563325e-01 0.0000000000000000e+00  1.2353140362246734e-01 1.9973415902227182e-01 0.0000000000000000e+00  1.2216102289774539e-01 2.3630059397019898e-01 0.0000000000000000e+00  1.2331046753296689e-01 2.0959365726708112e-01 0.0000000000000000e+00  1.2217333707404775e-01 2.4488517779940200e-01 0.0000000000000000e+00  1.2312565771820830e-01 2.1918009198383503e-01 0.0000000000000000e+00  1.2214468507671811e-01 2.5373960136763674e-01 0.0000000000000000e+00  1.2296916011096543e-01 2.2860545065558749e-01 0.0000000000000000e+00  1.2208679958088089e-01 2.6271655487337070e-01 0.0000000000000000e+00  1.2283057661019614e-01 2.3798421244176451e-01 0.0000000000000000e+00  1.2201533915335873e-01 2.7165754342878001e-01 0.0000000000000000e+00  1.2269198642601868e-01 2.4747233140875172e-01 0.0000000000000000e+00  1.2194679044734659e-01 2.8042326162785397e-01 0.0000000000000000e+00  1.2253153011294000e-01 2.5723763290151608e-01 0.0000000000000000e+00  1.2189880436931820e-01 2.8888645341968916e-01 0.0000000000000000e+00  1.2233456678570478e-01 2.6736905670952860e-01 0.0000000000000000e+00  1.2188718666725219e-01 2.9694957414248729e-01 0.0000000000000000e+00  1.2209827855661538e-01 2.7784807468232792e-01 0.0000000000000000e+00  1.2191408693740675e-01 3.0463916967486682e-01 0.0000000000000000e+00  1.2182789347378653e-01 2.8859333943449228e-01 0.0000000000000000e+00  1.2196214778826556e-01 3.1214871804132716e-01 0.0000000000000000e+00  1.2153876768303690e-01 2.9944657593505036e-01 0.0000000000000000e+00  1.2200654860276913e-01 3.1972518825259488e-01 0.0000000000000000e+00  1.2126172546128090e-01 3.1012360080792600e-01 0.0000000000000000e+00  1.2202614735404879e-01 3.2756742971769504e-01 0.0000000000000000e+00  1.2103113921868761e-01 3.2031856672124753e-01 0.0000000000000000e+00  1.2199762834469405e-01 3.3587978759697940e-01 0.0000000000000000e+00  1.2086451315206255e-01 3.2988585521268426e-01 0.0000000000000000e+00  1.2189606692026697e-01 3.4486972228825574e-01 0.0000000000000000e+00  1.2076646476209887e-01 3.3880489050841761e-01 0.0000000000000000e+00  1.2171645791419289e-01 3.5455660118713483e-01 0.0000000000000000e+00  1.2074470108401714e-01 3.4703847532450821e-01 0.0000000000000000e+00  1.2147790994124356e-01 3.6473388992259664e-01 0.0000000000000000e+00  1.2079607600313069e-01 3.5465977195702436e-01 0.0000000000000000e+00  1.2119580810537006e-01 3.7521772029478290e-01 0.0000000000000000e+00  1.2088851519818279e-01 3.6201358014184132e-01 0.0000000000000000e+00  1.2087931746479341e-01 3.8586957523255788e-01 0.0000000000000000e+00  1.2099000051970153e-01 3.6944869516126971e-01 0.0000000000000000e+00  1.2056263614245670e-01 3.9632035382470165e-01 0.0000000000000000e+00  1.2109317321138527e-01 3.7708592513830896e-01 0.0000000000000000e+00  1.2028769506172067e-01 4.0613512148514591e-01 0.0000000000000000e+00  1.2117906772032029e-01 3.8513531857756023e-01 0.0000000000000000e+00  1.2005609651820631e-01 4.1525757929543633e-01 0.0000000000000000e+00  1.2121044271856472e-01 3.9394717351611475e-01 0.0000000000000000e+00  1.1986142574872323e-01 4.2373389274354667e-01 0.0000000000000000e+00  1.2119373624120708e-01 4.0344551094565451e-01 0.0000000000000000e+00  1.1972987532504020e-01 4.3135603271138462e-01 0.0000000000000000e+00  1.2116199349238911e-01 4.1328406723720068e-01 0.0000000000000000e+00  1.1965245975997668e-01 4.3826776574698389e-01 0.0000000000000000e+00  1.2110164289087801e-01 4.2351604008618216e-01 0.0000000000000000e+00  1.1957742519232481e-01 4.4502192741802454e-01 0.0000000000000000e+00  1.2101460116185468e-01 4.3404040513431580e-01 0.0000000000000000e+00  1.1951456648797053e-01 4.5162662458737163e-01 0.0000000000000000e+00  1.2095868401583527e-01 4.4424923008913447e-01 0.0000000000000000e+00  1.1947882799397699e-01 4.5803583775624107e-01 0.0000000000000000e+00  1.2092260106648207e-01 4.5417152178855136e-01 0.0000000000000000e+00  1.1941199171887591e-01 4.6484411502684991e-01 0.0000000000000000e+00  1.2087216494762461e-01 4.6406012047520784e-01 0.0000000000000000e+00  1.1933100497183148e-01 4.7194644188180490e-01 0.0000000000000000e+00  1.2086495062078144e-01 4.7335701699563765e-01 0.0000000000000000e+00  1.1928557393791732e-01 4.7892249741607629e-01 0.0000000000000000e+00  1.2087757735331699e-01 4.8225360745307222e-01 0.0000000000000000e+00  1.1921061047828491e-01 4.8637368173261947e-01 0.0000000000000000e+00  1.2085146372849019e-01 4.9126991862660729e-01 0.0000000000000000e+00  1.1913767530382557e-01 4.9401875446939508e-01 0.0000000000000000e+00  1.2086380350953060e-01 4.9970659783839172e-01 0.0000000000000000e+00  1.1912411402929365e-01 5.0133716854229859e-01 0.0000000000000000e+00  1.2086764758262723e-01 5.0799396938002872e-01 0.0000000000000000e+00  1.1907433202676641e-01 5.0918404422496655e-01 0.0000000000000000e+00  1.2081779200340184e-01 5.1655226634876950e-01 0.0000000000000000e+00  1.1906007419495486e-01 5.1689371739776258e-01 0.0000000000000000e+00  1.2082249985463761e-01 5.2442355599686230e-01 0.0000000000000000e+00  1.1909601508783021e-01 5.2430967164534792e-01 0.0000000000000000e+00  1.2077491847138615e-01 5.3260228127834142e-01 0.0000000000000000e+00  1.1907433618934463e-01 5.3237557134339131e-01 0.0000000000000000e+00  1.2071165417072610e-01 5.4079004431274413e-01 0.0000000000000000e+00  1.1913642102949243e-01 5.3977841096081136e-01 0.0000000000000000e+00  1.2070605754324541e-01 5.4835841996651813e-01 0.0000000000000000e+00  1.1917305291380470e-01 5.4747505003917518e-01 0.0000000000000000e+00  1.2060514150973833e-01 5.5671999620507062e-01 0.0000000000000000e+00  1.1918941468594642e-01 5.5539044539038496e-01 0.0000000000000000e+00  1.2058769153017748e-01 5.6428244068226552e-01 0.0000000000000000e+00  1.1929233097852435e-01 5.6253912483995050e-01 0.0000000000000000e+00  1.2053054845735781e-01 5.7217722022957662e-01 0.0000000000000000e+00  1.1928117625543684e-01 5.7072068269500476e-01 0.0000000000000000e+00  1.2045238316436664e-01 5.8024918958315297e-01 0.0000000000000000e+00  1.1938317577034899e-01 5.7786424094414890e-01 0.0000000000000000e+00  1.2046539609684641e-01 5.8750102700346951e-01 0.0000000000000000e+00  1.1940535789500142e-01 5.8569998905567300e-01 0.0000000000000000e+00  1.2034804112801645e-01 5.9595444091043326e-01 0.0000000000000000e+00  1.1944218724249429e-01 5.9334816704242710e-01 0.0000000000000000e+00  1.2039432484079376e-01 6.0297853008257685e-01 0.0000000000000000e+00  1.1952324611122528e-01 6.0051590280290434e-01 0.0000000000000000e+00  1.2029912162741448e-01 6.1135890561906592e-01 0.0000000000000000e+00  1.1947987039083804e-01 6.0870075195424422e-01 0.0000000000000000e+00  1.2033218970954511e-01 6.1868125468885948e-01 0.0000000000000000e+00  1.1959879119367116e-01 6.1528988458269440e-01 0.0000000000000000e+00  1.2030621323053163e-01 6.2665253177560387e-01 0.0000000000000000e+00  1.1949730364612447e-01 6.2374161286779917e-01 0.0000000000000000e+00  1.2030076031759210e-01 6.3454679328998520e-01 0.0000000000000000e+00  1.1962155457743558e-01 6.3003345990210191e-01 0.0000000000000000e+00  1.2035557714320615e-01 6.4198242773944503e-01 0.0000000000000000e+00  1.1949424248421057e-01 6.3852061979513675e-01 0.0000000000000000e+00  1.2030259888732721e-01 6.5043183243272540e-01 0.0000000000000000e+00  1.1960992037799670e-01 6.4477581090567482e-01 0.0000000000000000e+00  1.2042637362808130e-01 6.5727418837171414e-01 0.0000000000000000e+00  1.1948345620597893e-01 6.5324686253632969e-01 0.0000000000000000e+00  1.2031833218383435e-01 6.6614253962790959e-01 0.0000000000000000e+00  1.1959097532446664e-01 6.5967337605927034e-01 0.0000000000000000e+00  1.2048609752114703e-01 6.7241063161424819e-01 0.0000000000000000e+00  1.1947785467204497e-01 6.6820979897649946e-01 0.0000000000000000e+00  1.2033301874461368e-01 6.8143587033534270e-01 0.0000000000000000e+00  1.1960610316730741e-01 6.7469039342753878e-01 0.0000000000000000e+00  1.2052618586380724e-01 6.8718820970848715e-01 0.0000000000000000e+00  1.1948138049054473e-01 6.8359260357802432e-01 0.0000000000000000e+00  1.2033355897692551e-01 6.9628309009776335e-01 0.0000000000000000e+00  1.1966047867199003e-01 6.8985918504705768e-01 0.0000000000000000e+00  1.2053038778135026e-01 7.0174212347262521e-01 0.0000000000000000e+00  1.1947188867284116e-01 6.9954882252311401e-01 0.0000000000000000e+00  1.2032463201023351e-01 7.1073837488615599e-01 0.0000000000000000e+00  1.1974598966318376e-01 7.0511874483955772e-01 0.0000000000000000e+00  1.2050502909405779e-01 7.1617696617152204e-01 0.0000000000000000e+00  1.1947752840878986e-01 7.1564431378435622e-01 0.0000000000000000e+00  1.2039692467018605e-01 7.2417147495107359e-01 0.0000000000000000e+00  1.1986692120494785e-01 7.2023735014071188e-01 0.0000000000000000e+00  1.2042107706927339e-01 7.3095549213677924e-01 0.0000000000000000e+00  1.1945868093119918e-01 7.3202898738258138e-01 0.0000000000000000e+00  1.2052200702305119e-01 7.3706628095845850e-01 0.0000000000000000e+00  1.1988187888792527e-01 7.3623524492966275e-01 0.0000000000000000e+00  1.2028695783602082e-01 7.4630460261835729e-01 0.0000000000000000e+00  1.1952529735531339e-01 7.4733963077546128e-01 0.0000000000000000e+00  1.2077781197924024e-01 7.4917232694070302e-01 0.0000000000000000e+00  1.1968721231487703e-01 7.5348923064864071e-01 0.0000000000000000e+00  1.2026586012735452e-01 7.6143514089835873e-01 0.0000000000000000e+00  1.1967700258497192e-01 7.6075181575340600e-01 0.0000000000000000e+00  1.2096052773079162e-01 7.6332167157394848e-01 0.0000000000000000e+00  1.1913846472436594e-01 7.7213755912223603e-01 0.0000000000000000e+00  1.2069801312851741e-01 7.7461621826941518e-01 0.0000000000000000e+00  1.1968188211994805e-01 7.7282528097306735e-01 0.0000000000000000e+00  1.2099462868018991e-01 7.8191805431530226e-01 0.0000000000000000e+00  1.1865055996056291e-01 7.8651310281939035e-01 0.0000000000000000e+00  1.2187752673173866e-01 7.8529542651706730e-01 0.0000000000000000e+00  1.1888275104337297e-01 7.8719063301400494e-01 0.0000000000000000e+00  1.2137794905381671e-01 8.0292279698522828e-01 0.0000000000000000e+00  1.1860404380138402e-01 7.9050091786929499e-01 0.0000000000000000e+00  1.2282873979124644e-01 8.0509903698291385e-01 0.0000000000000000e+00  1.1705610281813886e-01 8.0288549011993238e-01 0.0000000000000000e+00  1.2325492051739101e-01 8.1899447057009622e-01 0.0000000000000000e+00  1.1757623873263763e-01 7.9381228885721411e-01 0.0000000000000000e+00  1.2311709577599889e-01 8.4081704292408377e-01 0.0000000000000000e+00  1.1615268470505326e-01 7.9930479648544228e-01 0.0000000000000000e+00  1.2556971683223955e-01 8.4230939787172199e-01 0.0000000000000000e+00  1.1424005096057867e-01 8.0595823617113904e-01 0.0000000000000000e+00  1.2582350612828472e-01 8.6650273950846834e-01 0.0000000000000000e+00  1.1508478966267349e-01 7.8449178888514237e-01 0.0000000000000000e+00  1.2579714724805874e-01 8.9595613675291641e-01 0.0000000000000000e+00  1.1311742134200001e-01 7.8601146402310529e-01 0.0000000000000000e+00  1.2921753714036766e-01 8.9652134938182937e-01 0.0000000000000000e+00  1.1030206347151808e-01 7.9329514900988862e-01 0.0000000000000000e+00  1.2989905482362260e-01 9.2229093469571954e-01 0.0000000000000000e+00  1.1169342670082558e-01 7.6171349733394145e-01 0.0000000000000000e+00  1.2830472691959863e-01 9.6787854562030762e-01 0.0000000000000000e+00  1.1123388253336811e-01 7.4863441077968595e-01 0.0000000000000000e+00  1.3139279010479540e-01 9.6962082155870644e-01 0.0000000000000000e+00  1.0697204517657898e-01 7.7389019582753427e-01 0.0000000000000000e+00  1.3475985240244109e-01 9.6417763796587297e-01 0.0000000000000000e+00  1.0680786773268772e-01 7.6678039395105446e-01 0.0000000000000000e+00  1.3190121403111205e-01 1.0076020097710681e+00 0.0000000000000000e+00  1.1105718525656735e-01 7.2666026041768994e-01 0.0000000000000000e+00  1.2808502220294768e-01 1.0523984965240809e+00 0.0000000000000000e+00  1.1165881791871986e-01 7.2957228252013551e-01 0.0000000000000000e+00  1.3068021097996455e-01 1.0328205902877912e+00 0.0000000000000000e+00  1.0702544238097821e-01 7.8995488939518721e-01 0.0000000000000000e+00  1.3591447495486414e-01 9.8183568251533626e-01 0.0000000000000000e+00  1.0389093919148250e-01 8.4342976270071357e-01 0.0000000000000000e+00  1.3623712413084901e-01 9.6733816562032160e-01 0.0000000000000000e+00  1.0722284655790963e-01 8.4255100581933462e-01 0.0000000000000000e+00  1.3051757021848678e-01 1.0020612752438536e+00 0.0000000000000000e+00  1.1429698221449040e-01 8.0983672496824677e-01 0.0000000000000000e+00  1.2299627872507847e-01 1.0520413587937940e+00 0.0000000000000000e+00  1.2002970864341446e-01 7.8893319738581380e-01 0.0000000000000000e+00  1.1818233808689162e-01 1.0808322668709991e+00 0.0000000000000000e+00  1.2252302720583796e-01 7.9459044597657913e-01 0.0000000000000000e+00  1.1704060051358213e-01 1.0819956512149513e+00 0.0000000000000000e+00  1.2257126677848999e-01 8.1713020793065649e-01 0.0000000000000000e+00  1.1811585081935745e-01 1.0695623887099752e+00 0.0000000000000000e+00  1.2144972406780559e-01 8.4354528409493623e-01 0.0000000000000000e+00  1.1989958097350310e-01 1.0568699745528167e+00 0.0000000000000000e+00  1.2004621603929569e-01 8.6616195574056720e-01 0.0000000000000000e+00  1.2158224123092809e-01 1.0497647907832881e+00 0.0000000000000000e+00  1.1881695689256376e-01 8.8277984445693991e-01 0.0000000000000000e+00  1.2286829501079419e-01 1.0486413320440628e+00 0.0000000000000000e+00  1.1795894898556672e-01 8.9435666681033599e-01 0.0000000000000000e+00  1.2366286324093306e-01 1.0518614240480584e+00 0.0000000000000000e+00  1.1757566285683139e-01 9.0263289380433276e-01 0.0000000000000000e+00  1.2391000063465868e-01 1.0578826524629010e+00 0.0000000000000000e+00  1.1773309958600774e-01 9.0885151503004280e-01 0.0000000000000000e+00  1.2356950080616554e-01 1.0660159024360001e+00 0.0000000000000000e+00  1.1842586208473266e-01 9.1360792424627313e-01 0.0000000000000000e+00  1.2268842961234790e-01 1.0760109169040555e+00 0.0000000000000000e+00  1.1953645365269641e-01 9.1721442261651820e-01 0.0000000000000000e+00  1.2144938438116602e-01 1.0874378480095717e+00 0.0000000000000000e+00  1.2081948739857447e-01 9.2027953975784516e-01 0.0000000000000000e+00  1.2017473549086639e-01 1.0991101217694701e+00 0.0000000000000000e+00  1.2201421533417595e-01 9.2339263622263745e-01 0.0000000000000000e+00  1.1929233174649664e-01 1.1086957938077955e+00 0.0000000000000000e+00  1.2300118908727417e-01 9.2640795901110606e-01 0.0000000000000000e+00  1.1904650886584615e-01 1.1147546092086604e+00 0.0000000000000000e+00  1.2402497770452565e-01 9.2686162178610076e-01 0.0000000000000000e+00  1.1934218897110255e-01 1.1179387762818678e+00 0.0000000000000000e+00  1.2536104493765179e-01 9.2299437008058560e-01 0.0000000000000000e+00  1.2072339496395666e-01 1.1123956688975727e+00 0.0000000000000000e+00  1.2717552288174466e-01 9.1462856504257950e-01 0.0000000000000000e+00  1.1995707488866646e-01 1.1257314126042168e+00 0.0000000000000000e+00  1.3483378378758795e-01 8.5545225335064456e-01 0.0000000000000000e+00  1.0254563182653631e-01 1.2902703747200455e+00 0.0000000000000000e+00  1.1986703708072700e-01 1.0029781556862456e+00 0.0000000000000000e+00  1.1523934161208242e-01 1.1745477951208181e+00 0.0000000000000000e+00  1.2128427980798168e-01 1.0013676131718738e+00 0.0000000000000000e+00  1.1699956745181907e-01 1.1613403847349504e+00 0.0000000000000000e+00  1.2031985939742983e-01 1.0218288993188178e+00 0.0000000000000000e+00  1.2054308777850724e-01 1.1325691383420629e+00 0.0000000000000000e+00  1.1609678143157155e-01 1.0710873066196289e+00 0.0000000000000000e+00  1.2321366752012040e-01 1.1130619134129052e+00 0.0000000000000000e+00  1.1918245628568366e-01 1.0520973999192640e+00 0.0000000000000000e+00  1.1972331677106685e-01 1.1507701242243142e+00 0.0000000000000000e+00  1.2676456391770161e-01 9.9098028944414529e-01 0.0000000000000000e+00  1.1540249448823692e-01 1.1977916057133837e+00 0.0000000000000000e+00  1.3093438870801077e-01 9.5990365522476251e-01 0.0000000000000000e+00  1.1495302730481104e-01 1.2109461216791226e+00 0.0000000000000000e+00  1.1406987472908239e-01 1.1190490676088907e+00 0.0000000000000000e+00  1.2965825949027271e-01 1.0863006631478336e+00 0.0000000000000000e+00  1.1170489080761266e-01 1.1478463591803372e+00 0.0000000000000000e+00  1.2276918158833557e-01 1.1555191380905780e+00 0.0000000000000000e+00  1.2759477751186427e-01 1.0127382067682744e+00 0.0000000000000000e+00  1.1653865800232882e-01 1.2174749789539641e+00 0.0000000000000000e+00  1.3730630656050596e-01 9.3583837615002896e-01 0.0000000000000000e+00  1.174060