<?xml version="1.0"?>
<VTKFile type="UnstructuredGrid"  version="0.1"  >
<UnstructuredGrid>
<Piece  NumberOfPoints="801" NumberOfCells="800">
<Points>
<DataArray  type="Float64"  NumberOfComponents="3"  format="ascii">-5 0 0  -4.9875 0 0  -4.975 0 0  -4.9625 0 0  -4.95 0 0  -4.9375 0 0  -4.925 0 0  -4.9125 0 0  -4.9 0 0  -4.8875 0 0  -4.875 0 0  -4.8625 0 0  -4.85 0 0  -4.8375 0 0  -4.825 0 0  -4.8125 0 0  -4.8 0 0  -4.7875 0 0  -4.775 0 0  -4.7625 0 0  -4.75 0 0  -4.7375 0 0  -4.725 0 0  -4.7125 0 0  -4.7 0 0  -4.6875 0 0  -4.675 0 0  -4.6625 0 0  -4.65 0 0  -4.6375 0 0  -4.625 0 0  -4.6125 0 0  -4.6 0 0  -4.5875 0 0  -4.575 0 0  -4.5625 0 0  -4.55 0 0  -4.5375 0 0  -4.525 0 0  -4.5125 0 0  -4.5 0 0  -4.4875 0 0  -4.475 0 0  -4.4625 0 0  -4.45 0 0  -4.4375 0 0  -4.425 0 0  -4.4125 0 0  -4.4 0 0  -4.3875 0 0  -4.375 0 0  -4.3625 0 0  -4.35 0 0  -4.3375 0 0  -4.325 0 0  -4.3125 0 0  -4.3 0 0  -4.2875 0 0  -4.275 0 0  -4.2625 0 0  -4.25 0 0  -4.2375 0 0  -4.225 0 0  -4.2125 0 0  -4.2 0 0  -4.1875 0 0  -4.175 0 0  -4.1625 0 0  -4.15 0 0  -4.1375 0 0  -4.125 0 0  -4.1125 0 0  -4.1 0 0  -4.0875 0 0  -4.075 0 0  -4.0625 0 0  -4.05 0 0  -4.0375 0 0  -4.025 0 0  -4.0125 0 0  -4 0 0  -3.9875 0 0  -3.975 0 0  -3.9625 0 0  -3.95 0 0  -3.9375 0 0  -3.925 0 0  -3.9125 0 0  -3.9 0 0  -3.8875 0 0  -3.875 0 0  -3.8625 0 0  -3.85 0 0  -3.8375 0 0  -3.825 0 0  -3.8125 0 0  -3.8 0 0  -3.7875 0 0  -3.775 0 0  -3.7625 0 0  -3.75 0 0  -3.7375 0 0  -3.725 0 0  -3.7125 0 0  -3.7 0 0  -3.6875 0 0  -3.675 0 0  -3.6625 0 0  -3.65 0 0  -3.6375 0 0  -3.625 0 0  -3.6125 0 0  -3.6 0 0  -3.5875 0 0  -3.575 0 0  -3.5625 0 0  -3.55 0 0  -3.5375 0 0  -3.525 0 0  -3.5125 0 0  -3.5 0 0  -3.4875 0 0  -3.475 0 0  -3.4625 0 0  -3.45 0 0  -3.4375 0 0  -3.425 0 0  -3.4125 0 0  -3.4 0 0  -3.3875 0 0  -3.375 0 0  -3.3625 0 0  -3.35 0 0  -3.3375 0 0  -3.325 0 0  -3.3125 0 0  -3.3 0 0  -3.2875 0 0  -3.275 0 0  -3.2625 0 0  -3.25 0 0  -3.2375 0 0  -3.225 0 0  -3.2125 0 0  -3.2 0 0  -3.1875 0 0  -3.175 0 0  -3.1625 0 0  -3.15 0 0  -3.1375 0 0  -3.125 0 0  -3.1125 0 0  -3.1 0 0  -3.0875 0 0  -3.075 0 0  -3.0625 0 0  -3.05 0 0  -3.0375 0 0  -3.025 0 0  -3.0125 0 0  -3 0 0  -2.9875 0 0  -2.975 0 0  -2.9625 0 0  -2.95 0 0  -2.9375 0 0  -2.925 0 0  -2.9125 0 0  -2.9 0 0  -2.8875 0 0  -2.875 0 0  -2.8625 0 0  -2.85 0 0  -2.8375 0 0  -2.825 0 0  -2.8125 0 0  -2.8 0 0  -2.7875 0 0  -2.775 0 0  -2.7625 0 0  -2.75 0 0  -2.7375 0 0  -2.725 0 0  -2.7125 0 0  -2.7 0 0  -2.6875 0 0  -2.675 0 0  -2.6625 0 0  -2.65 0 0  -2.6375 0 0  -2.625 0 0  -2.6125 0 0  -2.6 0 0  -2.5875 0 0  -2.575 0 0  -2.5625 0 0  -2.55 0 0  -2.5375 0 0  -2.525 0 0  -2.5125 0 0  -2.5 0 0  -2.4875 0 0  -2.475 0 0  -2.4625 0 0  -2.45 0 0  -2.4375 0 0  -2.425 0 0  -2.4125 0 0  -2.4 0 0  -2.3875 0 0  -2.375 0 0  -2.3625 0 0  -2.35 0 0  -2.3375 0 0  -2.325 0 0  -2.3125 0 0  -2.3 0 0  -2.2875 0 0  -2.275 0 0  -2.2625 0 0  -2.25 0 0  -2.2375 0 0  -2.225 0 0  -2.2125 0 0  -2.2 0 0  -2.1875 0 0  -2.175 0 0  -2.1625 0 0  -2.15 0 0  -2.1375 0 0  -2.125 0 0  -2.1125 0 0  -2.1 0 0  -2.0875 0 0  -2.075 0 0  -2.0625 0 0  -2.05 0 0  -2.0375 0 0  -2.025 0 0  -2.0125 0 0  -2 0 0  -1.9875 0 0  -1.975 0 0  -1.9625 0 0  -1.95 0 0  -1.9375 0 0  -1.925 0 0  -1.9125 0 0  -1.9 0 0  -1.8875 0 0  -1.875 0 0  -1.8625 0 0  -1.85 0 0  -1.8375 0 0  -1.825 0 0  -1.8125 0 0  -1.8 0 0  -1.7875 0 0  -1.775 0 0  -1.7625 0 0  -1.75 0 0  -1.7375 0 0  -1.725 0 0  -1.7125 0 0  -1.7 0 0  -1.6875 0 0  -1.675 0 0  -1.6625 0 0  -1.65 0 0  -1.6375 0 0  -1.625 0 0  -1.6125 0 0  -1.6 0 0  -1.5875 0 0  -1.575 0 0  -1.5625 0 0  -1.55 0 0  -1.5375 0 0  -1.525 0 0  -1.5125 0 0  -1.5 0 0  -1.4875 0 0  -1.475 0 0  -1.4625 0 0  -1.45 0 0  -1.4375 0 0  -1.425 0 0  -1.4125 0 0  -1.4 0 0  -1.3875 0 0  -1.375 0 0  -1.3625 0 0  -1.35 0 0  -1.3375 0 0  -1.325 0 0  -1.3125 0 0  -1.3 0 0  -1.2875 0 0  -1.275 0 0  -1.2625 0 0  -1.25 0 0  -1.2375 0 0  -1.225 0 0  -1.2125 0 0  -1.2 0 0  -1.1875 0 0  -1.175 0 0  -1.1625 0 0  -1.15 0 0  -1.1375 0 0  -1.125 0 0  -1.1125 0 0  -1.1 0 0  -1.0875 0 0  -1.075 0 0  -1.0625 0 0  -1.05 0 0  -1.0375 0 0  -1.025 0 0  -1.0125 0 0  -1 0 0  -0.9874999999999998 0 0  -0.9749999999999996 0 0  -0.9625000000000004 0 0  -0.9500000000000002 0 0  -0.9375 0 0  -0.9249999999999998 0 0  -0.9124999999999996 0 0  -0.9000000000000004 0 0  -0.8875000000000002 0 0  -0.875 0 0  -0.8624999999999998 0 0  -0.8499999999999996 0 0  -0.8375000000000004 0 0  -0.8250000000000002 0 0  -0.8125 0 0  -0.7999999999999998 0 0  -0.7874999999999996 0 0  -0.7750000000000004 0 0  -0.7625000000000002 0 0  -0.75 0 0  -0.7374999999999998 0 0  -0.7249999999999996 0 0  -0.7125000000000004 0 0  -0.7000000000000002 0 0  -0.6875 0 0  -0.6749999999999998 0 0  -0.6624999999999996 0 0  -0.6500000000000004 0 0  -0.6375000000000002 0 0  -0.625 0 0  -0.6124999999999998 0 0  -0.5999999999999996 0 0  -0.5875000000000004 0 0  -0.5750000000000002 0 0  -0.5625 0 0  -0.5499999999999998 0 0  -0.5374999999999996 0 0  -0.5250000000000004 0 0  -0.5125000000000002 0 0  -0.5 0 0  -0.4874999999999998 0 0  -0.4749999999999996 0 0  -0.4625000000000004 0 0  -0.4500000000000002 0 0  -0.4375 0 0  -0.4249999999999998 0 0  -0.4124999999999996 0 0  -0.4000000000000004 0 0  -0.3875000000000002 0 0  -0.375 0 0  -0.3624999999999998 0 0  -0.3499999999999996 0 0  -0.3375000000000004 0 0  -0.3250000000000002 0 0  -0.3125 0 0  -0.2999999999999998 0 0  -0.2874999999999996 0 0  -0.2750000000000004 0 0  -0.2625000000000002 0 0  -0.25 0 0  -0.2374999999999998 0 0  -0.2249999999999996 0 0  -0.2125000000000004 0 0  -0.2000000000000002 0 0  -0.1875 0 0  -0.1749999999999998 0 0  -0.1624999999999996 0 0  -0.1500000000000004 0 0  -0.1375000000000002 0 0  -0.125 0 0  -0.1124999999999998 0 0  -0.09999999999999964 0 0  -0.08750000000000036 0 0  -0.07500000000000018 0 0  -0.0625 0 0  -0.04999999999999982 0 0  -0.03749999999999964 0 0  -0.02500000000000036 0 0  -0.01250000000000018 0 0  0 0 0  0.01250000000000018 0 0  0.02500000000000036 0 0  0.03749999999999964 0 0  0.04999999999999982 0 0  0.0625 0 0  0.07500000000000018 0 0  0.08750000000000036 0 0  0.09999999999999964 0 0  0.1124999999999998 0 0  0.125 0 0  0.1375000000000002 0 0  0.1500000000000004 0 0  0.1624999999999996 0 0  0.1749999999999998 0 0  0.1875 0 0  0.2000000000000002 0 0  0.2125000000000004 0 0  0.2249999999999996 0 0  0.2374999999999998 0 0  0.25 0 0  0.2625000000000002 0 0  0.2750000000000004 0 0  0.2874999999999996 0 0  0.2999999999999998 0 0  0.3125 0 0  0.3250000000000002 0 0  0.3375000000000004 0 0  0.3499999999999996 0 0  0.3624999999999998 0 0  0.375 0 0  0.3875000000000002 0 0  0.4000000000000004 0 0  0.4124999999999996 0 0  0.4249999999999998 0 0  0.4375 0 0  0.4500000000000002 0 0  0.4625000000000004 0 0  0.4749999999999996 0 0  0.4874999999999998 0 0  0.5 0 0  0.5125000000000002 0 0  0.5250000000000004 0 0  0.5374999999999996 0 0  0.5499999999999998 0 0  0.5625 0 0  0.5750000000000002 0 0  0.5875000000000004 0 0  0.5999999999999996 0 0  0.6124999999999998 0 0  0.625 0 0  0.6375000000000002 0 0  0.6500000000000004 0 0  0.6624999999999996 0 0  0.6749999999999998 0 0  0.6875 0 0  0.7000000000000002 0 0  0.7125000000000004 0 0  0.7249999999999996 0 0  0.7374999999999998 0 0  0.75 0 0  0.7625000000000002 0 0  0.7750000000000004 0 0  0.7874999999999996 0 0  0.7999999999999998 0 0  0.8125 0 0  0.8250000000000002 0 0  0.8375000000000004 0 0  0.8499999999999996 0 0  0.8624999999999998 0 0  0.875 0 0  0.8875000000000002 0 0  0.9000000000000004 0 0  0.9124999999999996 0 0  0.9249999999999998 0 0  0.9375 0 0  0.9500000000000002 0 0  0.9625000000000004 0 0  0.9749999999999996 0 0  0.9874999999999998 0 0  1 0 0  1.0125 0 0  1.025 0 0  1.0375 0 0  1.05 0 0  1.0625 0 0  1.075 0 0  1.0875 0 0  1.1 0 0  1.1125 0 0  1.125 0 0  1.1375 0 0  1.15 0 0  1.1625 0 0  1.175 0 0  1.1875 0 0  1.2 0 0  1.2125 0 0  1.225 0 0  1.2375 0 0  1.25 0 0  1.2625 0 0  1.275 0 0  1.2875 0 0  1.3 0 0  1.3125 0 0  1.325 0 0  1.3375 0 0  1.35 0 0  1.3625 0 0  1.375 0 0  1.3875 0 0  1.4 0 0  1.4125 0 0  1.425 0 0  1.4375 0 0  1.45 0 0  1.4625 0 0  1.475 0 0  1.4875 0 0  1.5 0 0  1.5125 0 0  1.525 0 0  1.5375 0 0  1.55 0 0  1.5625 0 0  1.575 0 0  1.5875 0 0  1.6 0 0  1.6125 0 0  1.625 0 0  1.6375 0 0  1.65 0 0  1.6625 0 0  1.675 0 0  1.6875 0 0  1.7 0 0  1.7125 0 0  1.725 0 0  1.7375 0 0  1.75 0 0  1.7625 0 0  1.775 0 0  1.7875 0 0  1.8 0 0  1.8125 0 0  1.825 0 0  1.8375 0 0  1.85 0 0  1.8625 0 0  1.875 0 0  1.8875 0 0  1.9 0 0  1.9125 0 0  1.925 0 0  1.9375 0 0  1.95 0 0  1.9625 0 0  1.975 0 0  1.9875 0 0  2 0 0  2.0125 0 0  2.025 0 0  2.0375 0 0  2.05 0 0  2.0625 0 0  2.075 0 0  2.0875 0 0  2.1 0 0  2.1125 0 0  2.125 0 0  2.1375 0 0  2.15 0 0  2.1625 0 0  2.175 0 0  2.1875 0 0  2.2 0 0  2.2125 0 0  2.225 0 0  2.2375 0 0  2.25 0 0  2.2625 0 0  2.275 0 0  2.2875 0 0  2.3 0 0  2.3125 0 0  2.325 0 0  2.3375 0 0  2.35 0 0  2.3625 0 0  2.375 0 0  2.3875 0 0  2.4 0 0  2.4125 0 0  2.425 0 0  2.4375 0 0  2.45 0 0  2.4625 0 0  2.475 0 0  2.4875 0 0  2.5 0 0  2.5125 0 0  2.525 0 0  2.5375 0 0  2.55 0 0  2.5625 0 0  2.575 0 0  2.5875 0 0  2.6 0 0  2.6125 0 0  2.625 0 0  2.6375 0 0  2.65 0 0  2.6625 0 0  2.675 0 0  2.6875 0 0  2.7 0 0  2.7125 0 0  2.725 0 0  2.7375 0 0  2.75 0 0  2.7625 0 0  2.775 0 0  2.7875 0 0  2.8 0 0  2.8125 0 0  2.825 0 0  2.8375 0 0  2.85 0 0  2.8625 0 0  2.875 0 0  2.8875 0 0  2.9 0 0  2.9125 0 0  2.925 0 0  2.9375 0 0  2.95 0 0  2.9625 0 0  2.975 0 0  2.9875 0 0  3 0 0  3.012499999999999 0 0  3.025 0 0  3.0375 0 0  3.050000000000001 0 0  3.0625 0 0  3.074999999999999 0 0  3.0875 0 0  3.1 0 0  3.112500000000001 0 0  3.125 0 0  3.137499999999999 0 0  3.15 0 0  3.1625 0 0  3.175000000000001 0 0  3.1875 0 0  3.199999999999999 0 0  3.2125 0 0  3.225 0 0  3.237500000000001 0 0  3.25 0 0  3.262499999999999 0 0  3.275 0 0  3.2875 0 0  3.300000000000001 0 0  3.3125 0 0  3.324999999999999 0 0  3.3375 0 0  3.35 0 0  3.362500000000001 0 0  3.375 0 0  3.387499999999999 0 0  3.4 0 0  3.4125 0 0  3.425000000000001 0 0  3.4375 0 0  3.449999999999999 0 0  3.4625 0 0  3.475 0 0  3.4875
[...]
<PointData  Vectors="(h, u)"> 
<DataArray  type="Float64"  Name="(h, u)"  NumberOfComponents="3" format="ascii">1.2222424992171317e-01 0.0000000000000000e+00 0.0000000000000000e+00  1.2508858280376708e-01 5.9509698620645174e-03 0.0000000000000000e+00  1.2224060108066277e-01 5.8631737891278136e-03 0.0000000000000000e+00  1.2504542974771857e-01 1.7867262936223604e-02 0.0000000000000000e+00  1.2229404246877380e-01 1.1703041036874591e-02 0.0000000000000000e+00  1.2495053343425043e-01 2.9807745529870124e-02 0.0000000000000000e+00  1.2239627341956409e-01 1.7530222202277561e-02 0.0000000000000000e+00  1.2478969769676669e-01 4.1743301545035319e-02 0.0000000000000000e+00  1.2256254632826895e-01 2.3393961950861356e-02 0.0000000000000000e+00  1.2454776950372377e-01 5.3624600961945990e-02 0.0000000000000000e+00  1.2280713307552796e-01 2.9348294049936479e-02 0.0000000000000000e+00  1.2421324612584272e-01 6.5430011397876062e-02 0.0000000000000000e+00  1.2313943390626636e-01 3.5399689459366945e-02 0.0000000000000000e+00  1.2378171984803964e-01 7.7209244026106474e-02 0.0000000000000000e+00  1.2356115957798068e-01 4.1475559257325469e-02 0.0000000000000000e+00  1.2325801586283334e-01 8.9087547919914703e-02 0.0000000000000000e+00  1.2406413273146025e-01 4.7445464849626001e-02 0.0000000000000000e+00  1.2265761917923179e-01 1.0121445008781008e-01 0.0000000000000000e+00  1.2462836089390437e-01 5.3194647358985984e-02 0.0000000000000000e+00  1.2200788015606508e-01 1.1367127463165476e-01 0.0000000000000000e+00  1.2522085598992774e-01 5.8715640761094624e-02 0.0000000000000000e+00  1.2134834413157006e-01 1.2637960320531205e-01 0.0000000000000000e+00  1.2579633119273373e-01 6.4171278787045302e-02 0.0000000000000000e+00  1.2072844932044431e-01 1.3906139635658929e-01 0.0000000000000000e+00  1.2630105878323281e-01 6.9894431635120657e-02 0.0000000000000000e+00  1.2020139783727439e-01 1.5127972945278739e-01 0.0000000000000000e+00  1.2668067127891561e-01 7.6315860987253376e-02 0.0000000000000000e+00  1.1981506433632270e-01 1.6254905788164289e-01 0.0000000000000000e+00  1.2689096231529615e-01 8.3842967856407810e-02 0.0000000000000000e+00  1.1960232531948596e-01 1.7247413199060641e-01 0.0000000000000000e+00  1.2690826839250835e-01 9.2737609105346119e-02 0.0000000000000000e+00  1.1957333147591974e-01 1.8087016556511054e-01 0.0000000000000000e+00  1.2673522608739993e-01 1.0304123167380341e-01 0.0000000000000000e+00  1.1971223201974919e-01 1.8782314010407869e-01 0.0000000000000000e+00  1.2639995378775837e-01 1.1456643906495516e-01 0.0000000000000000e+00  1.1998052226358223e-01 1.9366525065236290e-01 0.0000000000000000e+00  1.2594957927795691e-01 1.2694464171320635e-01 0.0000000000000000e+00  1.2032652572558084e-01 1.9887632001194619e-01 0.0000000000000000e+00  1.2543986719215092e-01 1.3971389503123485e-01 0.0000000000000000e+00  1.2069689635639540e-01 2.0395967765387976e-01 0.0000000000000000e+00  1.2492308461046736e-01 1.5242940513330061e-01 0.0000000000000000e+00  1.2104599621629661e-01 2.0933982226462947e-01 0.0000000000000000e+00  1.2443821782800206e-01 1.6475937351400835e-01 0.0000000000000000e+00  1.2134212671512114e-01 2.1529618508576454e-01 0.0000000000000000e+00  1.2400777766703183e-01 1.7652414890845400e-01 0.0000000000000000e+00  1.2157020420951502e-01 2.2193669982570149e-01 0.0000000000000000e+00  1.2364053907278114e-01 1.8767913418209425e-01 0.0000000000000000e+00  1.2172887913107724e-01 2.2922697821523766e-01 0.0000000000000000e+00  1.2333553985442061e-01 1.9827935847448611e-01 0.0000000000000000e+00  1.2182311193629518e-01 2.3706477438767123e-01 0.0000000000000000e+00  1.2308562726499497e-01 2.0844013790904597e-01 0.0000000000000000e+00  1.2185892906764970e-01 2.4533886355459386e-01 0.0000000000000000e+00  1.2288196402904887e-01 2.1828396690454105e-01 0.0000000000000000e+00  1.2184440465045616e-01 2.5393350898344014e-01 0.0000000000000000e+00  1.2271670383419721e-01 2.2790424760286662e-01 0.0000000000000000e+00  1.2179170273469776e-01 2.6272001265955408e-01 0.0000000000000000e+00  1.2257923811868936e-01 2.3739258576803296e-01 0.0000000000000000e+00  1.2171551203995147e-01 2.7157338141992315e-01 0.0000000000000000e+00  1.2245105308425522e-01 2.4688674359676982e-01 0.0000000000000000e+00  1.2163250242256070e-01 2.8037249795480179e-01 0.0000000000000000e+00  1.2230940440914315e-01 2.5654627300536803e-01 0.0000000000000000e+00  1.2156379243761077e-01 2.8896861311094607e-01 0.0000000000000000e+00  1.2213671500468570e-01 2.6648047767243654e-01 0.0000000000000000e+00  1.2153054161758411e-01 2.9721413647341127e-01 0.0000000000000000e+00  1.2192331847484068e-01 2.7673600084591576e-01 0.0000000000000000e+00  1.2154031901489018e-01 3.0507623983395443e-01 0.0000000000000000e+00  1.2166628775349801e-01 2.8731513325205965e-01 0.0000000000000000e+00  1.2158188432110452e-01 3.1267933594853098e-01 0.0000000000000000e+00  1.2137651314210302e-01 2.9811319852519641e-01 0.0000000000000000e+00  1.2163612705992427e-01 3.2020594213764969e-01 0.0000000000000000e+00  1.2108431523999774e-01 3.0886430536940995e-01 0.0000000000000000e+00  1.2168220675352921e-01 3.2784135661498520e-01 0.0000000000000000e+00  1.2082464189649132e-01 3.1927024218158373e-01 0.0000000000000000e+00  1.2169060800018035e-01 3.3583585868613097e-01 0.0000000000000000e+00  1.2061854366341773e-01 3.2916541257695076e-01 0.0000000000000000e+00  1.2162987632677980e-01 3.4444480026350105e-01 0.0000000000000000e+00  1.2048018712136753e-01 3.3845495722411617e-01 0.0000000000000000e+00  1.2149046558938670e-01 3.5371547600792591e-01 0.0000000000000000e+00  1.2042705406661162e-01 3.4702542704037437e-01 0.0000000000000000e+00  1.2128345061288906e-01 3.6350002894623118e-01 0.0000000000000000e+00  1.2045935352150614e-01 3.5493077998505562e-01 0.0000000000000000e+00  1.2101436705549773e-01 3.7369310182203014e-01 0.0000000000000000e+00  1.2054765242389524e-01 3.6249924392541122e-01 0.0000000000000000e+00  1.2069112995605984e-01 3.8416581609511985e-01 0.0000000000000000e+00  1.2066643109578375e-01 3.7001985581876556e-01 0.0000000000000000e+00  1.2035282496226093e-01 3.9451525952793193e-01 0.0000000000000000e+00  1.2080730810047727e-01 3.7760953324860530e-01 0.0000000000000000e+00  1.2004095462853602e-01 4.0433293566186762e-01 0.0000000000000000e+00  1.2093936125084366e-01 3.8556038655523950e-01 0.0000000000000000e+00  1.1975948867961088e-01 4.1357392260620474e-01 0.0000000000000000e+00  1.2101936379147281e-01 3.9424065120881707e-01 0.0000000000000000e+00  1.1951778520872534e-01 4.2217882138966800e-01 0.0000000000000000e+00  1.2105292875651050e-01 4.0354269224927697e-01 0.0000000000000000e+00  1.1935152069660976e-01 4.2988581722429425e-01 0.0000000000000000e+00  1.2105950268540873e-01 4.1321120951189733e-01 0.0000000000000000e+00  1.1924675111968136e-01 4.3690458044857378e-01 0.0000000000000000e+00  1.2101585425645905e-01 4.2336899777779047e-01 0.0000000000000000e+00  1.1915870243170143e-01 4.4373324766455979e-01 0.0000000000000000e+00  1.2093553378315600e-01 4.3380841441012286e-01 0.0000000000000000e+00  1.1910562621053261e-01 4.5029758491843669e-01 0.0000000000000000e+00  1.2087656074401074e-01 4.4393279064268404e-01 0.0000000000000000e+00  1.1908523002653688e-01 4.5669065669130904e-01 0.0000000000000000e+00  1.2081868591503037e-01 4.5387376000886309e-01 0.0000000000000000e+00  1.1903480636150268e-01 4.6352755118471833e-01 0.0000000000000000e+00  1.2074709179120718e-01 4.6373137457714658e-01 0.0000000000000000e+00  1.1898401290074397e-01 4.7056877797087338e-01 0.0000000000000000e+00  1.2072462091044497e-01 4.7291822136135320e-01 0.0000000000000000e+00  1.1896251102591743e-01 4.7755938071276133e-01 0.0000000000000000e+00  1.2071027061792819e-01 4.8179848848904516e-01 0.0000000000000000e+00  1.1890174492214230e-01 4.8512173329179481e-01 0.0000000000000000e+00  1.2066686699042863e-01 4.9070818315210696e-01 0.0000000000000000e+00  1.1885550442689197e-01 4.9276472030562174e-01 0.0000000000000000e+00  1.2067150027879200e-01 4.9895647554274042e-01 0.0000000000000000e+00  1.1885547018279605e-01 5.0019113465847087e-01 0.0000000000000000e+00  1.2065301601163982e-01 5.0720156682345563e-01 0.0000000000000000e+00  1.1881229008605375e-01 5.0819088660086731e-01 0.0000000000000000e+00  1.2059828483219877e-01 5.1558336116546555e-01 0.0000000000000000e+00  1.1882017562030837e-01 5.1588481012789111e-01 0.0000000000000000e+00  1.2059908635888861e-01 5.2330094717924525e-01 0.0000000000000000e+00  1.1885512918746634e-01 5.2345889976643789e-01 0.0000000000000000e+00  1.2053409898388816e-01 5.3148582449429604e-01 0.0000000000000000e+00  1.1884077500800551e-01 5.3156957245667924e-01 0.0000000000000000e+00  1.2048045796667955e-01 5.3947326896994274e-01 0.0000000000000000e+00  1.1891615009618345e-01 5.3892613354370145e-01 0.0000000000000000e+00  1.2046405210074522e-01 5.4705952045853545e-01 0.0000000000000000e+00  1.1894029690762233e-01 5.4677918110857981e-01 0.0000000000000000e+00  1.2036038763549728e-01 5.5539400721970045e-01 0.0000000000000000e+00  1.1897467649874684e-01 5.5455079970221643e-01 0.0000000000000000e+00  1.2035414046262985e-01 5.6282371287650956e-01 0.0000000000000000e+00  1.1906885277149841e-01 5.6177790130187233e-01 0.0000000000000000e+00  1.2027814707501078e-01 5.7087686769876966e-01 0.0000000000000000e+00  1.1905803535426981e-01 5.6993664299931535e-01 0.0000000000000000e+00  1.2022135475169511e-01 5.7876480397429597e-01 0.0000000000000000e+00  1.1917078336284369e-01 5.7693847798326403e-01 0.0000000000000000e+00  1.2022021196440183e-01 5.8618027134914408e-01 0.0000000000000000e+00  1.1917025992738105e-01 5.8490573684351144e-01 0.0000000000000000e+00  1.2011416047251212e-01 5.9460069872402621e-01 0.0000000000000000e+00  1.1922912369261390e-01 5.9224601267276533e-01 0.0000000000000000e+00  1.2016932643253955e-01 6.0164626860050796e-01 0.0000000000000000e+00  1.1927797030510942e-01 5.9956520834762106e-01 0.0000000000000000e+00  1.2006626660976233e-01 6.1022776871419049e-01 0.0000000000000000e+00  1.1925114965143641e-01 6.0744017471655176e-01 0.0000000000000000e+00  1.2013140111539719e-01 6.1740074257315081e-01 0.0000000000000000e+00  1.1934673278446864e-01 6.1407884162248449e-01 0.0000000000000000e+00  1.2007992908884152e-01 6.2573260562305610e-01 0.0000000000000000e+00  1.1924782935831757e-01 6.2237048244089310e-01 0.0000000000000000e+00  1.2011691843063622e-01 6.3333713986360540e-01 0.0000000000000000e+00  1.1937050212162606e-01 6.2858547675457510e-01 0.0000000000000000e+00  1.2013288147414239e-01 6.4116127234086195e-01 0.0000000000000000e+00  1.1923280546043687e-01 6.3714136677222444e-01 0.0000000000000000e+00  1.2012030483901795e-01 6.4921547353370623e-01 0.0000000000000000e+00  1.1937286365588877e-01 6.4321749280353535e-01 0.0000000000000000e+00  1.2019599844433752e-01 6.5639486524780910e-01 0.0000000000000000e+00  1.1922496324767828e-01 6.5198824614313489e-01 0.0000000000000000e+00  1.2012185313295844e-01 6.6480721399379583e-01 0.0000000000000000e+00  1.1937844886864175e-01 6.5814564869085368e-01 0.0000000000000000e+00  1.2023749770075258e-01 6.7136261399938013e-01 0.0000000000000000e+00  1.1923447992239765e-01 6.6713141672715492e-01 0.0000000000000000e+00  1.2011812834160440e-01 6.7989282741432677e-01 0.0000000000000000e+00  1.1941969868561997e-01 6.7326187224228329e-01 0.0000000000000000e+00  1.2025361730450822e-01 6.8598476334515168e-01 0.0000000000000000e+00  1.1925493358032706e-01 6.8267572021137857e-01 0.0000000000000000e+00  1.2010677796215677e-01 6.9451183793227433e-01 0.0000000000000000e+00  1.1949201758329618e-01 6.8853516800539483e-01 0.0000000000000000e+00  1.2023291329088510e-01 7.0048351336839310e-01 0.0000000000000000e+00  1.1926085567099141e-01 6.9869839486209040e-01 0.0000000000000000e+00  1.2009855018286039e-01 7.0874473290398965e-01 0.0000000000000000e+00  1.1958288597466131e-01 7.0388480975042511e-01 0.0000000000000000e+00  1.2018890800337245e-01 7.1494134384359642e-01 0.0000000000000000e+00  1.1928853883690299e-01 7.1465700693669276e-01 0.0000000000000000e+00  1.2018110367943619e-01 7.2202369984067438e-01 0.0000000000000000e+00  1.1967994070944751e-01 7.1918187844694570e-01 0.0000000000000000e+00  1.2009522591162140e-01 7.2986772946489809e-01 0.0000000000000000e+00  1.1929388152627075e-01 7.3063881309618306e-01 0.0000000000000000e+00  1.2031952950464009e-01 7.3503731499613367e-01 0.0000000000000000e+00  1.1963724561928391e-01 7.3529333395498264e-01 0.0000000000000000e+00  1.2000549627729594e-01 7.4532945772868286e-01 0.0000000000000000e+00  1.1937055428947388e-01 7.4512225482997763e-01 0.0000000000000000e+00  1.2058437581707347e-01 7.4796173420693601e-01 0.0000000000000000e+00  1.1934527511444694e-01 7.5223698514324955e-01 0.0000000000000000e+00  1.2012247918130575e-01 7.6063692952214990e-01 0.0000000000000000e+00  1.1943810192539864e-01 7.5750626094747664e-01 0.0000000000000000e+00  1.2079613107550388e-01 7.6394151730511384e-01 0.0000000000000000e+00  1.1869790997646081e-01 7.6924992321904140e-01 0.0000000000000000e+00  1.2079254982740520e-01 7.7456663419193705e-01 0.0000000000000000e+00  1.1917709772962529e-01 7.6856262004723330e-01 0.0000000000000000e+00  1.2100558291474332e-01 7.8479996582849365e-01 0.0000000000000000e+00  1.1810498148481874e-01 7.8014178670904333e-01 0.0000000000000000e+00  1.2220226838160321e-01 7.8806317433564610e-01 0.0000000000000000e+00  1.1795417004604213e-01 7.8120144667062441e-01 0.0000000000000000e+00  1.2186446533135777e-01 8.0751147695476500e-01 0.0000000000000000e+00  1.1771845170059436e-01 7.8047255494661238e-01 0.0000000000000000e+00  1.2335452812920951e-01 8.1314363843444271e-01 0.0000000000000000e+00  1.1582070116750100e-01 7.9187729629101633e-01 0.0000000000000000e+00  1.2431283553036550e-01 8.2642586467075896e-01 0.0000000000000000e+00  1.1596816302802206e-01 7.8160230517066220e-01 0.0000000000000000e+00  1.2421710695903998e-01 8.5223727685106765e-01 0.0000000000000000e+00  1.1462220733141625e-01 7.8176207674283082e-01 0.0000000000000000e+00  1.2683691069801933e-01 8.5648708786480776e-01 0.0000000000000000e+00  1.1220129509381717e-01 7.8869822990656402e-01 0.0000000000000000e+00  1.2768939900149046e-01 8.7886211388916713e-01 0.0000000000000000e+00  1.1276757111254954e-01 7.6614345884223023e-01 0.0000000000000000e+00  1.2748987042897228e-01 9.1225104701905224e-01 0.0000000000000000e+00  1.1112778352311253e-01 7.6266508909550457e-01 0.0000000000000000e+00  1.3081914728920785e-01 9.1437235992942023e-01 0.0000000000000000e+00  1.0802956984047693e-01 7.7273659793917637e-01 0.0000000000000000e+00  1.3195979378378350e-01 9.3433874376081771e-01 0.0000000000000000e+00  1.0928154997707411e-01 7.4516151236115480e-01 0.0000000000000000e+00  1.2991412444526659e-01 9.7946417895127391e-01 0.0000000000000000e+00  1.0969095407215264e-01 7.3004619780755220e-01 0.0000000000000000e+00  1.3203468250871275e-01 9.8276762607461665e-01 0.0000000000000000e+00  1.0603665880646013e-01 7.5902699984122057e-01 0.0000000000000000e+00  1.3530839207025880e-01 9.6879538321603309e-01 0.0000000000000000e+00  1.0580612234705446e-01 7.6407670854234677e-01 0.0000000000000000e+00  1.3238302759916673e-01 1.0016279238958357e+00 0.0000000000000000e+00  1.1064843389816159e-01 7.3108997587483671e-01 0.0000000000000000e+00  1.2737730170543074e-01 1.0452017513337049e+00 0.0000000000000000e+00  1.1261344687222566e-01 7.3368933651421508e-01 0.0000000000000000e+00  1.2856026189956862e-01 1.0274843482894107e+00 0.0000000000000000e+00  1.0893161442512807e-01 7.9584387628265763e-01 0.0000000000000000e+00  1.3347660224031832e-01 9.7135096329929671e-01 0.0000000000000000e+00  1.0571293523282962e-01 8.5719011484076935e-01 0.0000000000000000e+00  1.3428596497080272e-01 9.4835276534596236e-01 0.0000000000000000e+00  1.0849437236042735e-01 8.6378311188031254e-01 0.0000000000000000e+00  1.2907428332269444e-01 9.7865180775871041e-01 0.0000000000000000e+00  1.1527849727905679e-01 8.3115288683782751e-01 0.0000000000000000e+00  1.2171818450127453e-01 1.0312012972199855e+00 0.0000000000000000e+00  1.2093803935004400e-01 8.0405863298074054e-01 0.0000000000000000e+00  1.1692685259962508e-01 1.0668822301365550e+00 0.0000000000000000e+00  1.2324395068787929e-01 8.0203810503832473e-01 0.0000000000000000e+00  1.1597974896368403e-01 1.0749754143729267e+00 0.0000000000000000e+00  1.2294156433660602e-01 8.1816989387776728e-01 0.0000000000000000e+00  1.1741985267039531e-01 1.0676008485082629e+00 0.0000000000000000e+00  1.2144054391519930e-01 8.4028425095838155e-01 0.0000000000000000e+00  1.1956465097279310e-01 1.0578169770945678e+00 0.0000000000000000e+00  1.1976728380729816e-01 8.6085687342716288e-01 0.0000000000000000e+00  1.2145893317221551e-01 1.0515817267762857e+00 0.0000000000000000e+00  1.1845329877150980e-01 8.7751831529330626e-01 0.0000000000000000e+00  1.2275667776670492e-01 1.0495768814874706e+00 0.0000000000000000e+00  1.1769033975416031e-01 8.9077482035297850e-01 0.0000000000000000e+00  1.2340220471043797e-01 1.0506996656857841e+00 0.0000000000000000e+00  1.1751206776733701e-01 9.0163045430427402e-01 0.0000000000000000e+00  1.2343159584216544e-01 1.0541779807797311e+00 0.0000000000000000e+00  1.1788637741872171e-01 9.1042023615946410e-01 0.0000000000000000e+00  1.2290477941201655e-01 1.0601610707976741e+00 0.0000000000000000e+00  1.1872208735350104e-01 9.1690228957540176e-01 0.0000000000000000e+00  1.2193952785047897e-01 1.0690500319699285e+00 0.0000000000000000e+00  1.1985707115880595e-01 9.2090585017576698e-01 0.0000000000000000e+00  1.2073741893470358e-01 1.0806652016450027e+00 0.0000000000000000e+00  1.2105292809727045e-01 9.2307767000162977e-01 0.0000000000000000e+00  1.1959067938573240e-01 1.0935576830724401e+00 0.0000000000000000e+00  1.2209753222591223e-01 9.2453615340254858e-01 0.0000000000000000e+00  1.1886770026453167e-01 1.1047222056950332e+00 0.0000000000000000e+00  1.2293459990337845e-01 9.2594823697452022e-01 0.0000000000000000e+00  1.1875584186099501e-01 1.1118929549044143e+00 0.0000000000000000e+00  1.2386616696412826e-01 9.2553311374208536e-01 0.0000000000000000e+00  1.1911066206949751e-01 1.1152735331670034e+00 0.0000000000000000e+00  1.2520368868205120e-01 9.2173808430519988e-01 0.0000000000000000e+00  1.2049850917174085e-01 1.1087138733812283e+00 0.0000000000000000e+00  1.2695750597040545e-01 9.1544933001896900e-01 0.0000000000000000e+00  1.2002683511270297e-01 1.1174940056362181e+00 0.0000000000000000e+00  1.3478847816536851e-01 8.5672369494979805e-01 0.0000000000000000e+00  1.0191371879343786e-01 1.2867754739852888e+00 0.0000000000000000e+00  1.1952540111070964e-01 1.0083210789944013e+00 0.0000000000000000e+00  1.1481654072776128e-01 1.1683921924197143e+00 0.0000000000000000e+00  1.2134671856482357e-01 1.0028164473560970e+00 0.0000000000000000e+00  1.1649901367631024e-01 1.1569180683797728e+00 0.0000000000000000e+00  1.2030510456363561e-01 1.0220946269236488e+00 0.0000000000000000e+00  1.2015831973302948e-01 1.1292451826265517e+00 0.0000000000000000e+00  1.1594722306963523e-01 1.0699593195982715e+00 0.0000000000000000e+00  1.2298254247887729e-01 1.1109727893260637e+00 0.0000000000000000e+00  1.1893006381064124e-01 1.0496451450361708e+00 0.0000000000000000e+00  1.1967810288326609e-01 1.1489822880756626e+00 0.0000000000000000e+00  1.2643800278337902e-01 9.8795769162841318e-01 0.0000000000000000e+00  1.1539070822718396e-01 1.1960157110309253e+00 0.0000000000000000e+00  1.3056482487221535e-01 9.5733931788373727e-01 0.0000000000000000e+00  1.1493536130138268e-01 1.2079818953651884e+00 0.0000000000000000e+00  1.1347999172871365e-01 1.1200184489190921e+00 0.0000000000000000e+00  1.2946859645336287e-01 1.0830351083458443e+00 0.0000000000000000e+00  1.1168399040258732e-01 1.1454210828861873e+00 0.0000000000000000e+00  1.2228232660339847e-01 1.1536458212830327e+00 0.0000000000000000e+00  1.2754608104876883e-01 1.0115727318134009e+00 0.0000000000000000e+00  1.1644735851188158e-01 1.2117404267259222e+00 0.0000000000000000e+00  1.3698669963546820e-01 9.3697948838888268e-01 0.0000000000000000e+00  1.177403