<?xml version="1.0"?>
<VTKFile type="UnstructuredGrid"  version="0.1"  >
<UnstructuredGrid>
<Piece  NumberOfPoints="801" NumberOfCells="800">
<Points>
<DataArray  type="Float64"  NumberOfComponents="3"  format="ascii">-5 0 0  -4.9875 0 0  -4.975 0 0  -4.9625 0 0  -4.95 0 0  -4.9375 0 0  -4.925 0 0  -4.9125 0 0  -4.9 0 0  -4.8875 0 0  -4.875 0 0  -4.8625 0 0  -4.85 0 0  -4.8375 0 0  -4.825 0 0  -4.8125 0 0  -4.8 0 0  -4.7875 0 0  -4.775 0 0  -4.7625 0 0  -4.75 0 0  -4.7375 0 0  -4.725 0 0  -4.7125 0 0  -4.7 0 0  -4.6875 0 0  -4.675 0 0  -4.6625 0 0  -4.65 0 0  -4.6375 0 0  -4.625 0 0  -4.6125 0 0  -4.6 0 0  -4.5875 0 0  -4.575 0 0  -4.5625 0 0  -4.55 0 0  -4.5375 0 0  -4.525 0 0  -4.5125 0 0  -4.5 0 0  -4.4875 0 0  -4.475 0 0  -4.4625 0 0  -4.45 0 0  -4.4375 0 0  -4.425 0 0  -4.4125 0 0  -4.4 0 0  -4.3875 0 0  -4.375 0 0  -4.3625 0 0  -4.35 0 0  -4.3375 0 0  -4.325 0 0  -4.3125 0 0  -4.3 0 0  -4.2875 0 0  -4.275 0 0  -4.2625 0 0  -4.25 0 0  -4.2375 0 0  -4.225 0 0  -4.2125 0 0  -4.2 0 0  -4.1875 0 0  -4.175 0 0  -4.1625 0 0  -4.15 0 0  -4.1375 0 0  -4.125 0 0  -4.1125 0 0  -4.1 0 0  -4.0875 0 0  -4.075 0 0  -4.0625 0 0  -4.05 0 0  -4.0375 0 0  -4.025 0 0  -4.0125 0 0  -4 0 0  -3.9875 0 0  -3.975 0 0  -3.9625 0 0  -3.95 0 0  -3.9375 0 0  -3.925 0 0  -3.9125 0 0  -3.9 0 0  -3.8875 0 0  -3.875 0 0  -3.8625 0 0  -3.85 0 0  -3.8375 0 0  -3.825 0 0  -3.8125 0 0  -3.8 0 0  -3.7875 0 0  -3.775 0 0  -3.7625 0 0  -3.75 0 0  -3.7375 0 0  -3.725 0 0  -3.7125 0 0  -3.7 0 0  -3.6875 0 0  -3.675 0 0  -3.6625 0 0  -3.65 0 0  -3.6375 0 0  -3.625 0 0  -3.6125 0 0  -3.6 0 0  -3.5875 0 0  -3.575 0 0  -3.5625 0 0  -3.55 0 0  -3.5375 0 0  -3.525 0 0  -3.5125 0 0  -3.5 0 0  -3.4875 0 0  -3.475 0 0  -3.4625 0 0  -3.45 0 0  -3.4375 0 0  -3.425 0 0  -3.4125 0 0  -3.4 0 0  -3.3875 0 0  -3.375 0 0  -3.3625 0 0  -3.35 0 0  -3.3375 0 0  -3.325 0 0  -3.3125 0 0  -3.3 0 0  -3.2875 0 0  -3.275 0 0  -3.2625 0 0  -3.25 0 0  -3.2375 0 0  -3.225 0 0  -3.2125 0 0  -3.2 0 0  -3.1875 0 0  -3.175 0 0  -3.1625 0 0  -3.15 0 0  -3.1375 0 0  -3.125 0 0  -3.1125 0 0  -3.1 0 0  -3.0875 0 0  -3.075 0 0  -3.0625 0 0  -3.05 0 0  -3.0375 0 0  -3.025 0 0  -3.0125 0 0  -3 0 0  -2.9875 0 0  -2.975 0 0  -2.9625 0 0  -2.95 0 0  -2.9375 0 0  -2.925 0 0  -2.9125 0 0  -2.9 0 0  -2.8875 0 0  -2.875 0 0  -2.8625 0 0  -2.85 0 0  -2.8375 0 0  -2.825 0 0  -2.8125 0 0  -2.8 0 0  -2.7875 0 0  -2.775 0 0  -2.7625 0 0  -2.75 0 0  -2.7375 0 0  -2.725 0 0  -2.7125 0 0  -2.7 0 0  -2.6875 0 0  -2.675 0 0  -2.6625 0 0  -2.65 0 0  -2.6375 0 0  -2.625 0 0  -2.6125 0 0  -2.6 0 0  -2.5875 0 0  -2.575 0 0  -2.5625 0 0  -2.55 0 0  -2.5375 0 0  -2.525 0 0  -2.5125 0 0  -2.5 0 0  -2.4875 0 0  -2.475 0 0  -2.4625 0 0  -2.45 0 0  -2.4375 0 0  -2.425 0 0  -2.4125 0 0  -2.4 0 0  -2.3875 0 0  -2.375 0 0  -2.3625 0 0  -2.35 0 0  -2.3375 0 0  -2.325 0 0  -2.3125 0 0  -2.3 0 0  -2.2875 0 0  -2.275 0 0  -2.2625 0 0  -2.25 0 0  -2.2375 0 0  -2.225 0 0  -2.2125 0 0  -2.2 0 0  -2.1875 0 0  -2.175 0 0  -2.1625 0 0  -2.15 0 0  -2.1375 0 0  -2.125 0 0  -2.1125 0 0  -2.1 0 0  -2.0875 0 0  -2.075 0 0  -2.0625 0 0  -2.05 0 0  -2.0375 0 0  -2.025 0 0  -2.0125 0 0  -2 0 0  -1.9875 0 0  -1.975 0 0  -1.9625 0 0  -1.95 0 0  -1.9375 0 0  -1.925 0 0  -1.9125 0 0  -1.9 0 0  -1.8875 0 0  -1.875 0 0  -1.8625 0 0  -1.85 0 0  -1.8375 0 0  -1.825 0 0  -1.8125 0 0  -1.8 0 0  -1.7875 0 0  -1.775 0 0  -1.7625 0 0  -1.75 0 0  -1.7375 0 0  -1.725 0 0  -1.7125 0 0  -1.7 0 0  -1.6875 0 0  -1.675 0 0  -1.6625 0 0  -1.65 0 0  -1.6375 0 0  -1.625 0 0  -1.6125 0 0  -1.6 0 0  -1.5875 0 0  -1.575 0 0  -1.5625 0 0  -1.55 0 0  -1.5375 0 0  -1.525 0 0  -1.5125 0 0  -1.5 0 0  -1.4875 0 0  -1.475 0 0  -1.4625 0 0  -1.45 0 0  -1.4375 0 0  -1.425 0 0  -1.4125 0 0  -1.4 0 0  -1.3875 0 0  -1.375 0 0  -1.3625 0 0  -1.35 0 0  -1.3375 0 0  -1.325 0 0  -1.3125 0 0  -1.3 0 0  -1.2875 0 0  -1.275 0 0  -1.2625 0 0  -1.25 0 0  -1.2375 0 0  -1.225 0 0  -1.2125 0 0  -1.2 0 0  -1.1875 0 0  -1.175 0 0  -1.1625 0 0  -1.15 0 0  -1.1375 0 0  -1.125 0 0  -1.1125 0 0  -1.1 0 0  -1.0875 0 0  -1.075 0 0  -1.0625 0 0  -1.05 0 0  -1.0375 0 0  -1.025 0 0  -1.0125 0 0  -1 0 0  -0.9874999999999998 0 0  -0.9749999999999996 0 0  -0.9625000000000004 0 0  -0.9500000000000002 0 0  -0.9375 0 0  -0.9249999999999998 0 0  -0.9124999999999996 0 0  -0.9000000000000004 0 0  -0.8875000000000002 0 0  -0.875 0 0  -0.8624999999999998 0 0  -0.8499999999999996 0 0  -0.8375000000000004 0 0  -0.8250000000000002 0 0  -0.8125 0 0  -0.7999999999999998 0 0  -0.7874999999999996 0 0  -0.7750000000000004 0 0  -0.7625000000000002 0 0  -0.75 0 0  -0.7374999999999998 0 0  -0.7249999999999996 0 0  -0.7125000000000004 0 0  -0.7000000000000002 0 0  -0.6875 0 0  -0.6749999999999998 0 0  -0.6624999999999996 0 0  -0.6500000000000004 0 0  -0.6375000000000002 0 0  -0.625 0 0  -0.6124999999999998 0 0  -0.5999999999999996 0 0  -0.5875000000000004 0 0  -0.5750000000000002 0 0  -0.5625 0 0  -0.5499999999999998 0 0  -0.5374999999999996 0 0  -0.5250000000000004 0 0  -0.5125000000000002 0 0  -0.5 0 0  -0.4874999999999998 0 0  -0.4749999999999996 0 0  -0.4625000000000004 0 0  -0.4500000000000002 0 0  -0.4375 0 0  -0.4249999999999998 0 0  -0.4124999999999996 0 0  -0.4000000000000004 0 0  -0.3875000000000002 0 0  -0.375 0 0  -0.3624999999999998 0 0  -0.3499999999999996 0 0  -0.3375000000000004 0 0  -0.3250000000000002 0 0  -0.3125 0 0  -0.2999999999999998 0 0  -0.2874999999999996 0 0  -0.2750000000000004 0 0  -0.2625000000000002 0 0  -0.25 0 0  -0.2374999999999998 0 0  -0.2249999999999996 0 0  -0.2125000000000004 0 0  -0.2000000000000002 0 0  -0.1875 0 0  -0.1749999999999998 0 0  -0.1624999999999996 0 0  -0.1500000000000004 0 0  -0.1375000000000002 0 0  -0.125 0 0  -0.1124999999999998 0 0  -0.09999999999999964 0 0  -0.08750000000000036 0 0  -0.07500000000000018 0 0  -0.0625 0 0  -0.04999999999999982 0 0  -0.03749999999999964 0 0  -0.02500000000000036 0 0  -0.01250000000000018 0 0  0 0 0  0.01250000000000018 0 0  0.02500000000000036 0 0  0.03749999999999964 0 0  0.04999999999999982 0 0  0.0625 0 0  0.07500000000000018 0 0  0.08750000000000036 0 0  0.09999999999999964 0 0  0.1124999999999998 0 0  0.125 0 0  0.1375000000000002 0 0  0.1500000000000004 0 0  0.1624999999999996 0 0  0.1749999999999998 0 0  0.1875 0 0  0.2000000000000002 0 0  0.2125000000000004 0 0  0.2249999999999996 0 0  0.2374999999999998 0 0  0.25 0 0  0.2625000000000002 0 0  0.2750000000000004 0 0  0.2874999999999996 0 0  0.2999999999999998 0 0  0.3125 0 0  0.3250000000000002 0 0  0.3375000000000004 0 0  0.3499999999999996 0 0  0.3624999999999998 0 0  0.375 0 0  0.3875000000000002 0 0  0.4000000000000004 0 0  0.4124999999999996 0 0  0.4249999999999998 0 0  0.4375 0 0  0.4500000000000002 0 0  0.4625000000000004 0 0  0.4749999999999996 0 0  0.4874999999999998 0 0  0.5 0 0  0.5125000000000002 0 0  0.5250000000000004 0 0  0.5374999999999996 0 0  0.5499999999999998 0 0  0.5625 0 0  0.5750000000000002 0 0  0.5875000000000004 0 0  0.5999999999999996 0 0  0.6124999999999998 0 0  0.625 0 0  0.6375000000000002 0 0  0.6500000000000004 0 0  0.6624999999999996 0 0  0.6749999999999998 0 0  0.6875 0 0  0.7000000000000002 0 0  0.7125000000000004 0 0  0.7249999999999996 0 0  0.7374999999999998 0 0  0.75 0 0  0.7625000000000002 0 0  0.7750000000000004 0 0  0.7874999999999996 0 0  0.7999999999999998 0 0  0.8125 0 0  0.8250000000000002 0 0  0.8375000000000004 0 0  0.8499999999999996 0 0  0.8624999999999998 0 0  0.875 0 0  0.8875000000000002 0 0  0.9000000000000004 0 0  0.9124999999999996 0 0  0.9249999999999998 0 0  0.9375 0 0  0.9500000000000002 0 0  0.9625000000000004 0 0  0.9749999999999996 0 0  0.9874999999999998 0 0  1 0 0  1.0125 0 0  1.025 0 0  1.0375 0 0  1.05 0 0  1.0625 0 0  1.075 0 0  1.0875 0 0  1.1 0 0  1.1125 0 0  1.125 0 0  1.1375 0 0  1.15 0 0  1.1625 0 0  1.175 0 0  1.1875 0 0  1.2 0 0  1.2125 0 0  1.225 0 0  1.2375 0 0  1.25 0 0  1.2625 0 0  1.275 0 0  1.2875 0 0  1.3 0 0  1.3125 0 0  1.325 0 0  1.3375 0 0  1.35 0 0  1.3625 0 0  1.375 0 0  1.3875 0 0  1.4 0 0  1.4125 0 0  1.425 0 0  1.4375 0 0  1.45 0 0  1.4625 0 0  1.475 0 0  1.4875 0 0  1.5 0 0  1.5125 0 0  1.525 0 0  1.5375 0 0  1.55 0 0  1.5625 0 0  1.575 0 0  1.5875 0 0  1.6 0 0  1.6125 0 0  1.625 0 0  1.6375 0 0  1.65 0 0  1.6625 0 0  1.675 0 0  1.6875 0 0  1.7 0 0  1.7125 0 0  1.725 0 0  1.7375 0 0  1.75 0 0  1.7625 0 0  1.775 0 0  1.7875 0 0  1.8 0 0  1.8125 0 0  1.825 0 0  1.8375 0 0  1.85 0 0  1.8625 0 0  1.875 0 0  1.8875 0 0  1.9 0 0  1.9125 0 0  1.925 0 0  1.9375 0 0  1.95 0 0  1.9625 0 0  1.975 0 0  1.9875 0 0  2 0 0  2.0125 0 0  2.025 0 0  2.0375 0 0  2.05 0 0  2.0625 0 0  2.075 0 0  2.0875 0 0  2.1 0 0  2.1125 0 0  2.125 0 0  2.1375 0 0  2.15 0 0  2.1625 0 0  2.175 0 0  2.1875 0 0  2.2 0 0  2.2125 0 0  2.225 0 0  2.2375 0 0  2.25 0 0  2.2625 0 0  2.275 0 0  2.2875 0 0  2.3 0 0  2.3125 0 0  2.325 0 0  2.3375 0 0  2.35 0 0  2.3625 0 0  2.375 0 0  2.3875 0 0  2.4 0 0  2.4125 0 0  2.425 0 0  2.4375 0 0  2.45 0 0  2.4625 0 0  2.475 0 0  2.4875 0 0  2.5 0 0  2.5125 0 0  2.525 0 0  2.5375 0 0  2.55 0 0  2.5625 0 0  2.575 0 0  2.5875 0 0  2.6 0 0  2.6125 0 0  2.625 0 0  2.6375 0 0  2.65 0 0  2.6625 0 0  2.675 0 0  2.6875 0 0  2.7 0 0  2.7125 0 0  2.725 0 0  2.7375 0 0  2.75 0 0  2.7625 0 0  2.775 0 0  2.7875 0 0  2.8 0 0  2.8125 0 0  2.825 0 0  2.8375 0 0  2.85 0 0  2.8625 0 0  2.875 0 0  2.8875 0 0  2.9 0 0  2.9125 0 0  2.925 0 0  2.9375 0 0  2.95 0 0  2.9625 0 0  2.975 0 0  2.9875 0 0  3 0 0  3.012499999999999 0 0  3.025 0 0  3.0375 0 0  3.050000000000001 0 0  3.0625 0 0  3.074999999999999 0 0  3.0875 0 0  3.1 0 0  3.112500000000001 0 0  3.125 0 0  3.137499999999999 0 0  3.15 0 0  3.1625 0 0  3.175000000000001 0 0  3.1875 0 0  3.199999999999999 0 0  3.2125 0 0  3.225 0 0  3.237500000000001 0 0  3.25 0 0  3.262499999999999 0 0  3.275 0 0  3.2875 0 0  3.300000000000001 0 0  3.3125 0 0  3.324999999999999 0 0  3.3375 0 0  3.35 0 0  3.362500000000001 0 0  3.375 0 0  3.387499999999999 0 0  3.4 0 0  3.4125 0 0  3.425000000000001 0 0  3.4375 0 0  3.449999999999999 0 0  3.4625 0 0  3.475 0 0  3.4875
[...]
<PointData  Vectors="(h, u)"> 
<DataArray  type="Float64"  Name="(h, u)"  NumberOfComponents="3" format="ascii">1.7832007498946134e-01 0.0000000000000000e+00 0.0000000000000000e+00  1.7824089535347148e-01 5.5688424116272870e-03 0.0000000000000000e+00  1.7831831484376801e-01 1.1124016097993687e-02 0.0000000000000000e+00  1.7823694791094813e-01 1.6706679035651970e-02 0.0000000000000000e+00  1.7831302635851481e-01 2.2248696868658900e-02 0.0000000000000000e+00  1.7822907024043588e-01 2.7844968335931728e-02 0.0000000000000000e+00  1.7830418564489436e-01 3.3374694974266907e-02 0.0000000000000000e+00  1.7821729411364995e-01 3.8984006732537053e-02 0.0000000000000000e+00  1.7829175384103901e-01 4.4502642657568932e-02 0.0000000000000000e+00  1.7820166098958204e-01 5.0124093847722012e-02 0.0000000000000000e+00  1.7827567887445028e-01 5.5633148018046433e-02 0.0000000000000000e+00  1.7818221577884144e-01 6.1265550668158947e-02 0.0000000000000000e+00  1.7825589850717108e-01 6.6766793424294313e-02 0.0000000000000000e+00  1.7815900036175147e-01 7.2408744097662209e-02 0.0000000000000000e+00  1.7823234497782581e-01 7.7904130966437238e-02 0.0000000000000000e+00  1.7813204799850071e-01 8.3554110377853916e-02 0.0000000000000000e+00  1.7820495120194121e-01 8.9045670364209045e-02 0.0000000000000000e+00  1.7810137944294793e-01 9.4702170061899474e-02 0.0000000000000000e+00  1.7817365785612321e-01 1.0019185893830751e-01 0.0000000000000000e+00  1.7806700094506275e-01 1.0585353110868509e-01 0.0000000000000000e+00  1.7813841993564528e-01 1.1134305967412039e-01 0.0000000000000000e+00  1.7802890364488191e-01 1.1700888217845191e-01 0.0000000000000000e+00  1.7809921091042197e-01 1.2249953873949916e-01 0.0000000000000000e+00  1.7798706350431043e-01 1.2816898195201562e-01 0.0000000000000000e+00  1.7805602282161398e-01 1.3366147430060363e-01 0.0000000000000000e+00  1.7794144119930155e-01 1.3933464936492793e-01 0.0000000000000000e+00  1.7800886173964739e-01 1.4482899217954961e-01 0.0000000000000000e+00  1.7789198227171391e-01 1.5050675384060411e-01 0.0000000000000000e+00  1.7795773965504977e-01 1.5600222262568977e-01 0.0000000000000000e+00  1.7783861881357008e-01 1.6168619748518115e-01 0.0000000000000000e+00  1.7790266533373830e-01 1.6718136184059712e-01 0.0000000000000000e+00  1.7778127422410411e-01 1.7287387879314786e-01 0.0000000000000000e+00  1.7784363704615108e-01 1.7836671869710558e-01 0.0000000000000000e+00  1.7771987153613919e-01 1.8407063442200905e-01 0.0000000000000000e+00  1.7778063894336835e-01 1.8955873480613666e-01 0.0000000000000000e+00  1.7765434361783014e-01 1.9527717106777506e-01 0.0000000000000000e+00  1.7771364070578541e-01 2.0075798126041997e-01 0.0000000000000000e+00  1.7758464136955551e-01 2.0649401509067530e-01 0.0000000000000000e+00  1.7764259830086634e-01 2.1196514806123520e-01 0.0000000000000000e+00  1.7751073552618302e-01 2.1772151101612777e-01 0.0000000000000000e+00  1.7756745372813226e-01 2.2318104158756227e-01 0.0000000000000000e+00  1.7743260994232574e-01 2.2895988322214930e-01 0.0000000000000000e+00  1.7748813388157786e-01 2.3440658867751571e-01 0.0000000000000000e+00  1.7735024862636109e-01 2.4020934282400466e-01 0.0000000000000000e+00  1.7740455159287527e-01 2.4564282424307346e-01 0.0000000000000000e+00  1.7726362266256768e-01 2.5147019342897869e-01 0.0000000000000000e+00  1.7731661271600688e-01 2.5689083365039411e-01 0.0000000000000000e+00  1.7717268340921252e-01 2.6274288803723433e-01 0.0000000000000000e+00  1.7722422982482053e-01 2.6815164576894440e-01 0.0000000000000000e+00  1.7707736393641757e-01 2.7402802260207287e-01 0.0000000000000000e+00  1.7712733693233518e-01 2.7942611855787036e-01 0.0000000000000000e+00  1.7697758434700853e-01 2.8532629897355449e-01 0.0000000000000000e+00  1.7702589541213110e-01 2.9071489056696515e-01 0.0000000000000000e+00  1.7687325390600225e-01 2.9663851026042559e-01 0.0000000000000000e+00  1.7691988420537091e-01 3.0201845013564677e-01 0.0000000000000000e+00  1.7676426728414468e-01 3.0796556908882272e-01 0.0000000000000000e+00  1.7680927754220191e-01 3.1333729854087844e-01 0.0000000000000000e+00  1.7665050073020261e-01 3.1930853588080654e-01 0.0000000000000000e+00  1.7669402380916302e-01 3.2467210581332878e-01 0.0000000000000000e+00  1.7653181834970519e-01 3.3066857169451291e-01 0.0000000000000000e+00  1.7657404013854805e-01 3.3602375073683644e-01 0.0000000000000000e+00  1.7640809182509432e-01 3.4204679095444845e-01 0.0000000000000000e+00  1.7644922481598735e-01 3.4739322928552829e-01 0.0000000000000000e+00  1.7627922174181845e-01 3.5344410224508449e-01 0.0000000000000000e+00  1.7631947306804122e-01 3.5878153879503361e-01 0.0000000000000000e+00  1.7614514018025151e-01 3.6486118867542966e-01 0.0000000000000000e+00  1.7618467821229636e-01 3.7018967184069651e-01 0.0000000000000000e+00  1.7600578517914178e-01 3.7629869784225745e-01 0.0000000000000000e+00  1.7604471589769422e-01 3.8161873651437650e-01 0.0000000000000000e+00  1.7586106324183293e-01 3.8775752090021132e-01 0.0000000000000000e+00  1.7589943176473821e-01 3.9307005128155009e-01 0.0000000000000000e+00  1.7571083390785475e-01 3.9923890700908660e-01 0.0000000000000000e+00  1.7574865640324011e-01 4.0454503604275921e-01 0.0000000000000000e+00  1.7555493437219025e-01 4.1074427884076481e-01 0.0000000000000000e+00  1.7559224140652388e-01 4.1604494542374043e-01 0.0000000000000000e+00  1.7539321939997762e-01 4.2227493365509283e-01 0.0000000000000000e+00  1.7543007746817904e-01 4.2757073577865695e-01 0.0000000000000000e+00  1.7522557057880500e-01 4.3383197306604776e-01 0.0000000000000000e+00  1.7526206310852502e-01 4.3912330075729133e-01 0.0000000000000000e+00  1.7505185728444225e-01 4.4541659346340129e-01 0.0000000000000000e+00  1.7508804319785429e-01 4.5070393259442049e-01 0.0000000000000000e+00  1.7487189289814223e-01 4.5703041208573164e-01 0.0000000000000000e+00  1.7490778883640964e-01 4.6231447420048738e-01 0.0000000000000000e+00  1.7468545438883387e-01 4.6867531940040774e-01 0.0000000000000000e+00  1.7472105745306879e-01 4.7395687089264282e-01 0.0000000000000000e+00  1.7449235383401929e-01 4.8035294274095158e-01 0.0000000000000000e+00  1.7452766559796806e-01 4.8563262657218698e-01 0.0000000000000000e+00  1.7429247057478212e-01 4.9206440433569398e-01 0.0000000000000000e+00  1.7432748038131055e-01 4.9734286880806305e-01 0.0000000000000000e+00  1.7408568480380396e-01 5.0381081779827952e-01 0.0000000000000000e+00  1.7412031583094983e-01 5.0908912681296925e-01 0.0000000000000000e+00  1.7387176819500610e-01 5.1559410750496215e-01 0.0000000000000000e+00  1.7390586500171248e-01 5.2087384218657862e-01 0.0000000000000000e+00  1.7365040594979697e-01 5.2741684328223692e-01 0.0000000000000000e+00  1.7368380890103793e-01 5.3269955306992789e-01 0.0000000000000000e+00  1.7342135738323891e-01 5.3928103502404146e-01 0.0000000000000000e+00  1.7345395240618067e-01 5.4456787437870735e-01 0.0000000000000000e+00  1.7318451753116351e-01 5.5118766912579698e-01 0.0000000000000000e+00  1.7321619036085600e-01 5.5647975272270978e-01 0.0000000000000000e+00  1.7293979361582879e-01 5.6313763611373746e-01 0.0000000000000000e+00  1.7297031632150875e-01 5.6843690534840008e-01 0.0000000000000000e+00  1.7268689626227351e-01 5.7513330172136190e-01 0.0000000000000000e+00  1.7271590639241993e-01 5.8044269648240165e-01 0.0000000000000000e+00  1.7242543149312844e-01 5.8717781663472468e-01 0.0000000000000000e+00  1.7245263513605763e-01 5.9249976002469684e-01 0.0000000000000000e+00  1.7215528354602611e-01 5.9927223389647943e-01 0.0000000000000000e+00  1.7218048712056763e-01 6.0460840373635305e-01 0.0000000000000000e+00  1.7187654027552279e-01 6.1141606945289506e-01 0.0000000000000000e+00  1.7189948865418456e-01 6.1676862892909967e-01 0.0000000000000000e+00  1.7158919926709576e-01 6.2360951949794141e-01 0.0000000000000000e+00  1.7160944502218131e-01 6.2898211251810066e-01 0.0000000000000000e+00  1.7129293570745463e-01 6.3585521917197196e-01 0.0000000000000000e+00  1.7130989656296922e-01 6.4125253862016052e-01 0.0000000000000000e+00  1.7098754491528223e-01 6.4815490629356987e-01 0.0000000000000000e+00  1.7100104273113817e-01 6.5357860398932821e-01 0.0000000000000000e+00  1.7067373068361671e-01 6.6050346156853190e-01 0.0000000000000000e+00  1.7068360266579435e-01 6.6595505369978292e-01 0.0000000000000000e+00  1.7035202438870012e-01 6.7289709279687759e-01 0.0000000000000000e+00  1.7035775978359410e-01 6.7838065647292534e-01 0.0000000000000000e+00  1.7002265078816992e-01 6.8533436972666362e-01 0.0000000000000000e+00  1.7002369031975670e-01 6.9085418523323638e-01 0.0000000000000000e+00  1.6968584925585800e-01 6.9781381234551676e-01 0.0000000000000000e+00  1.6968173913796794e-01 7.0337305930084815e-01 0.0000000000000000e+00  1.6934295590701756e-01 7.1032568634725091e-01 0.0000000000000000e+00  1.6933431140345534e-01 7.1591893068135615e-01 0.0000000000000000e+00  1.6899675226507035e-01 7.2284935132710204e-01 0.0000000000000000e+00  1.6898284120073723e-01 7.2848069291852591e-01 0.0000000000000000e+00  1.6864738172419305e-01 7.3538433799681091e-01 0.0000000000000000e+00  1.6862757591596472e-01 7.4105612054270920e-01 0.0000000000000000e+00  1.6829692654429701e-01 7.4791552411990359e-01 0.0000000000000000e+00  1.6827154992623788e-01 7.5362158708222571e-01 0.0000000000000000e+00  1.6794811822538128e-01 7.6042293118494719e-01 0.0000000000000000e+00  1.6791734503822345e-01 7.6615674397542322e-01 0.0000000000000000e+00  1.6760524894779402e-01 7.7287471034268596e-01 0.0000000000000000e+00  1.6756974706647035e-01 7.7862426392545359e-01 0.0000000000000000e+00  1.6726989917763821e-01 7.8525974806564780e-01 0.0000000000000000e+00  1.6722639970571235e-01 7.9104136756617349e-01 0.0000000000000000e+00  1.6694203521931728e-01 7.9757922398787562e-01 0.0000000000000000e+00  1.6689466130499450e-01 8.0335095057287520e-01 0.0000000000000000e+00  1.6663139258539919e-01 8.0975935748254624e-01 0.0000000000000000e+00  1.6657700489952401e-01 8.1553345879299000e-01 0.0000000000000000e+00  1.6633395652365365e-01 8.2183145678378489e-01 0.0000000000000000e+00  1.6627335725643735e-01 8.2758912068511392e-01 0.0000000000000000e+00  1.6605526767819725e-01 8.3375316779864461e-01 0.0000000000000000e+00  1.6598483865977878e-01 8.3950947192137937e-01 0.0000000000000000e+00  1.6579112545975230e-01 8.4555643449641138e-01 0.0000000000000000e+00  1.6571653386413021e-01 8.5125607773219636e-01 0.0000000000000000e+00  1.6555527838766204e-01 8.5713465950925227e-01 0.0000000000000000e+00  1.6546674201579772e-01 8.6284338108278935e-01 0.0000000000000000e+00  1.6532571695803827e-01 8.6865564130077411e-01 0.0000000000000000e+00  1.6522973524857973e-01 8.7431740641183253e-01 0.0000000000000000e+00  1.6512736850441925e-01 8.7992523752473728e-01 0.0000000000000000e+00  1.6501848023145932e-01 8.8558104650378799e-01 0.0000000000000000e+00  1.6493580043408493e-01 8.9112894183072033e-01 0.0000000000000000e+00  1.6481805995928675e-01 8.9675243808898353e-01 0.0000000000000000e+00  1.6476937201830927e-01 9.0212192168688443e-01 0.0000000000000000e+00  1.6463209199100695e-01 9.0780745082317149e-01 0.0000000000000000e+00  1.6460691063654229e-01 9.1306392350151699e-01 0.0000000000000000e+00  1.6447379594340805e-01 9.1864787076445864e-01 0.0000000000000000e+00  1.6447084297955988e-01 9.2377836205985875e-01 0.0000000000000000e+00  1.6430400481820850e-01 9.2957997427537631e-01 0.0000000000000000e+00  1.6433137247197802e-01 9.3449170971209483e-01 0.0000000000000000e+00  1.6418425472037221e-01 9.4013187016808464e-01 0.0000000000000000e+00  1.6421055708742938e-01 9.4503098882523040e-01 0.0000000000000000e+00  1.6403407150494823e-01 9.5092822262378951e-01 0.0000000000000000e+00  1.6410387978744251e-01 9.5542861376259192e-01 0.0000000000000000e+00  1.6393043624086365e-01 9.6137606000016240e-01 0.0000000000000000e+00  1.6397873652580852e-01 9.6593575057717318e-01 0.0000000000000000e+00  1.6382929252222739e-01 9.7181673751008080e-01 0.0000000000000000e+00  1.6389394615610925e-01 9.7609738319877803e-01 0.0000000000000000e+00  1.6370290723379902e-01 9.8246482822232939e-01 0.0000000000000000e+00  1.6380033271533495e-01 9.8629470882787351e-01 0.0000000000000000e+00  1.6365480063894872e-01 9.9251797383412144e-01 0.0000000000000000e+00  1.6366859586326077e-01 9.9675715019685696e-01 0.0000000000000000e+00  1.6356070175822479e-01 1.0029351520439358e+00 0.0000000000000000e+00  1.6363258964445218e-01 1.0064513228879075e+00 0.0000000000000000e+00  1.6345374976471636e-01 1.0134573006963561e+00 0.0000000000000000e+00  1.6353217946423526e-01 1.0166207967070746e+00 0.0000000000000000e+00  1.6343608968715806e-01 1.0232891183388910e+00 0.0000000000000000e+00  1.6339561963459193e-01 1.0270516615925813e+00 0.0000000000000000e+00  1.6340070856441336e-01 1.0332548321306381e+00 0.0000000000000000e+00  1.6335009281933080e-01 1.0367631261641406e+00 0.0000000000000000e+00  1.6325331167535140e-01 1.0440812008277300e+00 0.0000000000000000e+00  1.6336040571943844e-01 1.0460315202950838e+00 0.0000000000000000e+00  1.6318372646549856e-01 1.0542937663528238e+00 0.0000000000000000e+00  1.6322133234155381e-01 1.0564519803975057e+00 0.0000000000000000e+00  1.6323162402048480e-01 1.0635803395496755e+00 0.0000000000000000e+00  1.6307538172753977e-01 1.0669240831018292e+00 0.0000000000000000e+00  1.6320363320848907e-01 1.0734365832173907e+00 0.0000000000000000e+00  1.6306459579463345e-01 1.0763490523796415e+00 0.0000000000000000e+00  1.6300409637125129e-01 1.0846025067372733e+00 0.0000000000000000e+00  1.6324284132637934e-01 1.0843103870922346e+00 0.0000000000000000e+00  1.6266985479063897e-01 1.0967920182424014e+00 0.0000000000000000e+00  1.6345157705370722e-01 1.0920382600662353e+00 0.0000000000000000e+00  1.6240371941349746e-01 1.1084317334148071e+00 0.0000000000000000e+00  1.6355893778244848e-01 1.1005568719442373e+00 0.0000000000000000e+00  1.6223613909636578e-01 1.1192847164843103e+00 0.0000000000000000e+00  1.6357256183116656e-01 1.1098075181307259e+00 0.0000000000000000e+00  1.6218300636537369e-01 1.1292273107797510e+00 0.0000000000000000e+00  1.6347236507447585e-01 1.1199460650612174e+00 0.0000000000000000e+00  1.6221476794440784e-01 1.1384886503597467e+00 0.0000000000000000e+00  1.6334366960645980e-01 1.1303101302752137e+00 0.0000000000000000e+00  1.6224288597544209e-01 1.1477567098003021e+00 0.0000000000000000e+00  1.6321833946608513e-01 1.1406514297989134e+00 0.0000000000000000e+00  1.6228689672918964e-01 1.1568809612474362e+00 0.0000000000000000e+00  1.6307551704709627e-01 1.1511309852612472e+00 0.0000000000000000e+00  1.6232882999125078e-01 1.1660019337611129e+00 0.0000000000000000e+00  1.6296295530354707e-01 1.1613771636940811e+00 0.0000000000000000e+00  1.6233126293812725e-01 1.1754115609673701e+00 0.0000000000000000e+00  1.6287744217301878e-01 1.1714137188407818e+00 0.0000000000000000e+00  1.6233099373838902e-01 1.1848252909229753e+00 0.0000000000000000e+00  1.6278212377469106e-01 1.1815259765586335e+00 0.0000000000000000e+00  1.6233770313875243e-01 1.1941687697834431e+00 0.0000000000000000e+00  1.6269617166611577e-01 1.1915643833516005e+00 0.0000000000000000e+00  1.6232131738474420e-01 1.2036764683297576e+00 0.0000000000000000e+00  1.6263597312248637e-01 1.2014008744913638e+00 0.0000000000000000e+00  1.6228782038443246e-01 1.2133027626687445e+00 0.0000000000000000e+00  1.6257893789331751e-01 1.2112102974546746e+00 0.0000000000000000e+00  1.6226195850930220e-01 1.2228559738244880e+00 0.0000000000000000e+00  1.6251146461502128e-01 1.2210979567852871e+00 0.0000000000000000e+00  1.6224265979128483e-01 1.2323448479761077e+00 0.0000000000000000e+00  1.6244542672609896e-01 1.2309712928866998e+00 0.0000000000000000e+00  1.6221495640432040e-01 1.2418861510833912e+00 0.0000000000000000e+00  1.6239130248907960e-01 1.2407485259231992e+00 0.0000000000000000e+00  1.6217545897072291e-01 1.2515066896614473e+00 0.0000000000000000e+00  1.6234527341232771e-01 1.2504590030152980e+00 0.0000000000000000e+00  1.6213179725859930e-01 1.2611475466979714e+00 0.0000000000000000e+00  1.6229888769655984e-01 1.2601681747102287e+00 0.0000000000000000e+00  1.6209048222558559e-01 1.2707584097873035e+00 0.0000000000000000e+00  1.6224857001901474e-01 1.2699036504408832e+00 0.0000000000000000e+00  1.6205206256577198e-01 1.2803352855264991e+00 0.0000000000000000e+00  1.6219590074023554e-01 1.2796529638534258e+00 0.0000000000000000e+00  1.6201370751820857e-01 1.2899004769989373e+00 0.0000000000000000e+00  1.6214388419662701e-01 1.2893925440856677e+00 0.0000000000000000e+00  1.6197268895698247e-01 1.2994755302008054e+00 0.0000000000000000e+00  1.6209444335928472e-01 1.2991071842080804e+00 0.0000000000000000e+00  1.6192776936169892e-01 1.3090704420310810e+00 0.0000000000000000e+00  1.6204798770583390e-01 1.3087934013051805e+00 0.0000000000000000e+00  1.6187901817074596e-01 1.3186850882293955e+00 0.0000000000000000e+00  1.6200394573586405e-01 1.3184552927662563e+00 0.0000000000000000e+00  1.6182715296068662e-01 1.3283143523545997e+00 0.0000000000000000e+00  1.6196138189716239e-01 1.3280997304855207e+00 0.0000000000000000e+00  1.6177306533731819e-01 1.3379518227505516e+00 0.0000000000000000e+00  1.6191934785241727e-01 1.3377336185930688e+00 0.0000000000000000e+00  1.6171750221530459e-01 1.3475922833587359e+00 0.0000000000000000e+00  1.6187716522234699e-01 1.3473616819030931e+00 0.0000000000000000e+00  1.6166095047170542e-01 1.3572326251699085e+00 0.0000000000000000e+00  1.6183435085697068e-01 1.3569870335793879e+00 0.0000000000000000e+00  1.6160365593044107e-01 1.3668717143918314e+00 0.0000000000000000e+00  1.6179084613987771e-01 1.3666093720601291e+00 0.0000000000000000e+00  1.6154546609341303e-01 1.3765116402150188e+00 0.0000000000000000e+00  1.6174656074229668e-01 1.3762285083556498e+00 0.0000000000000000e+00  1.6148671064295336e-01 1.3861508775455489e+00 0.0000000000000000e+00  1.6170109810996405e-01 1.3858464904600878e+00 0.0000000000000000e+00  1.6142747092648974e-01 1.3957899830628249e+00 0.0000000000000000e+00  1.6165402873058246e-01 1.3954654791765908e+00 0.0000000000000000e+00  1.6136944372395859e-01 1.4054170437813205e+00 0.0000000000000000e+00  1.6160237164902827e-01 1.4051074384018267e+00 0.0000000000000000e+00  1.6131443572191972e-01 1.4150192896405687e+00 0.0000000000000000e+00  1.6154853426302981e-01 1.4147524191106213e+00 0.0000000000000000e+00  1.6125457229182219e-01 1.4246593134425174e+00 0.0000000000000000e+00  1.6150544686260659e-01 1.4242986145502150e+00 0.0000000000000000e+00  1.6116875261820668e-01 1.4345027177714620e+00 0.0000000000000000e+00  1.6151376562370495e-01 1.4334282546608235e+00 0.0000000000000000e+00  1.6098292720895957e-01 1.4451283908508861e+00 0.0000000000000000e+00  1.6168106458515613e-01 1.4413017964454298e+00 0.0000000000000000e+00  1.6058837729167552e-01 1.4573880091912181e+00 0.0000000000000000e+00  1.6205999403850002e-01 1.4475075966934499e+00 0.0000000000000000e+00  1.6004714001807929e-01 1.4708034702170516e+00 0.0000000000000000e+00  1.6245936437215192e-01 1.4535330955013801e+00 0.0000000000000000e+00  1.5962950891365940e-01 1.4832663861218771e+00 0.0000000000000000e+00  1.6261791233594697e-01 1.4614089756258635e+00 0.0000000000000000e+00  1.5948889600352575e-01 1.4935750640712648e+00 0.0000000000000000e+00  1.6252734057238938e-01 1.4711978756941861e+00 0.0000000000000000e+00  1.5951252366675711e-01 1.5026093555307629e+00 0.0000000000000000e+00  1.6235461841037757e-01 1.4816017902564547e+00 0.0000000000000000e+00  1.5955502564118884e-01 1.5115049217867194e+00 0.0000000000000000e+00  1.6218852866960873e-01 1.4919318131394275e+00 0.0000000000000000e+00  1.5958706193998667e-01 1.5204909025201947e+00 0.0000000000000000e+00  1.6201601937507246e-01 1.5022872054018785e+00 0.0000000000000000e+00  1.5961389190223571e-01 1.5295332539522899e+00 0.0000000000000000e+00  1.6182060768157486e-01 1.5127842971631000e+00 0.0000000000000000e+00  1.5964768315875869e-01 1.5385509296212418e+00 0.0000000000000000e+00  1.6163540238364291e-01 1.5231551928430045e+00 0.0000000000000000e+00  1.596991