<?xml version="1.0"?>
<VTKFile type="UnstructuredGrid"  version="0.1"  >
<UnstructuredGrid>
<Piece  NumberOfPoints="801" NumberOfCells="800">
<Points>
<DataArray  type="Float64"  NumberOfComponents="3"  format="ascii">-5 0 0  -4.9875 0 0  -4.975 0 0  -4.9625 0 0  -4.95 0 0  -4.9375 0 0  -4.925 0 0  -4.9125 0 0  -4.9 0 0  -4.8875 0 0  -4.875 0 0  -4.8625 0 0  -4.85 0 0  -4.8375 0 0  -4.825 0 0  -4.8125 0 0  -4.8 0 0  -4.7875 0 0  -4.775 0 0  -4.7625 0 0  -4.75 0 0  -4.7375 0 0  -4.725 0 0  -4.7125 0 0  -4.7 0 0  -4.6875 0 0  -4.675 0 0  -4.6625 0 0  -4.65 0 0  -4.6375 0 0  -4.625 0 0  -4.6125 0 0  -4.6 0 0  -4.5875 0 0  -4.575 0 0  -4.5625 0 0  -4.55 0 0  -4.5375 0 0  -4.525 0 0  -4.5125 0 0  -4.5 0 0  -4.4875 0 0  -4.475 0 0  -4.4625 0 0  -4.45 0 0  -4.4375 0 0  -4.425 0 0  -4.4125 0 0  -4.4 0 0  -4.3875 0 0  -4.375 0 0  -4.3625 0 0  -4.35 0 0  -4.3375 0 0  -4.325 0 0  -4.3125 0 0  -4.3 0 0  -4.2875 0 0  -4.275 0 0  -4.2625 0 0  -4.25 0 0  -4.2375 0 0  -4.225 0 0  -4.2125 0 0  -4.2 0 0  -4.1875 0 0  -4.175 0 0  -4.1625 0 0  -4.15 0 0  -4.1375 0 0  -4.125 0 0  -4.1125 0 0  -4.1 0 0  -4.0875 0 0  -4.075 0 0  -4.0625 0 0  -4.05 0 0  -4.0375 0 0  -4.025 0 0  -4.0125 0 0  -4 0 0  -3.9875 0 0  -3.975 0 0  -3.9625 0 0  -3.95 0 0  -3.9375 0 0  -3.925 0 0  -3.9125 0 0  -3.9 0 0  -3.8875 0 0  -3.875 0 0  -3.8625 0 0  -3.85 0 0  -3.8375 0 0  -3.825 0 0  -3.8125 0 0  -3.8 0 0  -3.7875 0 0  -3.775 0 0  -3.7625 0 0  -3.75 0 0  -3.7375 0 0  -3.725 0 0  -3.7125 0 0  -3.7 0 0  -3.6875 0 0  -3.675 0 0  -3.6625 0 0  -3.65 0 0  -3.6375 0 0  -3.625 0 0  -3.6125 0 0  -3.6 0 0  -3.5875 0 0  -3.575 0 0  -3.5625 0 0  -3.55 0 0  -3.5375 0 0  -3.525 0 0  -3.5125 0 0  -3.5 0 0  -3.4875 0 0  -3.475 0 0  -3.4625 0 0  -3.45 0 0  -3.4375 0 0  -3.425 0 0  -3.4125 0 0  -3.4 0 0  -3.3875 0 0  -3.375 0 0  -3.3625 0 0  -3.35 0 0  -3.3375 0 0  -3.325 0 0  -3.3125 0 0  -3.3 0 0  -3.2875 0 0  -3.275 0 0  -3.2625 0 0  -3.25 0 0  -3.2375 0 0  -3.225 0 0  -3.2125 0 0  -3.2 0 0  -3.1875 0 0  -3.175 0 0  -3.1625 0 0  -3.15 0 0  -3.1375 0 0  -3.125 0 0  -3.1125 0 0  -3.1 0 0  -3.0875 0 0  -3.075 0 0  -3.0625 0 0  -3.05 0 0  -3.0375 0 0  -3.025 0 0  -3.0125 0 0  -3 0 0  -2.9875 0 0  -2.975 0 0  -2.9625 0 0  -2.95 0 0  -2.9375 0 0  -2.925 0 0  -2.9125 0 0  -2.9 0 0  -2.8875 0 0  -2.875 0 0  -2.8625 0 0  -2.85 0 0  -2.8375 0 0  -2.825 0 0  -2.8125 0 0  -2.8 0 0  -2.7875 0 0  -2.775 0 0  -2.7625 0 0  -2.75 0 0  -2.7375 0 0  -2.725 0 0  -2.7125 0 0  -2.7 0 0  -2.6875 0 0  -2.675 0 0  -2.6625 0 0  -2.65 0 0  -2.6375 0 0  -2.625 0 0  -2.6125 0 0  -2.6 0 0  -2.5875 0 0  -2.575 0 0  -2.5625 0 0  -2.55 0 0  -2.5375 0 0  -2.525 0 0  -2.5125 0 0  -2.5 0 0  -2.4875 0 0  -2.475 0 0  -2.4625 0 0  -2.45 0 0  -2.4375 0 0  -2.425 0 0  -2.4125 0 0  -2.4 0 0  -2.3875 0 0  -2.375 0 0  -2.3625 0 0  -2.35 0 0  -2.3375 0 0  -2.325 0 0  -2.3125 0 0  -2.3 0 0  -2.2875 0 0  -2.275 0 0  -2.2625 0 0  -2.25 0 0  -2.2375 0 0  -2.225 0 0  -2.2125 0 0  -2.2 0 0  -2.1875 0 0  -2.175 0 0  -2.1625 0 0  -2.15 0 0  -2.1375 0 0  -2.125 0 0  -2.1125 0 0  -2.1 0 0  -2.0875 0 0  -2.075 0 0  -2.0625 0 0  -2.05 0 0  -2.0375 0 0  -2.025 0 0  -2.0125 0 0  -2 0 0  -1.9875 0 0  -1.975 0 0  -1.9625 0 0  -1.95 0 0  -1.9375 0 0  -1.925 0 0  -1.9125 0 0  -1.9 0 0  -1.8875 0 0  -1.875 0 0  -1.8625 0 0  -1.85 0 0  -1.8375 0 0  -1.825 0 0  -1.8125 0 0  -1.8 0 0  -1.7875 0 0  -1.775 0 0  -1.7625 0 0  -1.75 0 0  -1.7375 0 0  -1.725 0 0  -1.7125 0 0  -1.7 0 0  -1.6875 0 0  -1.675 0 0  -1.6625 0 0  -1.65 0 0  -1.6375 0 0  -1.625 0 0  -1.6125 0 0  -1.6 0 0  -1.5875 0 0  -1.575 0 0  -1.5625 0 0  -1.55 0 0  -1.5375 0 0  -1.525 0 0  -1.5125 0 0  -1.5 0 0  -1.4875 0 0  -1.475 0 0  -1.4625 0 0  -1.45 0 0  -1.4375 0 0  -1.425 0 0  -1.4125 0 0  -1.4 0 0  -1.3875 0 0  -1.375 0 0  -1.3625 0 0  -1.35 0 0  -1.3375 0 0  -1.325 0 0  -1.3125 0 0  -1.3 0 0  -1.2875 0 0  -1.275 0 0  -1.2625 0 0  -1.25 0 0  -1.2375 0 0  -1.225 0 0  -1.2125 0 0  -1.2 0 0  -1.1875 0 0  -1.175 0 0  -1.1625 0 0  -1.15 0 0  -1.1375 0 0  -1.125 0 0  -1.1125 0 0  -1.1 0 0  -1.0875 0 0  -1.075 0 0  -1.0625 0 0  -1.05 0 0  -1.0375 0 0  -1.025 0 0  -1.0125 0 0  -1 0 0  -0.9874999999999998 0 0  -0.9749999999999996 0 0  -0.9625000000000004 0 0  -0.9500000000000002 0 0  -0.9375 0 0  -0.9249999999999998 0 0  -0.9124999999999996 0 0  -0.9000000000000004 0 0  -0.8875000000000002 0 0  -0.875 0 0  -0.8624999999999998 0 0  -0.8499999999999996 0 0  -0.8375000000000004 0 0  -0.8250000000000002 0 0  -0.8125 0 0  -0.7999999999999998 0 0  -0.7874999999999996 0 0  -0.7750000000000004 0 0  -0.7625000000000002 0 0  -0.75 0 0  -0.7374999999999998 0 0  -0.7249999999999996 0 0  -0.7125000000000004 0 0  -0.7000000000000002 0 0  -0.6875 0 0  -0.6749999999999998 0 0  -0.6624999999999996 0 0  -0.6500000000000004 0 0  -0.6375000000000002 0 0  -0.625 0 0  -0.6124999999999998 0 0  -0.5999999999999996 0 0  -0.5875000000000004 0 0  -0.5750000000000002 0 0  -0.5625 0 0  -0.5499999999999998 0 0  -0.5374999999999996 0 0  -0.5250000000000004 0 0  -0.5125000000000002 0 0  -0.5 0 0  -0.4874999999999998 0 0  -0.4749999999999996 0 0  -0.4625000000000004 0 0  -0.4500000000000002 0 0  -0.4375 0 0  -0.4249999999999998 0 0  -0.4124999999999996 0 0  -0.4000000000000004 0 0  -0.3875000000000002 0 0  -0.375 0 0  -0.3624999999999998 0 0  -0.3499999999999996 0 0  -0.3375000000000004 0 0  -0.3250000000000002 0 0  -0.3125 0 0  -0.2999999999999998 0 0  -0.2874999999999996 0 0  -0.2750000000000004 0 0  -0.2625000000000002 0 0  -0.25 0 0  -0.2374999999999998 0 0  -0.2249999999999996 0 0  -0.2125000000000004 0 0  -0.2000000000000002 0 0  -0.1875 0 0  -0.1749999999999998 0 0  -0.1624999999999996 0 0  -0.1500000000000004 0 0  -0.1375000000000002 0 0  -0.125 0 0  -0.1124999999999998 0 0  -0.09999999999999964 0 0  -0.08750000000000036 0 0  -0.07500000000000018 0 0  -0.0625 0 0  -0.04999999999999982 0 0  -0.03749999999999964 0 0  -0.02500000000000036 0 0  -0.01250000000000018 0 0  0 0 0  0.01250000000000018 0 0  0.02500000000000036 0 0  0.03749999999999964 0 0  0.04999999999999982 0 0  0.0625 0 0  0.07500000000000018 0 0  0.08750000000000036 0 0  0.09999999999999964 0 0  0.1124999999999998 0 0  0.125 0 0  0.1375000000000002 0 0  0.1500000000000004 0 0  0.1624999999999996 0 0  0.1749999999999998 0 0  0.1875 0 0  0.2000000000000002 0 0  0.2125000000000004 0 0  0.2249999999999996 0 0  0.2374999999999998 0 0  0.25 0 0  0.2625000000000002 0 0  0.2750000000000004 0 0  0.2874999999999996 0 0  0.2999999999999998 0 0  0.3125 0 0  0.3250000000000002 0 0  0.3375000000000004 0 0  0.3499999999999996 0 0  0.3624999999999998 0 0  0.375 0 0  0.3875000000000002 0 0  0.4000000000000004 0 0  0.4124999999999996 0 0  0.4249999999999998 0 0  0.4375 0 0  0.4500000000000002 0 0  0.4625000000000004 0 0  0.4749999999999996 0 0  0.4874999999999998 0 0  0.5 0 0  0.5125000000000002 0 0  0.5250000000000004 0 0  0.5374999999999996 0 0  0.5499999999999998 0 0  0.5625 0 0  0.5750000000000002 0 0  0.5875000000000004 0 0  0.5999999999999996 0 0  0.6124999999999998 0 0  0.625 0 0  0.6375000000000002 0 0  0.6500000000000004 0 0  0.6624999999999996 0 0  0.6749999999999998 0 0  0.6875 0 0  0.7000000000000002 0 0  0.7125000000000004 0 0  0.7249999999999996 0 0  0.7374999999999998 0 0  0.75 0 0  0.7625000000000002 0 0  0.7750000000000004 0 0  0.7874999999999996 0 0  0.7999999999999998 0 0  0.8125 0 0  0.8250000000000002 0 0  0.8375000000000004 0 0  0.8499999999999996 0 0  0.8624999999999998 0 0  0.875 0 0  0.8875000000000002 0 0  0.9000000000000004 0 0  0.9124999999999996 0 0  0.9249999999999998 0 0  0.9375 0 0  0.9500000000000002 0 0  0.9625000000000004 0 0  0.9749999999999996 0 0  0.9874999999999998 0 0  1 0 0  1.0125 0 0  1.025 0 0  1.0375 0 0  1.05 0 0  1.0625 0 0  1.075 0 0  1.0875 0 0  1.1 0 0  1.1125 0 0  1.125 0 0  1.1375 0 0  1.15 0 0  1.1625 0 0  1.175 0 0  1.1875 0 0  1.2 0 0  1.2125 0 0  1.225 0 0  1.2375 0 0  1.25 0 0  1.2625 0 0  1.275 0 0  1.2875 0 0  1.3 0 0  1.3125 0 0  1.325 0 0  1.3375 0 0  1.35 0 0  1.3625 0 0  1.375 0 0  1.3875 0 0  1.4 0 0  1.4125 0 0  1.425 0 0  1.4375 0 0  1.45 0 0  1.4625 0 0  1.475 0 0  1.4875 0 0  1.5 0 0  1.5125 0 0  1.525 0 0  1.5375 0 0  1.55 0 0  1.5625 0 0  1.575 0 0  1.5875 0 0  1.6 0 0  1.6125 0 0  1.625 0 0  1.6375 0 0  1.65 0 0  1.6625 0 0  1.675 0 0  1.6875 0 0  1.7 0 0  1.7125 0 0  1.725 0 0  1.7375 0 0  1.75 0 0  1.7625 0 0  1.775 0 0  1.7875 0 0  1.8 0 0  1.8125 0 0  1.825 0 0  1.8375 0 0  1.85 0 0  1.8625 0 0  1.875 0 0  1.8875 0 0  1.9 0 0  1.9125 0 0  1.925 0 0  1.9375 0 0  1.95 0 0  1.9625 0 0  1.975 0 0  1.9875 0 0  2 0 0  2.0125 0 0  2.025 0 0  2.0375 0 0  2.05 0 0  2.0625 0 0  2.075 0 0  2.0875 0 0  2.1 0 0  2.1125 0 0  2.125 0 0  2.1375 0 0  2.15 0 0  2.1625 0 0  2.175 0 0  2.1875 0 0  2.2 0 0  2.2125 0 0  2.225 0 0  2.2375 0 0  2.25 0 0  2.2625 0 0  2.275 0 0  2.2875 0 0  2.3 0 0  2.3125 0 0  2.325 0 0  2.3375 0 0  2.35 0 0  2.3625 0 0  2.375 0 0  2.3875 0 0  2.4 0 0  2.4125 0 0  2.425 0 0  2.4375 0 0  2.45 0 0  2.4625 0 0  2.475 0 0  2.4875 0 0  2.5 0 0  2.5125 0 0  2.525 0 0  2.5375 0 0  2.55 0 0  2.5625 0 0  2.575 0 0  2.5875 0 0  2.6 0 0  2.6125 0 0  2.625 0 0  2.6375 0 0  2.65 0 0  2.6625 0 0  2.675 0 0  2.6875 0 0  2.7 0 0  2.7125 0 0  2.725 0 0  2.7375 0 0  2.75 0 0  2.7625 0 0  2.775 0 0  2.7875 0 0  2.8 0 0  2.8125 0 0  2.825 0 0  2.8375 0 0  2.85 0 0  2.8625 0 0  2.875 0 0  2.8875 0 0  2.9 0 0  2.9125 0 0  2.925 0 0  2.9375 0 0  2.95 0 0  2.9625 0 0  2.975 0 0  2.9875 0 0  3 0 0  3.012499999999999 0 0  3.025 0 0  3.0375 0 0  3.050000000000001 0 0  3.0625 0 0  3.074999999999999 0 0  3.0875 0 0  3.1 0 0  3.112500000000001 0 0  3.125 0 0  3.137499999999999 0 0  3.15 0 0  3.1625 0 0  3.175000000000001 0 0  3.1875 0 0  3.199999999999999 0 0  3.2125 0 0  3.225 0 0  3.237500000000001 0 0  3.25 0 0  3.262499999999999 0 0  3.275 0 0  3.2875 0 0  3.300000000000001 0 0  3.3125 0 0  3.324999999999999 0 0  3.3375 0 0  3.35 0 0  3.362500000000001 0 0  3.375 0 0  3.387499999999999 0 0  3.4 0 0  3.4125 0 0  3.425000000000001 0 0  3.4375 0 0  3.449999999999999 0 0  3.4625 0 0  3.475 0 0  3.4875
[...]
<PointData  Vectors="(h, u)"> 
<DataArray  type="Float64"  Name="(h, u)"  NumberOfComponents="3" format="ascii">2.4342620272349488e-01 0.0000000000000000e+00 0.0000000000000000e+00  2.4329378700853119e-01 6.9469152315778816e-03 0.0000000000000000e+00  2.4342343059638186e-01 1.3920877456839727e-02 0.0000000000000000e+00  2.4328837053930236e-01 2.0841011835373985e-02 0.0000000000000000e+00  2.4341511287261222e-01 2.7842250900912469e-02 0.0000000000000000e+00  2.4327753544936698e-01 3.4735907874010673e-02 0.0000000000000000e+00  2.4340124547560182e-01 4.1764610435370914e-02 0.0000000000000000e+00  2.4326127777081982e-01 4.8632139093118747e-02 0.0000000000000000e+00  2.4338182153277271e-01 5.5688436162691278e-02 0.0000000000000000e+00  2.4323959213137547e-01 6.2530243479598777e-02 0.0000000000000000e+00  2.4335683149958165e-01 6.9614197466101882e-02 0.0000000000000000e+00  2.4321247185706293e-01 7.6430758759159265e-02 0.0000000000000000e+00  2.4332626363362578e-01 8.3542356825895725e-02 0.0000000000000000e+00  2.4317990845572171e-01 9.0334217799175956e-02 0.0000000000000000e+00  2.4329010479422625e-01 9.7473378236217142e-02 0.0000000000000000e+00  2.4314189043548720e-01 1.0424114331339347e-01 0.0000000000000000e+00  2.4324834128029152e-01 1.1140773870847949e-01 0.0000000000000000e+00  2.4309840175944825e-01 1.1815204440368803e-01 0.0000000000000000e+00  2.4320095922659507e-01 1.2534593972547192e-01 0.0000000000000000e+00  2.4304942051909997e-01 1.3206741785036630e-01 0.0000000000000000e+00  2.4314794409495288e-01 1.3928851458132374e-01 0.0000000000000000e+00  2.4299491848571492e-01 1.4598775608350611e-01 0.0000000000000000e+00  2.4308927907816652e-01 1.5323602799043481e-01 0.0000000000000000e+00  2.4293486200191539e-01 1.5991356136822271e-01 0.0000000000000000e+00  2.4302494271658284e-01 1.6718906636418068e-01 0.0000000000000000e+00  2.4286921424506400e-01 1.7384536260378816e-01 0.0000000000000000e+00  2.4295490652006577e-01 1.8114822030331390e-01 0.0000000000000000e+00  2.4279793835216118e-01 1.8778372868365481e-01 0.0000000000000000e+00  2.4287913363674224e-01 1.9511406421631652e-01 0.0000000000000000e+00  2.4272100042305894e-01 2.0172927207443642e-01 0.0000000000000000e+00  2.4279757942805491e-01 2.0908714031317283e-01 0.0000000000000000e+00  2.4263837119927209e-01 2.1568263891185513e-01 0.0000000000000000e+00  2.4271019416428066e-01 2.2306795455788897e-01 0.0000000000000000e+00  2.4255002535738202e-01 2.2964448709069193e-01 0.0000000000000000e+00  2.4261692713795224e-01 2.3705698997694538e-01 0.0000000000000000e+00  2.4245593791385622e-01 2.4361545952804067e-01 0.0000000000000000e+00  2.4251773071941865e-01 2.5105473790256122e-01 0.0000000000000000e+00  2.4235607815330143e-01 2.5759616323309187e-01 0.0000000000000000e+00  2.4241256264752317e-01 2.6506174124112852e-01 0.0000000000000000e+00  2.4225040255018362e-01 2.7158716388782833e-01 0.0000000000000000e+00  2.4230138542167606e-01 2.7907863719889392e-01 0.0000000000000000e+00  2.4213884909515998e-01 2.8558899945894722e-01 0.0000000000000000e+00  2.4218416293862308e-01 2.9310618232574420e-01 0.0000000000000000e+00  2.4202133576296653e-01 2.9960220754998457e-01 0.0000000000000000e+00  2.4206085582217041e-01 3.0714524392960857e-01 0.0000000000000000e+00  2.4189776508333638e-01 3.1362735459073926e-01 0.0000000000000000e+00  2.4193141752224995e-01 3.2119675061993680e-01 0.0000000000000000e+00  2.4176803480482859e-01 3.2766505464073020e-01 0.0000000000000000e+00  2.4179579259098372e-01 3.3526161094842838e-01 0.0000000000000000e+00  2.4163205166998025e-01 3.4171597439810913e-01 0.0000000000000000e+00  2.4165391664748101e-01 3.4934062851766362e-01 0.0000000000000000e+00  2.4148974268348805e-01 3.5578083380541731e-01 0.0000000000000000e+00  2.4150571578243873e-01 3.6343445334351826e-01 0.0000000000000000e+00  2.4134105766175587e-01 3.6986041905952349e-01 0.0000000000000000e+00  2.4135110292562356e-01 3.7754360343464577e-01 0.0000000000000000e+00  2.4118595964755371e-01 3.8395561748981527e-01 0.0000000000000000e+00  2.4118997145302870e-01 3.9166856015307183e-01 0.0000000000000000e+00  2.4102440605838168e-01 3.9806745817131539e-01 0.0000000000000000e+00  2.4102219067715483e-01 4.0580989818494162e-01 0.0000000000000000e+00  2.4085632943579502e-01 4.1219711833162970e-01 0.0000000000000000e+00  2.4084761033981225e-01 4.1996838229170297e-01 0.0000000000000000e+00  2.4068162890326950e-01 4.2634585176301865e-01 0.0000000000000000e+00  2.4066607887340769e-01 4.3414497065732438e-01 0.0000000000000000e+00  2.4050017755075170e-01 4.4051483666338020e-01 0.0000000000000000e+00  2.4047746987262245e-01 4.4834073059476182e-01 0.0000000000000000e+00  2.4031183844600496e-01 4.5470501615819814e-01 0.0000000000000000e+00  2.4028170080431643e-01 4.6255674635622551e-01 0.0000000000000000e+00  2.4011647331174102e-01 4.6891704945406831e-01 0.0000000000000000e+00  2.4007872571406658e-01 4.7679412632968726e-01 0.0000000000000000e+00  2.3991393056332982e-01 4.8315146020582916e-01 0.0000000000000000e+00  2.3986849866042464e-01 4.9105413659024988e-01 0.0000000000000000e+00  2.3970402088226378e-01 4.9740891671185727e-01 0.0000000000000000e+00  2.3965093014042521e-01 5.0533833846020226e-01 0.0000000000000000e+00  2.3948650609735431e-01 5.1169045431320592e-01 0.0000000000000000e+00  2.3942586978897562e-01 5.1964854631984780e-01 0.0000000000000000e+00  2.3926112878102881e-01 5.2599743359754048e-01 0.0000000000000000e+00  2.3919313655996513e-01 5.3398650154666338e-01 0.0000000000000000e+00  2.3902767429719843e-01 5.4033125662100567e-01 0.0000000000000000e+00  2.3895256322673683e-01 5.4835350199164790e-01 0.0000000000000000e+00  2.3878601003664138e-01 5.5469317122531403e-01 0.0000000000000000e+00  2.3870400191751387e-01 5.6275034581933780e-01 0.0000000000000000e+00  2.3853605396161770e-01 5.6908445847644695e-01 0.0000000000000000e+00  2.3844725950995305e-01 5.7717779462148910e-01 0.0000000000000000e+00  2.3827767898753169e-01 5.8350696391447154e-01 0.0000000000000000e+00  2.3818202888229267e-01 5.9163712494898546e-01 0.0000000000000000e+00  2.3801066437281337e-01 5.9796327528374571e-01 0.0000000000000000e+00  2.3790791177194895e-01 6.0613013460146559e-01 0.0000000000000000e+00  2.3773474432111349e-01 6.1245624855274550e-01 0.0000000000000000e+00  2.3762454293371493e-01 6.2065851335263111e-01 0.0000000000000000e+00  2.3744973204323541e-01 6.2698804953690479e-01 0.0000000000000000e+00  2.3733170043069110e-01 6.3522328718294840e-01 0.0000000000000000e+00  2.3715550761443371e-01 6.4156009769853661e-01 0.0000000000000000e+00  2.3702921237306257e-01 6.4982552853671482e-01 0.0000000000000000e+00  2.3685185867035644e-01 6.5617400632578815e-01 0.0000000000000000e+00  2.3671678868104970e-01 6.6446749084885759e-01 0.0000000000000000e+00  2.3653831350602664e-01 6.7083263708528929e-01 0.0000000000000000e+00  2.3639395636305316e-01 6.7915301261244887e-01 0.0000000000000000e+00  2.3621429687859130e-01 6.8553914554479134e-01 0.0000000000000000e+00  2.3606037063832946e-01 6.9388544021423404e-01 0.0000000000000000e+00  2.3587940369302329e-01 7.0029532415728601e-01 0.0000000000000000e+00  2.3571589597575127e-01 7.0866697915373400e-01 0.0000000000000000e+00  2.3553339038126278e-01 7.1510180164853310e-01 0.0000000000000000e+00  2.3536044607645454e-01 7.2349956809942673e-01 0.0000000000000000e+00  2.3517576295737358e-01 7.2996086258287363e-01 0.0000000000000000e+00  2.3499342762129105e-01 7.3838830496883867e-01 0.0000000000000000e+00  2.3480566896277907e-01 7.4487730411224529e-01 0.0000000000000000e+00  2.3461419099405978e-01 7.5333839735033037e-01 0.0000000000000000e+00  2.3442240947600282e-01 7.5985526254001057e-01 0.0000000000000000e+00  2.3422226231513113e-01 7.6835355703944852e-01 0.0000000000000000e+00  2.3402579801516515e-01 7.7489597519019271e-01 0.0000000000000000e+00  2.3381764367383279e-01 7.8343400068067925e-01 0.0000000000000000e+00  2.3361544222329036e-01 7.9000245473261399e-01 0.0000000000000000e+00  2.3339931486911808e-01 7.9858614305724973e-01 0.0000000000000000e+00  2.3319032661664579e-01 8.0518216530988151e-01 0.0000000000000000e+00  2.3296623540955522e-01 8.1381617444889931e-01 0.0000000000000000e+00  2.3274935243046463e-01 8.2044345693349652e-01 0.0000000000000000e+00  2.3251740531517609e-01 8.2912976738311672e-01 0.0000000000000000e+00  2.3229277364891138e-01 8.3578612778528893e-01 0.0000000000000000e+00  2.3205307302246131e-01 8.4452437074572939e-01 0.0000000000000000e+00  2.3181963433251612e-01 8.5121791816196302e-01 0.0000000000000000e+00  2.3157132529061986e-01 8.6001149231649554e-01 0.0000000000000000e+00  2.3132892852301351e-01 8.6674683730691826e-01 0.0000000000000000e+00  2.3107060723403888e-01 8.7560049288757535e-01 0.0000000000000000e+00  2.3081843032855606e-01 8.8238865830708013e-01 0.0000000000000000e+00  2.3055058837443904e-01 8.9129305054192653e-01 0.0000000000000000e+00  2.3029014667379641e-01 8.9813129593284746e-01 0.0000000000000000e+00  2.3001025581975615e-01 9.0709568010164765e-01 0.0000000000000000e+00  2.2974023258672541e-01 9.1400046331584439e-01 0.0000000000000000e+00  2.2944824917214127e-01 9.2301758447514504e-01 0.0000000000000000e+00  2.2916802949108983e-01 9.3000073657015259e-01 0.0000000000000000e+00  2.2886017685720170e-01 9.3908823889504101e-01 0.0000000000000000e+00  2.2857287605827284e-01 9.4613634428993443e-01 0.0000000000000000e+00  2.2825169326063810e-01 9.5527181638614811e-01 0.0000000000000000e+00  2.2795282281181897e-01 9.6241970113132647e-01 0.0000000000000000e+00  2.2761354452018165e-01 9.7163041600043631e-01 0.0000000000000000e+00  2.2730830387194986e-01 9.7884737796768395e-01 0.0000000000000000e+00  2.2694789612084942e-01 9.8815160788493761e-01 0.0000000000000000e+00  2.2663093141578430e-01 9.9547384142930118e-01 0.0000000000000000e+00  2.2625772076820239e-01 1.0048176583265882e+00 0.0000000000000000e+00  2.2593366706751625e-01 1.0122132892132161e+00 0.0000000000000000e+00  2.2553004078562433e-01 1.0217158703912845e+00 0.0000000000000000e+00  2.2520144790142294e-01 1.0291644080217057e+00 0.0000000000000000e+00  2.2478162149729516e-01 1.0387375214969639e+00 0.0000000000000000e+00  2.2443600765097399e-01 1.0463157390402873e+00 0.0000000000000000e+00  2.2399809507915666e-01 1.0559789253874892e+00 0.0000000000000000e+00  2.2366307854673664e-01 1.0634972394569984e+00 0.0000000000000000e+00  2.2318235631128561e-01 1.0734224303979278e+00 0.0000000000000000e+00  2.2284181217083177e-01 1.0809796667766305e+00 0.0000000000000000e+00  2.2236468737941337e-01 1.0908681329744994e+00 0.0000000000000000e+00  2.2201219258679999e-01 1.0984989522882180e+00 0.0000000000000000e+00  2.2150704169525640e-01 1.1085689630478941e+00 0.0000000000000000e+00  2.2120327793573641e-01 1.1158623994986749e+00 0.0000000000000000e+00  2.2064124086246392e-01 1.1263138577286727e+00 0.0000000000000000e+00  2.2035246258256069e-01 1.1334876562800034e+00 0.0000000000000000e+00  2.1983891458883881e-01 1.1436243787295677e+00 0.0000000000000000e+00  2.1953075125197125e-01 1.1509028665166756e+00 0.0000000000000000e+00  2.1900201068344283e-01 1.1611536183531386e+00 0.0000000000000000e+00  2.1880453824683588e-01 1.1676640574074355e+00 0.0000000000000000e+00  2.1817189938180712e-01 1.1786248545732576e+00 0.0000000000000000e+00  2.1810750492394415e-01 1.1842146669309226e+00 0.0000000000000000e+00  2.1749569151568998e-01 1.1950502849407760e+00 0.0000000000000000e+00  2.1735434323306954e-01 1.2011286179794731e+00 0.0000000000000000e+00  2.1691031180222992e-01 1.2108490322438854e+00 0.0000000000000000e+00  2.1673072636700200e-01 1.2171601371921041e+00 0.0000000000000000e+00  2.1628538329948646e-01 1.2268962363243459e+00 0.0000000000000000e+00  2.1629105972266977e-01 1.2319412812486390e+00 0.0000000000000000e+00  2.1558118866808898e-01 1.2434603669243016e+00 0.0000000000000000e+00  2.1601349199257255e-01 1.2456167246133130e+00 0.0000000000000000e+00  2.1492846068576738e-01 1.2596613326801955e+00 0.0000000000000000e+00  2.1572005478778380e-01 1.2593860008135573e+00 0.0000000000000000e+00  2.1438878755495822e-01 1.2750823292576350e+00 0.0000000000000000e+00  2.1543365019103194e-01 1.2730957317505034e+00 0.0000000000000000e+00  2.1395135472270138e-01 1.2897953216251481e+00 0.0000000000000000e+00  2.1509451805468272e-01 1.2871498702743469e+00 0.0000000000000000e+00  2.1362618146634069e-01 1.3037322512962719e+00 0.0000000000000000e+00  2.1477495634743946e-01 1.3010592605496742e+00 0.0000000000000000e+00  2.1331248223747337e-01 1.3175758608832233e+00 0.0000000000000000e+00  2.1447834344039071e-01 1.3148006513380681e+00 0.0000000000000000e+00  2.1307125496002677e-01 1.3309112327153274e+00 0.0000000000000000e+00  2.1416424861212024e-01 1.3286536029880394e+00 0.0000000000000000e+00  2.1284926607246160e-01 1.3440900556663085e+00 0.0000000000000000e+00  2.1390880694242123e-01 1.3421114802666803e+00 0.0000000000000000e+00  2.1261887694284018e-01 1.3572979102994311e+00 0.0000000000000000e+00  2.1365570822076113e-01 1.3555406243127255e+00 0.0000000000000000e+00  2.1244892129620166e-01 1.3701119070206083e+00 0.0000000000000000e+00  2.1338448684691697e-01 1.3690030880634318e+00 0.0000000000000000e+00  2.1229180096107969e-01 1.3829510141792223e+00 0.0000000000000000e+00  2.1315202114124490e-01 1.3820443693403859e+00 0.0000000000000000e+00  2.1212045130388246e-01 1.3959572068089843e+00 0.0000000000000000e+00  2.1294092309304169e-01 1.3950420615114365e+00 0.0000000000000000e+00  2.1194962536225470e-01 1.4084716833201592e+00 0.0000000000000000e+00  2.1277714208360529e-01 1.4086459066916506e+00 0.0000000000000000e+00  2.1170563263221825e-01 1.4201609015871943e+00 0.0000000000000000e+00  2.1272148315689823e-01 1.4227061267511871e+00 0.0000000000000000e+00  2.1143045919664541e-01 1.4319193231648752e+00 0.0000000000000000e+00  2.1252856277995516e-01 1.4353410380803415e+00 0.0000000000000000e+00  2.1160088923457143e-01 1.4468087491127783e+00 0.0000000000000000e+00  2.1157200695782949e-01 1.4427509164287378e+00 0.0000000000000000e+00  2.1271255354624202e-01 1.4677677438565466e+00 0.0000000000000000e+00  2.0995160890392028e-01 1.4457781015318620e+00 0.0000000000000000e+00  2.1342808984524825e-01 1.4858809430308015e+00 0.0000000000000000e+00  2.1070359271961592e-01 1.4649086381035168e+00 0.0000000000000000e+00  2.0884697736346200e-01 1.4687629163072411e+00 0.0000000000000000e+00  2.1898546645350420e-01 1.5327440876586009e+00 0.0000000000000000e+00  1.9362746260344973e-01 1.3845362238636654e+00 0.0000000000000000e+00  2.2395572668699598e-01 1.5482376779857925e+00 0.0000000000000000e+00  1.1696398384969058e-01 9.1086236602690995e-01 0.0000000000000000e+00  2.1546726581182653e-02 -1.3752263594084424e+00 0.0000000000000000e+00  3.3591669944380835e-02 -6.8840495068767904e-01 0.0000000000000000e+00  3.2047384072179518e-02 -9.3707965564754969e-01 0.0000000000000000e+00  3.1193475318364274e-02 -8.3514479576428280e-01 0.0000000000000000e+00  3.2168738710553604e-02 -8.7002004719664006e-01 0.0000000000000000e+00  3.1345906426148339e-02 -8.4935631968376646e-01 0.0000000000000000e+00  3.2013827760960949e-02 -8.5296529919493658e-01 0.0000000000000000e+00  3.1385151685315166e-02 -8.4357380577693686e-01 0.0000000000000000e+00  3.1975702134736717e-02 -8.4339244303363925e-01 0.0000000000000000e+00  3.1364111517973976e-02 -8.3495169792629931e-01 0.0000000000000000e+00  3.1965024472925187e-02 -8.3476408265251156e-01 0.0000000000000000e+00  3.1335805663574842e-02 -8.2600020468956581e-01 0.0000000000000000e+00  3.1958005863202930e-02 -8.2618981207276110e-01 0.0000000000000000e+00  3.1308469677416781e-02 -8.1701344077883464e-01 0.0000000000000000e+00  3.1952547551638052e-02 -8.1759369341772947e-01 0.0000000000000000e+00  3.1281984185211123e-02 -8.0800414443282831e-01 0.0000000000000000e+00  3.1948932196545377e-02 -8.0898107811552755e-01 0.0000000000000000e+00  3.1256047602613635e-02 -7.9896993926879778e-01 0.0000000000000000e+00  3.1947089968155637e-02 -8.0035393306756819e-01 0.0000000000000000e+00  3.1230702829230395e-02 -7.8991384671062814e-01 0.0000000000000000e+00  3.1946776106077240e-02 -7.9171057940942313e-01 0.0000000000000000e+00  3.1206045284694492e-02 -7.8084021737308540e-01 0.0000000000000000e+00  3.1947786055880036e-02 -7.8304917304183463e-01 0.0000000000000000e+00  3.1182110275125512e-02 -7.7175276854399844e-01 0.0000000000000000e+00  3.1949987071412563e-02 -7.7436839635629895e-01 0.0000000000000000e+00  3.1158886607833162e-02 -7.6265468827732619e-01 0.0000000000000000e+00  3.1953281360283650e-02 -7.6566707734814721e-01 0.0000000000000000e+00  3.1136360174047646e-02 -7.5354898809908011e-01 0.0000000000000000e+00  3.1957564731793307e-02 -7.5694403437078672e-01 0.0000000000000000e+00  3.1114539936202657e-02 -7.4443858823253062e-01 0.0000000000000000e+00  3.1962716270047604e-02 -7.4819804236121279e-01 0.0000000000000000e+00  3.1093464186578747e-02 -7.3532617581451265e-01 0.0000000000000000e+00  3.1968581314220555e-02 -7.3942831287114996e-01 0.0000000000000000e+00  3.1073214842570883e-02 -7.2621370079474379e-01 0.0000000000000000e+00  3.1974987387575968e-02 -7.3063447077120947e-01 0.0000000000000000e+00  3.1053872972665569e-02 -7.1710292507105888e-01 0.0000000000000000e+00  3.1981760807920367e-02 -7.2181645906636827e-01 0.0000000000000000e+00  3.1035567656462267e-02 -7.0799439608946202e-01 0.0000000000000000e+00  3.1988676659747022e-02 -7.1297554698640742e-01 0.0000000000000000e+00  3.1018404632581046e-02 -6.9888859937465353e-01 0.0000000000000000e+00  3.1995640081194404e-02 -7.0411123685730681e-01 0.0000000000000000e+00  3.1002395207114244e-02 -6.8978712195139480e-01 0.0000000000000000e+00  3.2002462837818747e-02 -6.9522527874926754e-01 0.0000000000000000e+00  3.0987763700592100e-02 -6.8068714665198804e-01 0.0000000000000000e+00  3.2008982540870638e-02 -6.8631962046195960e-01 0.0000000000000000e+00  3.0974261718338378e-02 -6.7159353911815500e-01 0.0000000000000000e+00  3.2015588058404702e-02 -6.7738720544749176e-01 0.0000000000000000e+00  3.0961776977719291e-02 -6.6250805429282267e-01 0.0000000000000000e+00  3.2021646218844839e-02 -6.6843962669216239e-01 0.0000000000000000e+00  3.0951082561166670e-02 -6.5341617088729809e-01 0.0000000000000000e+00  3.2027297082643978e-02 -6.5947541659604092e-01 0.0000000000000000e+00  3.0940426124636617e-02 -6.4434752631254422e-01 0.0000000000000000e+00  3.2034584740579242e-02 -6.5046013179878159e-01 0.0000000000000000e+00  3.0929887963885874e-02 -6.3529886504894573e-01 0.0000000000000000e+00  3.2039809691799037e-02 -6.4146069038570597e-01 0.0000000000000000e+00  3.0924418496720830e-02 -6.2618066303321063e-01 0.0000000000000000e+00  3.2041926022991024e-02 -6.3249721694455163e-01 0.0000000000000000e+00  3.0917241103111212e-02 -6.1711100194837243e-01 0.0000000000000000e+00  3.2052622000690423e-02 -6.2336596215780637e-01 0.0000000000000000e+00  3.0901463955176615e-02 -6.0820975305743530e-01 0.0000000000000000e+00  3.2062577738060073e-02 -6.1423292024339438e-01 0.0000000000000000e+00  3.0905269243791573e-02 -5.9897645407930289e-01 0.0000000000000000e+00  3.2035147612914427e-02 -6.0574356395644391e-01 0.0000000000000000e+00  3.0951624567902829e-02 -5.8900471661330744e-01 0.0000000000000000e+00  3.1983268281218301e-02 -5.9766985712798637e-01 0.0000000000000000e+00  3.0983234231933696e-02 -5.7930885127506460e-01 0.0000000000000000e+00  3.1996455486476429e-02 -5.8843691787803643e-01 0.0000000000000000e+00  3.0907796291007671e-02 -5.7152026756701613e-01 0.0000000000000000e+00  3.2132521283011771e-02 -5.7703168834487151e-01 0.0000000000000000e+00  3.0723462783162320e-02 -5.6567115439828930e-01 0.0000000000000000e+00  3.2337398526517472e-02 -5.6441127528388813e-01 0.0000000000000000e+00  3.0525681515975425e-02 -5.6007203942050243e-01 0.0000000000000000e+00  3.2511636055093572e-02 -5.5232322915070176e-01 0.0000000000000000e+00  3.0397624321990033e-02 -5.5324807879104831e-01 0.0000000000000000e+00  3.2605216065186307e-02 -5.4164033329581807e-01 0.0000000000000000e+00  3.0351567994660357e-02 -5.4498207208194405e-01 0.0000000000000000e+00  3.