<?xml version="1.0"?>
<VTKFile type="UnstructuredGrid"  version="0.1"  >
<UnstructuredGrid>
<Piece  NumberOfPoints="801" NumberOfCells="800">
<Points>
<DataArray  type="Float64"  NumberOfComponents="3"  format="ascii">-5 0 0  -4.9875 0 0  -4.975 0 0  -4.9625 0 0  -4.95 0 0  -4.9375 0 0  -4.925 0 0  -4.9125 0 0  -4.9 0 0  -4.8875 0 0  -4.875 0 0  -4.8625 0 0  -4.85 0 0  -4.8375 0 0  -4.825 0 0  -4.8125 0 0  -4.8 0 0  -4.7875 0 0  -4.775 0 0  -4.7625 0 0  -4.75 0 0  -4.7375 0 0  -4.725 0 0  -4.7125 0 0  -4.7 0 0  -4.6875 0 0  -4.675 0 0  -4.6625 0 0  -4.65 0 0  -4.6375 0 0  -4.625 0 0  -4.6125 0 0  -4.6 0 0  -4.5875 0 0  -4.575 0 0  -4.5625 0 0  -4.55 0 0  -4.5375 0 0  -4.525 0 0  -4.5125 0 0  -4.5 0 0  -4.4875 0 0  -4.475 0 0  -4.4625 0 0  -4.45 0 0  -4.4375 0 0  -4.425 0 0  -4.4125 0 0  -4.4 0 0  -4.3875 0 0  -4.375 0 0  -4.3625 0 0  -4.35 0 0  -4.3375 0 0  -4.325 0 0  -4.3125 0 0  -4.3 0 0  -4.2875 0 0  -4.275 0 0  -4.2625 0 0  -4.25 0 0  -4.2375 0 0  -4.225 0 0  -4.2125 0 0  -4.2 0 0  -4.1875 0 0  -4.175 0 0  -4.1625 0 0  -4.15 0 0  -4.1375 0 0  -4.125 0 0  -4.1125 0 0  -4.1 0 0  -4.0875 0 0  -4.075 0 0  -4.0625 0 0  -4.05 0 0  -4.0375 0 0  -4.025 0 0  -4.0125 0 0  -4 0 0  -3.9875 0 0  -3.975 0 0  -3.9625 0 0  -3.95 0 0  -3.9375 0 0  -3.925 0 0  -3.9125 0 0  -3.9 0 0  -3.8875 0 0  -3.875 0 0  -3.8625 0 0  -3.85 0 0  -3.8375 0 0  -3.825 0 0  -3.8125 0 0  -3.8 0 0  -3.7875 0 0  -3.775 0 0  -3.7625 0 0  -3.75 0 0  -3.7375 0 0  -3.725 0 0  -3.7125 0 0  -3.7 0 0  -3.6875 0 0  -3.675 0 0  -3.6625 0 0  -3.65 0 0  -3.6375 0 0  -3.625 0 0  -3.6125 0 0  -3.6 0 0  -3.5875 0 0  -3.575 0 0  -3.5625 0 0  -3.55 0 0  -3.5375 0 0  -3.525 0 0  -3.5125 0 0  -3.5 0 0  -3.4875 0 0  -3.475 0 0  -3.4625 0 0  -3.45 0 0  -3.4375 0 0  -3.425 0 0  -3.4125 0 0  -3.4 0 0  -3.3875 0 0  -3.375 0 0  -3.3625 0 0  -3.35 0 0  -3.3375 0 0  -3.325 0 0  -3.3125 0 0  -3.3 0 0  -3.2875 0 0  -3.275 0 0  -3.2625 0 0  -3.25 0 0  -3.2375 0 0  -3.225 0 0  -3.2125 0 0  -3.2 0 0  -3.1875 0 0  -3.175 0 0  -3.1625 0 0  -3.15 0 0  -3.1375 0 0  -3.125 0 0  -3.1125 0 0  -3.1 0 0  -3.0875 0 0  -3.075 0 0  -3.0625 0 0  -3.05 0 0  -3.0375 0 0  -3.025 0 0  -3.0125 0 0  -3 0 0  -2.9875 0 0  -2.975 0 0  -2.9625 0 0  -2.95 0 0  -2.9375 0 0  -2.925 0 0  -2.9125 0 0  -2.9 0 0  -2.8875 0 0  -2.875 0 0  -2.8625 0 0  -2.85 0 0  -2.8375 0 0  -2.825 0 0  -2.8125 0 0  -2.8 0 0  -2.7875 0 0  -2.775 0 0  -2.7625 0 0  -2.75 0 0  -2.7375 0 0  -2.725 0 0  -2.7125 0 0  -2.7 0 0  -2.6875 0 0  -2.675 0 0  -2.6625 0 0  -2.65 0 0  -2.6375 0 0  -2.625 0 0  -2.6125 0 0  -2.6 0 0  -2.5875 0 0  -2.575 0 0  -2.5625 0 0  -2.55 0 0  -2.5375 0 0  -2.525 0 0  -2.5125 0 0  -2.5 0 0  -2.4875 0 0  -2.475 0 0  -2.4625 0 0  -2.45 0 0  -2.4375 0 0  -2.425 0 0  -2.4125 0 0  -2.4 0 0  -2.3875 0 0  -2.375 0 0  -2.3625 0 0  -2.35 0 0  -2.3375 0 0  -2.325 0 0  -2.3125 0 0  -2.3 0 0  -2.2875 0 0  -2.275 0 0  -2.2625 0 0  -2.25 0 0  -2.2375 0 0  -2.225 0 0  -2.2125 0 0  -2.2 0 0  -2.1875 0 0  -2.175 0 0  -2.1625 0 0  -2.15 0 0  -2.1375 0 0  -2.125 0 0  -2.1125 0 0  -2.1 0 0  -2.0875 0 0  -2.075 0 0  -2.0625 0 0  -2.05 0 0  -2.0375 0 0  -2.025 0 0  -2.0125 0 0  -2 0 0  -1.9875 0 0  -1.975 0 0  -1.9625 0 0  -1.95 0 0  -1.9375 0 0  -1.925 0 0  -1.9125 0 0  -1.9 0 0  -1.8875 0 0  -1.875 0 0  -1.8625 0 0  -1.85 0 0  -1.8375 0 0  -1.825 0 0  -1.8125 0 0  -1.8 0 0  -1.7875 0 0  -1.775 0 0  -1.7625 0 0  -1.75 0 0  -1.7375 0 0  -1.725 0 0  -1.7125 0 0  -1.7 0 0  -1.6875 0 0  -1.675 0 0  -1.6625 0 0  -1.65 0 0  -1.6375 0 0  -1.625 0 0  -1.6125 0 0  -1.6 0 0  -1.5875 0 0  -1.575 0 0  -1.5625 0 0  -1.55 0 0  -1.5375 0 0  -1.525 0 0  -1.5125 0 0  -1.5 0 0  -1.4875 0 0  -1.475 0 0  -1.4625 0 0  -1.45 0 0  -1.4375 0 0  -1.425 0 0  -1.4125 0 0  -1.4 0 0  -1.3875 0 0  -1.375 0 0  -1.3625 0 0  -1.35 0 0  -1.3375 0 0  -1.325 0 0  -1.3125 0 0  -1.3 0 0  -1.2875 0 0  -1.275 0 0  -1.2625 0 0  -1.25 0 0  -1.2375 0 0  -1.225 0 0  -1.2125 0 0  -1.2 0 0  -1.1875 0 0  -1.175 0 0  -1.1625 0 0  -1.15 0 0  -1.1375 0 0  -1.125 0 0  -1.1125 0 0  -1.1 0 0  -1.0875 0 0  -1.075 0 0  -1.0625 0 0  -1.05 0 0  -1.0375 0 0  -1.025 0 0  -1.0125 0 0  -1 0 0  -0.9874999999999998 0 0  -0.9749999999999996 0 0  -0.9625000000000004 0 0  -0.9500000000000002 0 0  -0.9375 0 0  -0.9249999999999998 0 0  -0.9124999999999996 0 0  -0.9000000000000004 0 0  -0.8875000000000002 0 0  -0.875 0 0  -0.8624999999999998 0 0  -0.8499999999999996 0 0  -0.8375000000000004 0 0  -0.8250000000000002 0 0  -0.8125 0 0  -0.7999999999999998 0 0  -0.7874999999999996 0 0  -0.7750000000000004 0 0  -0.7625000000000002 0 0  -0.75 0 0  -0.7374999999999998 0 0  -0.7249999999999996 0 0  -0.7125000000000004 0 0  -0.7000000000000002 0 0  -0.6875 0 0  -0.6749999999999998 0 0  -0.6624999999999996 0 0  -0.6500000000000004 0 0  -0.6375000000000002 0 0  -0.625 0 0  -0.6124999999999998 0 0  -0.5999999999999996 0 0  -0.5875000000000004 0 0  -0.5750000000000002 0 0  -0.5625 0 0  -0.5499999999999998 0 0  -0.5374999999999996 0 0  -0.5250000000000004 0 0  -0.5125000000000002 0 0  -0.5 0 0  -0.4874999999999998 0 0  -0.4749999999999996 0 0  -0.4625000000000004 0 0  -0.4500000000000002 0 0  -0.4375 0 0  -0.4249999999999998 0 0  -0.4124999999999996 0 0  -0.4000000000000004 0 0  -0.3875000000000002 0 0  -0.375 0 0  -0.3624999999999998 0 0  -0.3499999999999996 0 0  -0.3375000000000004 0 0  -0.3250000000000002 0 0  -0.3125 0 0  -0.2999999999999998 0 0  -0.2874999999999996 0 0  -0.2750000000000004 0 0  -0.2625000000000002 0 0  -0.25 0 0  -0.2374999999999998 0 0  -0.2249999999999996 0 0  -0.2125000000000004 0 0  -0.2000000000000002 0 0  -0.1875 0 0  -0.1749999999999998 0 0  -0.1624999999999996 0 0  -0.1500000000000004 0 0  -0.1375000000000002 0 0  -0.125 0 0  -0.1124999999999998 0 0  -0.09999999999999964 0 0  -0.08750000000000036 0 0  -0.07500000000000018 0 0  -0.0625 0 0  -0.04999999999999982 0 0  -0.03749999999999964 0 0  -0.02500000000000036 0 0  -0.01250000000000018 0 0  0 0 0  0.01250000000000018 0 0  0.02500000000000036 0 0  0.03749999999999964 0 0  0.04999999999999982 0 0  0.0625 0 0  0.07500000000000018 0 0  0.08750000000000036 0 0  0.09999999999999964 0 0  0.1124999999999998 0 0  0.125 0 0  0.1375000000000002 0 0  0.1500000000000004 0 0  0.1624999999999996 0 0  0.1749999999999998 0 0  0.1875 0 0  0.2000000000000002 0 0  0.2125000000000004 0 0  0.2249999999999996 0 0  0.2374999999999998 0 0  0.25 0 0  0.2625000000000002 0 0  0.2750000000000004 0 0  0.2874999999999996 0 0  0.2999999999999998 0 0  0.3125 0 0  0.3250000000000002 0 0  0.3375000000000004 0 0  0.3499999999999996 0 0  0.3624999999999998 0 0  0.375 0 0  0.3875000000000002 0 0  0.4000000000000004 0 0  0.4124999999999996 0 0  0.4249999999999998 0 0  0.4375 0 0  0.4500000000000002 0 0  0.4625000000000004 0 0  0.4749999999999996 0 0  0.4874999999999998 0 0  0.5 0 0  0.5125000000000002 0 0  0.5250000000000004 0 0  0.5374999999999996 0 0  0.5499999999999998 0 0  0.5625 0 0  0.5750000000000002 0 0  0.5875000000000004 0 0  0.5999999999999996 0 0  0.6124999999999998 0 0  0.625 0 0  0.6375000000000002 0 0  0.6500000000000004 0 0  0.6624999999999996 0 0  0.6749999999999998 0 0  0.6875 0 0  0.7000000000000002 0 0  0.7125000000000004 0 0  0.7249999999999996 0 0  0.7374999999999998 0 0  0.75 0 0  0.7625000000000002 0 0  0.7750000000000004 0 0  0.7874999999999996 0 0  0.7999999999999998 0 0  0.8125 0 0  0.8250000000000002 0 0  0.8375000000000004 0 0  0.8499999999999996 0 0  0.8624999999999998 0 0  0.875 0 0  0.8875000000000002 0 0  0.9000000000000004 0 0  0.9124999999999996 0 0  0.9249999999999998 0 0  0.9375 0 0  0.9500000000000002 0 0  0.9625000000000004 0 0  0.9749999999999996 0 0  0.9874999999999998 0 0  1 0 0  1.0125 0 0  1.025 0 0  1.0375 0 0  1.05 0 0  1.0625 0 0  1.075 0 0  1.0875 0 0  1.1 0 0  1.1125 0 0  1.125 0 0  1.1375 0 0  1.15 0 0  1.1625 0 0  1.175 0 0  1.1875 0 0  1.2 0 0  1.2125 0 0  1.225 0 0  1.2375 0 0  1.25 0 0  1.2625 0 0  1.275 0 0  1.2875 0 0  1.3 0 0  1.3125 0 0  1.325 0 0  1.3375 0 0  1.35 0 0  1.3625 0 0  1.375 0 0  1.3875 0 0  1.4 0 0  1.4125 0 0  1.425 0 0  1.4375 0 0  1.45 0 0  1.4625 0 0  1.475 0 0  1.4875 0 0  1.5 0 0  1.5125 0 0  1.525 0 0  1.5375 0 0  1.55 0 0  1.5625 0 0  1.575 0 0  1.5875 0 0  1.6 0 0  1.6125 0 0  1.625 0 0  1.6375 0 0  1.65 0 0  1.6625 0 0  1.675 0 0  1.6875 0 0  1.7 0 0  1.7125 0 0  1.725 0 0  1.7375 0 0  1.75 0 0  1.7625 0 0  1.775 0 0  1.7875 0 0  1.8 0 0  1.8125 0 0  1.825 0 0  1.8375 0 0  1.85 0 0  1.8625 0 0  1.875 0 0  1.8875 0 0  1.9 0 0  1.9125 0 0  1.925 0 0  1.9375 0 0  1.95 0 0  1.9625 0 0  1.975 0 0  1.9875 0 0  2 0 0  2.0125 0 0  2.025 0 0  2.0375 0 0  2.05 0 0  2.0625 0 0  2.075 0 0  2.0875 0 0  2.1 0 0  2.1125 0 0  2.125 0 0  2.1375 0 0  2.15 0 0  2.1625 0 0  2.175 0 0  2.1875 0 0  2.2 0 0  2.2125 0 0  2.225 0 0  2.2375 0 0  2.25 0 0  2.2625 0 0  2.275 0 0  2.2875 0 0  2.3 0 0  2.3125 0 0  2.325 0 0  2.3375 0 0  2.35 0 0  2.3625 0 0  2.375 0 0  2.3875 0 0  2.4 0 0  2.4125 0 0  2.425 0 0  2.4375 0 0  2.45 0 0  2.4625 0 0  2.475 0 0  2.4875 0 0  2.5 0 0  2.5125 0 0  2.525 0 0  2.5375 0 0  2.55 0 0  2.5625 0 0  2.575 0 0  2.5875 0 0  2.6 0 0  2.6125 0 0  2.625 0 0  2.6375 0 0  2.65 0 0  2.6625 0 0  2.675 0 0  2.6875 0 0  2.7 0 0  2.7125 0 0  2.725 0 0  2.7375 0 0  2.75 0 0  2.7625 0 0  2.775 0 0  2.7875 0 0  2.8 0 0  2.8125 0 0  2.825 0 0  2.8375 0 0  2.85 0 0  2.8625 0 0  2.875 0 0  2.8875 0 0  2.9 0 0  2.9125 0 0  2.925 0 0  2.9375 0 0  2.95 0 0  2.9625 0 0  2.975 0 0  2.9875 0 0  3 0 0  3.012499999999999 0 0  3.025 0 0  3.0375 0 0  3.050000000000001 0 0  3.0625 0 0  3.074999999999999 0 0  3.0875 0 0  3.1 0 0  3.112500000000001 0 0  3.125 0 0  3.137499999999999 0 0  3.15 0 0  3.1625 0 0  3.175000000000001 0 0  3.1875 0 0  3.199999999999999 0 0  3.2125 0 0  3.225 0 0  3.237500000000001 0 0  3.25 0 0  3.262499999999999 0 0  3.275 0 0  3.2875 0 0  3.300000000000001 0 0  3.3125 0 0  3.324999999999999 0 0  3.3375 0 0  3.35 0 0  3.362500000000001 0 0  3.375 0 0  3.387499999999999 0 0  3.4 0 0  3.4125 0 0  3.425000000000001 0 0  3.4375 0 0  3.449999999999999 0 0  3.4625 0 0  3.475 0 0  3.4875
[...]
<PointData  Vectors="(h, u)"> 
<DataArray  type="Float64"  Name="(h, u)"  NumberOfComponents="3" format="ascii">1.1034336767258927e-01 0.0000000000000000e+00 0.0000000000000000e+00  1.0836665147050159e-01 3.4329866778456406e-03 0.0000000000000000e+00  1.1031579297732376e-01 9.8123971762021662e-03 0.0000000000000000e+00  1.0841367061172233e-01 1.0309489477494450e-02 0.0000000000000000e+00  1.1023621404436186e-01 1.9606985870128685e-02 0.0000000000000000e+00  1.0850169134114215e-01 1.7220953180723080e-02 0.0000000000000000e+00  1.1011340489555131e-01 2.9362827930114899e-02 0.0000000000000000e+00  1.0861995604623866e-01 2.4198673938847559e-02 0.0000000000000000e+00  1.0996004390630722e-01 3.9052284618389853e-02 0.0000000000000000e+00  1.0875507194257279e-01 3.1278303632020249e-02 0.0000000000000000e+00  1.0979046469191540e-01 4.8640400029200163e-02 0.0000000000000000e+00  1.0889320480328728e-01 3.8494545243174347e-02 0.0000000000000000e+00  1.0961837018789308e-01 5.8091147087027159e-02 0.0000000000000000e+00  1.0902181184478726e-01 4.5876274248040569e-02 0.0000000000000000e+00  1.0945495956445014e-01 6.7378490289709131e-02 0.0000000000000000e+00  1.0913093223940425e-01 5.3440757663634014e-02 0.0000000000000000e+00  1.0930788626179228e-01 7.6494851004990497e-02 0.0000000000000000e+00  1.0921426275326085e-01 6.1185663449074570e-02 0.0000000000000000e+00  1.0918107870760878e-01 8.5452583633197701e-02 0.0000000000000000e+00  1.0926975181259943e-01 6.9084194197944815e-02 0.0000000000000000e+00  1.0907494934128169e-01 9.4281305797475221e-02 0.0000000000000000e+00  1.0929910862901339e-01 7.7091245902303485e-02 0.0000000000000000e+00  1.0898670694678719e-01 1.0302407658473757e-01 0.0000000000000000e+00  1.0930631242264309e-01 8.5159277055565655e-02 0.0000000000000000e+00  1.0891126077246864e-01 1.1172865212623329e-01 0.0000000000000000e+00  1.0929611977792092e-01 9.3252222548463978e-02 0.0000000000000000e+00  1.0884317095705505e-01 1.2043045596168658e-01 0.0000000000000000e+00  1.0927318652958079e-01 1.0135019117988150e-01 0.0000000000000000e+00  1.0877878000327083e-01 1.2913635324242084e-01 0.0000000000000000e+00  1.0924118967742548e-01 1.0945100426987910e-01 0.0000000000000000e+00  1.0871691879687111e-01 1.3782492569637708e-01 0.0000000000000000e+00  1.0920146681114838e-01 1.1757383320249806e-01 0.0000000000000000e+00  1.0865804463393076e-01 1.4646455294326702e-01 0.0000000000000000e+00  1.0915237313234834e-01 1.2575361466248233e-01 0.0000000000000000e+00  1.0860355006134337e-01 1.5503258623215666e-01 0.0000000000000000e+00  1.0909073977069679e-01 1.3401311233184290e-01 0.0000000000000000e+00  1.0855626957263204e-01 1.6352545281249858e-01 0.0000000000000000e+00  1.0901400184274228e-01 1.4232737006496893e-01 0.0000000000000000e+00  1.0852091984389250e-01 1.7197043007341817e-01 0.0000000000000000e+00  1.0891958968218696e-01 1.5061528940196250e-01 0.0000000000000000e+00  1.0850357912586202e-01 1.8044517449288741e-01 0.0000000000000000e+00  1.0880117118267860e-01 1.5876469253353240e-01 0.0000000000000000e+00  1.0851224933102671e-01 1.8908264687225421e-01 0.0000000000000000e+00  1.0864604378322702e-01 1.6665170536962173e-01 0.0000000000000000e+00  1.0856009937611302e-01 1.9804356094676268e-01 0.0000000000000000e+00  1.0843711860022924e-01 1.7412287652131958e-01 0.0000000000000000e+00  1.0866748349497832e-01 2.0749151243240954e-01 0.0000000000000000e+00  1.0815700501535558e-01 1.8096467521751178e-01 0.0000000000000000e+00  1.0885700570755756e-01 2.1762416835851781e-01 0.0000000000000000e+00  1.0778998437754413e-01 1.8690120221952639e-01 0.0000000000000000e+00  1.0914431876963018e-01 2.2873439256497863e-01 0.0000000000000000e+00  1.0732287750781508e-01 1.9161165966318272e-01 0.0000000000000000e+00  1.0953556400610499e-01 2.4119684958669896e-01 0.0000000000000000e+00  1.0674773955764433e-01 1.9474186227095214e-01 0.0000000000000000e+00  1.1003525864863367e-01 2.5534332498314266e-01 0.0000000000000000e+00  1.0606268493574061e-01 1.9594777728405105e-01 0.0000000000000000e+00  1.1065311526923219e-01 2.7133674579341471e-01 0.0000000000000000e+00  1.0526538287491033e-01 1.9502457957994979e-01 0.0000000000000000e+00  1.1139926172708270e-01 2.8914604138088068e-01 0.0000000000000000e+00  1.0434663809296990e-01 1.9204807003105787e-01 0.0000000000000000e+00  1.1227552295250701e-01 3.0855566552796615e-01 0.0000000000000000e+00  1.0329875850296641e-01 1.8737803494318836e-01 0.0000000000000000e+00  1.1327494589399281e-01 3.2910948670332052e-01 0.0000000000000000e+00  1.0213435599612754e-01 1.8154688412618364e-01 0.0000000000000000e+00  1.1438169705590791e-01 3.5008262799728784e-01 0.0000000000000000e+00  1.0089184920838654e-01 1.7524177634652163e-01 0.0000000000000000e+00  1.1555762764527909e-01 3.7062279706048101e-01 0.0000000000000000e+00  9.9624018359687358e-02 1.6939860311058583e-01 0.0000000000000000e+00  1.1673082980509634e-01 3.8992562656954138e-01 0.0000000000000000e+00  9.8395751671826195e-02 1.6513307796121637e-01 0.0000000000000000e+00  1.1781137647020024e-01 4.0722112632159452e-01 0.0000000000000000e+00  9.7295084585794417e-02 1.6345026866073498e-01 0.0000000000000000e+00  1.1871649378542569e-01 4.2173445152002326e-01 0.0000000000000000e+00  9.6420297079041109e-02 1.6511366867919405e-01 0.0000000000000000e+00  1.1937246825725498e-01 4.3288735858241084e-01 0.0000000000000000e+00  9.5836868396122446e-02 1.7078522835889620e-01 0.0000000000000000e+00  1.1972115838722724e-01 4.4044078743414278e-01 0.0000000000000000e+00  9.5556578389476232e-02 1.8096940994899707e-01 0.0000000000000000e+00  1.1976583010026229e-01 4.4422935622339388e-01 0.0000000000000000e+00  9.5551119351580047e-02 1.9570335572171915e-01 0.0000000000000000e+00  1.1959342792628123e-01 4.4402137972188305e-01 0.0000000000000000e+00  9.5746873750519712e-02 2.1460513582922000e-01 0.0000000000000000e+00  1.1931760584614208e-01 4.3998601027647261e-01 0.0000000000000000e+00  9.6018880422731309e-02 2.3711685799948481e-01 0.0000000000000000e+00  1.1902963643704978e-01 4.3298818489278218e-01 0.0000000000000000e+00  9.6256591261789828e-02 2.6216925015715181e-01 0.0000000000000000e+00  1.1880805247170631e-01 4.2425011793647055e-01 0.0000000000000000e+00  9.6430335463774136e-02 2.8790298242904649e-01 0.0000000000000000e+00  1.1868512070637358e-01 4.1533324385747367e-01 0.0000000000000000e+00  9.6552317341205549e-02 3.1238180523266446e-01 0.0000000000000000e+00  1.1859902183722472e-01 4.0826197959410032e-01 0.0000000000000000e+00  9.6647738427006066e-02 3.3409970680295531e-01 0.0000000000000000e+00  1.1846876261584419e-01 4.0459560144526513e-01 0.0000000000000000e+00  9.6798056386700790e-02 3.5170658410040806e-01 0.0000000000000000e+00  1.1825934998757408e-01 4.0475258584450097e-01 0.0000000000000000e+00  9.7078242965706996e-02 3.6463747885171260e-01 0.0000000000000000e+00  1.1792050285477104e-01 4.0872172842203408e-01 0.0000000000000000e+00  9.7480190037167777e-02 3.7370938064581588e-01 0.0000000000000000e+00  1.1741715571022385e-01 4.1600980114989489e-01 0.0000000000000000e+00  9.8009592089294065e-02 3.7993013488345473e-01 0.0000000000000000e+00  1.1680496634429842e-01 4.2518444672604999e-01 0.0000000000000000e+00  9.8674443576721282e-02 3.8428197198234476e-01 0.0000000000000000e+00  1.1612003839706914e-01 4.3516475894087403e-01 0.0000000000000000e+00  9.9383773155082178e-02 3.8840752297677578e-01 0.0000000000000000e+00  1.1537994539662540e-01 4.4536284512428648e-01 0.0000000000000000e+00  1.0008315767715055e-01 3.9316664971818155e-01 0.0000000000000000e+00  1.1469506502088918e-01 4.5465670917733775e-01 0.0000000000000000e+00  1.0075658901111023e-01 3.9863317229505463e-01 0.0000000000000000e+00  1.1410745816480367e-01 4.6284396715473713e-01 0.0000000000000000e+00  1.0130563885718778e-01 4.0539291272159717e-01 0.0000000000000000e+00  1.1359893621108363e-01 4.7042670036218343e-01 0.0000000000000000e+00  1.0174370245904570e-01 4.1288122478122036e-01 0.0000000000000000e+00  1.1322789187646755e-01 4.7716069595630756e-01 0.0000000000000000e+00  1.0213448268837932e-01 4.2016351341962577e-01 0.0000000000000000e+00  1.1291658828193747e-01 4.8396402374371938e-01 0.0000000000000000e+00  1.0244467471580010e-01 4.2743878719153705e-01 0.0000000000000000e+00  1.1259086457543632e-01 4.9155906646105668e-01 0.0000000000000000e+00  1.0278162501175324e-01 4.3375402751142977e-01 0.0000000000000000e+00  1.1229604521796754e-01 4.9940684745024516e-01 0.0000000000000000e+00  1.0316517589328050e-01 4.3912991759084097e-01 0.0000000000000000e+00  1.1193511913359488e-01 5.0826559161333706e-01 0.0000000000000000e+00  1.0351554659963312e-01 4.4457490444259090e-01 0.0000000000000000e+00  1.1158167131597004e-01 5.1729549731605606e-01 0.0000000000000000e+00  1.0390323541972976e-01 4.4959777808770213e-01 0.0000000000000000e+00  1.1132325578457222e-01 5.2556459182839910e-01 0.0000000000000000e+00  1.0418059458240209e-01 4.5571135439925364e-01 0.0000000000000000e+00  1.1110148208431771e-01 5.3354520798613392e-01 0.0000000000000000e+00  1.0433263987498015e-01 4.6305363739528616e-01 0.0000000000000000e+00  1.1108060483358224e-01 5.3961390813281540e-01 0.0000000000000000e+00  1.0440870417816202e-01 4.7110709631801362e-01 0.0000000000000000e+00  1.1113751330632630e-01 5.4486741925755766e-01 0.0000000000000000e+00  1.0429825761723556e-01 4.8091474136673051e-01 0.0000000000000000e+00  1.1125796425519467e-01 5.4939876172508606e-01 0.0000000000000000e+00  1.0422615085220964e-01 4.9033078835882632e-01 0.0000000000000000e+00  1.1144851520764248e-01 5.5314469648096332e-01 0.0000000000000000e+00  1.0410940090455198e-01 5.0019130696246084e-01 0.0000000000000000e+00  1.1149257960127440e-01 5.5818361986706011e-01 0.0000000000000000e+00  1.0407087736833405e-01 5.0932519562985823e-01 0.0000000000000000e+00  1.1157410754281918e-01 5.6282782500017114e-01 0.0000000000000000e+00  1.0416185358330241e-01 5.1720595321416230e-01 0.0000000000000000e+00  1.1146373600919075e-01 5.6931401636519152e-01 0.0000000000000000e+00  1.0422857240225444e-01 5.2524588506177394e-01 0.0000000000000000e+00  1.1135683545252724e-01 5.7585373468671330e-01 0.0000000000000000e+00  1.0448712343679108e-01 5.3131733582630025e-01 0.0000000000000000e+00  1.1120367635920464e-01 5.8296410811765709e-01 0.0000000000000000e+00  1.0460790602066043e-01 5.3856203723536866e-01 0.0000000000000000e+00  1.1099830877392425e-01 5.9071588443614464e-01 0.0000000000000000e+00  1.0487682953338004e-01 5.4425081905400297e-01 0.0000000000000000e+00  1.1091707592978897e-01 5.9741742791139363e-01 0.0000000000000000e+00  1.0499373598741454e-01 5.5130680847613434e-01 0.0000000000000000e+00  1.1069694647459981e-01 6.0551416924969215e-01 0.0000000000000000e+00  1.0518108630004197e-01 5.5763592263168127e-01 0.0000000000000000e+00  1.1070149774872434e-01 6.1151414267942394e-01 0.0000000000000000e+00  1.0529815054249764e-01 5.6462597563850081e-01 0.0000000000000000e+00  1.1048269123173518e-01 6.1962220975355609e-01 0.0000000000000000e+00  1.0540416903570840e-01 5.7172061493717341e-01 0.0000000000000000e+00  1.1054336927631156e-01 6.2506314562294052e-01 0.0000000000000000e+00  1.0557595469171373e-01 5.7818511507961534e-01 0.0000000000000000e+00  1.1033783447411455e-01 6.3300647919626263e-01 0.0000000000000000e+00  1.0563075100567848e-01 5.8575741638957401e-01 0.0000000000000000e+00  1.1040035081430488e-01 6.3840934408828554e-01 0.0000000000000000e+00  1.0583289574680285e-01 5.9189040636893042e-01 0.0000000000000000e+00  1.1016255501177449e-01 6.4666549499922166e-01 0.0000000000000000e+00  1.0583745912859344e-01 5.9988093786580710e-01 0.0000000000000000e+00  1.1023279077009673e-01 6.5202171929282704e-01 0.0000000000000000e+00  1.0609025394698952e-01 6.0546240443968424e-01 0.0000000000000000e+00  1.0998700809430691e-01 6.6037586417822625e-01 0.0000000000000000e+00  1.0608150006844436e-01 6.1353846093618958e-01 0.0000000000000000e+00  1.1008999164483996e-01 6.6541187956655301e-01 0.0000000000000000e+00  1.0634831710923817e-01 6.1899482628314573e-01 0.0000000000000000e+00  1.0978225884529630e-01 6.7428847229734168e-01 0.0000000000000000e+00  1.0631889801517393e-01 6.2733814371176400e-01 0.0000000000000000e+00  1.0992988475133668e-01 6.7878306344598416e-01 0.0000000000000000e+00  1.0656307353444416e-01 6.3312837572926151e-01 0.0000000000000000e+00  1.0955397087699191e-01 6.8815945563379577e-01 0.0000000000000000e+00  1.0659661182479870e-01 6.4098750471318411e-01 0.0000000000000000e+00  1.0982034442374199e-01 6.9141086648768646e-01 0.0000000000000000e+00  1.0677745773363607e-01 6.4744636112124021e-01 0.0000000000000000e+00  1.0941110215202697e-01 7.0107201498534322e-01 0.0000000000000000e+00  1.0697771943020484e-01 6.5364938667968253e-01 0.0000000000000000e+00  1.0977028359606171e-01 7.0355623894263930e-01 0.0000000000000000e+00  1.0690951470908124e-01 6.6227859794603716e-01 0.0000000000000000e+00  1.0936144354334627e-01 7.1347676760822909e-01 0.0000000000000000e+00  1.0731938084746241e-01 6.6611092196494059e-01 0.0000000000000000e+00  1.0960455794321024e-01 7.1745348771375916e-01 0.0000000000000000e+00  1.0686785639482824e-01 6.7793370807857478e-01 0.0000000000000000e+00  1.0943442122639317e-01 7.2557846124665304e-01 0.0000000000000000e+00  1.0747799381094007e-01 6.7934213054673132e-01 0.0000000000000000e+00  1.0931478333501066e-01 7.3345590562948026e-01 0.0000000000000000e+00  1.0690372058425475e-01 6.9185393663928441e-01 0.0000000000000000e+00  1.0972590655346080e-01 7.3649031184493630e-01 0.0000000000000000e+00  1.0731322216944814e-01 6.9477629386711404e-01 0.0000000000000000e+00  1.0905492994561185e-01 7.4991311072577371e-01 0.0000000000000000e+00  1.0728242769263956e-01 7.0177811373735643e-01 0.0000000000000000e+00  1.0998329200371261e-01 7.4828369243013559e-01 0.0000000000000000e+00  1.0685656191217617e-01 7.1248067720800790e-01 0.0000000000000000e+00  1.0930475810930078e-01 7.6189595269394816e-01 0.0000000000000000e+00  1.0770350552116083e-01 7.1098979327593026e-01 0.0000000000000000e+00  1.0951475729193151e-01 7.6709166548518615e-01 0.0000000000000000e+00  1.0666324949775623e-01 7.2757369597087918e-01 0.0000000000000000e+00  1.1030256250230502e-01 7.6674547359636858e-01 0.0000000000000000e+00  1.0736311227169132e-01 7.2757894896442821e-01 0.0000000000000000e+00  1.0898387826275892e-01 7.8627832950238397e-01 0.0000000000000000e+00  1.0748975887559888e-01 7.3310698398916474e-01 0.0000000000000000e+00  1.1032061449340026e-01 7.8063769047802900e-01 0.0000000000000000e+00  1.0613602095160668e-01 7.5281672282020939e-01 0.0000000000000000e+00  1.1031391140249489e-01 7.8764523921111296e-01 0.0000000000000000e+00  1.0785257532854683e-01 7.4322625149156707e-01 0.0000000000000000e+00  1.0919828182425237e-01 8.0514442366996086e-01 0.0000000000000000e+00  1.0719617253675286e-01 7.5626279132830931e-01 0.0000000000000000e+00  1.1123873409078457e-01 7.9285632088550440e-01 0.0000000000000000e+00  1.0541034541244546e-01 7.7997697473917627e-01 0.0000000000000000e+00  1.1057261264464098e-01 8.0622752885825122e-01 0.0000000000000000e+00  1.0762217876710277e-01 7.6546432192692404e-01 0.0000000000000000e+00  1.0889616343880516e-01 8.2921425787547220e-01 0.0000000000000000e+00  1.0691148201233461e-01 7.7879429692431712e-01 0.0000000000000000e+00  1.1201075834681283e-01 8.0692426554852303e-01 0.0000000000000000e+00  1.0456410157347151e-01 8.0765684923607584e-01 0.0000000000000000e+00  1.1225699586111285e-01 8.1174568521928037e-01 0.0000000000000000e+00  1.0718867647166250e-01 7.8922735253599219e-01 0.0000000000000000e+00  1.0890301601723718e-01 8.5051556290403807e-01 0.0000000000000000e+00  1.0894335396095722e-01 7.7910244082771585e-01 0.0000000000000000e+00  1.0996804003258830e-01 8.4739392351597176e-01 0.0000000000000000e+00  1.0556286948811022e-01 8.1823634421314173e-01 0.0000000000000000e+00  1.1335618623601366e-01 8.2195014115057707e-01 0.0000000000000000e+00  1.0443394452060117e-01 8.3617735740502908e-01 0.0000000000000000e+00  1.1098761701050076e-01 8.5064900293364154e-01 0.0000000000000000e+00  1.0931442541130824e-01 7.9728794151101368e-01 0.0000000000000000e+00  1.0561414764137884e-01 9.0716191441426042e-01 0.0000000000000000e+00  1.1224757064146636e-01 7.7735101865352629e-01 0.0000000000000000e+00  1.0607352696045297e-01 9.0793642858311308e-01 0.0000000000000000e+00  1.0884531271517001e-01 8.1887686125001147e-01 0.0000000000000000e+00  1.1139779417459354e-01 8.6192228205301591e-01 0.0000000000000000e+00  1.0431245665358796e-01 8.7178924817715764e-01 0.0000000000000000e+00  1.1378830554345336e-01 8.4271883681448878e-01 0.0000000000000000e+00  1.0500736517599528e-01 8.7579341686518142e-01 0.0000000000000000e+00  1.1057577268164409e-01 8.7575647920549726e-01 0.0000000000000000e+00  1.1005358307548398e-01 8.3918161107896183e-01 0.0000000000000000e+00  1.0502602315007478e-01 9.3005669890162601e-01 0.0000000000000000e+00  1.1470899793391852e-01 8.0676407691212337e-01 0.0000000000000000e+00  1.0126377585469684e-01 9.6693402590153521e-01 0.0000000000000000e+00  1.1674393645493790e-01 7.9972292991728822e-01 0.0000000000000000e+00  1.0045412486749156e-01 9.7560676375016864e-01 0.0000000000000000e+00  1.1668243795870040e-01 8.1281440894488222e-01 0.0000000000000000e+00  1.0149236242848331e-01 9.6700429598378890e-01 0.0000000000000000e+00  1.1565148801690096e-01 8.3463187267948258e-01 0.0000000000000000e+00  1.0309619436292988e-01 9.5397728246217728e-01 0.0000000000000000e+00  1.1446323538570359e-01 8.5665046056696337e-01 0.0000000000000000e+00  1.0457907932559642e-01 9.4374830566206247e-01 0.0000000000000000e+00  1.1358976382275313e-01 8.7360173387564188e-01 0.0000000000000000e+00  1.0570462572608964e-01 9.3926386160148057e-01 0.0000000000000000e+00  1.1331731617353630e-01 8.8212022005149504e-01 0.0000000000000000e+00  1.0649610585269614e-01 9.4089830758579074e-01 0.0000000000000000e+00  1.1387839985881372e-01 8.7963067444179421e-01 0.0000000000000000e+00  1.0734551285094726e-01 9.4520924085660341e-01 0.0000000000000000e+00  1.1525038217970893e-01 8.6638104757101764e-01 0.0000000000000000e+00  1.0945331327257024e-01 9.4069108365371723e-01 0.0000000000000000e+00  1.2002779210036427e-01 8.1896305029745975e-01 0.0000000000000000e+00  1.1266266329476859e-01 9.2857865987600752e-01 0.0000000000000000e+00  1.1551897252954024e-01 8.5594905919865560e-01 0.0000000000000000e+00  1.0498531614573067e-01 1.0188207617691249e+00 0.0000000000000000e+00  1.1292777957218619e-01 8.7564369173401257e-01 0.0000000000000000e+00  1.0383987463855900e-01 1.0474091686926525e+00 0.0000000000000000e+00  9.1207788000146756e-02 1.0849248577791457e+00 0.0000000000000000e+00  1.0051263259250516e-01 1.0955870602333393e+00 0.0000000000000000e+00  1.1141862871343867e-01 8.8409017944058588e-01 0.0000000000000000e+00  1.0385613599369468e-01 1.0764287071223864e+00 0.0000000000000000e+00  1.1006406373777991e-01 8.9909053279798135e-01 0.0000000000000000e+00  1.0578163181687446e-01 1.0681244111796349e+00 0.0000000000000000e+00  1.0610067005359412e-01 9.4192637228341181e-01 0.0000000000000000e+00  1.1243009428814353e-01 1.0122029424501851e+00 0.0000000000000000e+00  1.0663251998142313e-01 9.4387248889351316e-01 0.0000000000000000e+00  1.1664201319773457e-01 9.7825729330044486e-01 0.0000000000000000e+00  1.0757222564540768e-01 9.4355732109756907e-01 0.0000000000000000e+00  1.1530247924899695e-01 9.9518256352557111e-01 0.0000000000000000e+00  1.1325580821832346e-01 8.9977126315783895e-01 0.0000000000000000e+00  1.1026543760351729e-01 1.0460091775223874e+00 0.0000000000000000e+00  9.2676801646654011e-02 1.1086621592697461e+00 0.0000000000000000e+00  1.1564234612305684e-01 9.9776042963485478e-01 0.0000000000000000e+00  1.0161332794680245e-01 1.0318477169577052e+00 0.0000000000000000e+00  1.1345591177744568e-01 1.0210766640445095e+00 0.0000000000000000e+00  1.1667561337138702e-01 9.0072676198722834e-01 0.0000000000000000e+00  1.2066663064445073e-01 9.5657733091684116e-01 0.0000000000000000e+00  1.1635953634851076e-01 9.1533841874300592e-01 0.0000000000000000e+00  1.064900