<?xml version="1.0"?>
<VTKFile type="UnstructuredGrid"  version="0.1"  >
<UnstructuredGrid>
<Piece  NumberOfPoints="801" NumberOfCells="800">
<Points>
<DataArray  type="Float64"  NumberOfComponents="3"  format="ascii">-5 0 0  -4.9875 0 0  -4.975 0 0  -4.9625 0 0  -4.95 0 0  -4.9375 0 0  -4.925 0 0  -4.9125 0 0  -4.9 0 0  -4.8875 0 0  -4.875 0 0  -4.8625 0 0  -4.85 0 0  -4.8375 0 0  -4.825 0 0  -4.8125 0 0  -4.8 0 0  -4.7875 0 0  -4.775 0 0  -4.7625 0 0  -4.75 0 0  -4.7375 0 0  -4.725 0 0  -4.7125 0 0  -4.7 0 0  -4.6875 0 0  -4.675 0 0  -4.6625 0 0  -4.65 0 0  -4.6375 0 0  -4.625 0 0  -4.6125 0 0  -4.6 0 0  -4.5875 0 0  -4.575 0 0  -4.5625 0 0  -4.55 0 0  -4.5375 0 0  -4.525 0 0  -4.5125 0 0  -4.5 0 0  -4.4875 0 0  -4.475 0 0  -4.4625 0 0  -4.45 0 0  -4.4375 0 0  -4.425 0 0  -4.4125 0 0  -4.4 0 0  -4.3875 0 0  -4.375 0 0  -4.3625 0 0  -4.35 0 0  -4.3375 0 0  -4.325 0 0  -4.3125 0 0  -4.3 0 0  -4.2875 0 0  -4.275 0 0  -4.2625 0 0  -4.25 0 0  -4.2375 0 0  -4.225 0 0  -4.2125 0 0  -4.2 0 0  -4.1875 0 0  -4.175 0 0  -4.1625 0 0  -4.15 0 0  -4.1375 0 0  -4.125 0 0  -4.1125 0 0  -4.1 0 0  -4.0875 0 0  -4.075 0 0  -4.0625 0 0  -4.05 0 0  -4.0375 0 0  -4.025 0 0  -4.0125 0 0  -4 0 0  -3.9875 0 0  -3.975 0 0  -3.9625 0 0  -3.95 0 0  -3.9375 0 0  -3.925 0 0  -3.9125 0 0  -3.9 0 0  -3.8875 0 0  -3.875 0 0  -3.8625 0 0  -3.85 0 0  -3.8375 0 0  -3.825 0 0  -3.8125 0 0  -3.8 0 0  -3.7875 0 0  -3.775 0 0  -3.7625 0 0  -3.75 0 0  -3.7375 0 0  -3.725 0 0  -3.7125 0 0  -3.7 0 0  -3.6875 0 0  -3.675 0 0  -3.6625 0 0  -3.65 0 0  -3.6375 0 0  -3.625 0 0  -3.6125 0 0  -3.6 0 0  -3.5875 0 0  -3.575 0 0  -3.5625 0 0  -3.55 0 0  -3.5375 0 0  -3.525 0 0  -3.5125 0 0  -3.5 0 0  -3.4875 0 0  -3.475 0 0  -3.4625 0 0  -3.45 0 0  -3.4375 0 0  -3.425 0 0  -3.4125 0 0  -3.4 0 0  -3.3875 0 0  -3.375 0 0  -3.3625 0 0  -3.35 0 0  -3.3375 0 0  -3.325 0 0  -3.3125 0 0  -3.3 0 0  -3.2875 0 0  -3.275 0 0  -3.2625 0 0  -3.25 0 0  -3.2375 0 0  -3.225 0 0  -3.2125 0 0  -3.2 0 0  -3.1875 0 0  -3.175 0 0  -3.1625 0 0  -3.15 0 0  -3.1375 0 0  -3.125 0 0  -3.1125 0 0  -3.1 0 0  -3.0875 0 0  -3.075 0 0  -3.0625 0 0  -3.05 0 0  -3.0375 0 0  -3.025 0 0  -3.0125 0 0  -3 0 0  -2.9875 0 0  -2.975 0 0  -2.9625 0 0  -2.95 0 0  -2.9375 0 0  -2.925 0 0  -2.9125 0 0  -2.9 0 0  -2.8875 0 0  -2.875 0 0  -2.8625 0 0  -2.85 0 0  -2.8375 0 0  -2.825 0 0  -2.8125 0 0  -2.8 0 0  -2.7875 0 0  -2.775 0 0  -2.7625 0 0  -2.75 0 0  -2.7375 0 0  -2.725 0 0  -2.7125 0 0  -2.7 0 0  -2.6875 0 0  -2.675 0 0  -2.6625 0 0  -2.65 0 0  -2.6375 0 0  -2.625 0 0  -2.6125 0 0  -2.6 0 0  -2.5875 0 0  -2.575 0 0  -2.5625 0 0  -2.55 0 0  -2.5375 0 0  -2.525 0 0  -2.5125 0 0  -2.5 0 0  -2.4875 0 0  -2.475 0 0  -2.4625 0 0  -2.45 0 0  -2.4375 0 0  -2.425 0 0  -2.4125 0 0  -2.4 0 0  -2.3875 0 0  -2.375 0 0  -2.3625 0 0  -2.35 0 0  -2.3375 0 0  -2.325 0 0  -2.3125 0 0  -2.3 0 0  -2.2875 0 0  -2.275 0 0  -2.2625 0 0  -2.25 0 0  -2.2375 0 0  -2.225 0 0  -2.2125 0 0  -2.2 0 0  -2.1875 0 0  -2.175 0 0  -2.1625 0 0  -2.15 0 0  -2.1375 0 0  -2.125 0 0  -2.1125 0 0  -2.1 0 0  -2.0875 0 0  -2.075 0 0  -2.0625 0 0  -2.05 0 0  -2.0375 0 0  -2.025 0 0  -2.0125 0 0  -2 0 0  -1.9875 0 0  -1.975 0 0  -1.9625 0 0  -1.95 0 0  -1.9375 0 0  -1.925 0 0  -1.9125 0 0  -1.9 0 0  -1.8875 0 0  -1.875 0 0  -1.8625 0 0  -1.85 0 0  -1.8375 0 0  -1.825 0 0  -1.8125 0 0  -1.8 0 0  -1.7875 0 0  -1.775 0 0  -1.7625 0 0  -1.75 0 0  -1.7375 0 0  -1.725 0 0  -1.7125 0 0  -1.7 0 0  -1.6875 0 0  -1.675 0 0  -1.6625 0 0  -1.65 0 0  -1.6375 0 0  -1.625 0 0  -1.6125 0 0  -1.6 0 0  -1.5875 0 0  -1.575 0 0  -1.5625 0 0  -1.55 0 0  -1.5375 0 0  -1.525 0 0  -1.5125 0 0  -1.5 0 0  -1.4875 0 0  -1.475 0 0  -1.4625 0 0  -1.45 0 0  -1.4375 0 0  -1.425 0 0  -1.4125 0 0  -1.4 0 0  -1.3875 0 0  -1.375 0 0  -1.3625 0 0  -1.35 0 0  -1.3375 0 0  -1.325 0 0  -1.3125 0 0  -1.3 0 0  -1.2875 0 0  -1.275 0 0  -1.2625 0 0  -1.25 0 0  -1.2375 0 0  -1.225 0 0  -1.2125 0 0  -1.2 0 0  -1.1875 0 0  -1.175 0 0  -1.1625 0 0  -1.15 0 0  -1.1375 0 0  -1.125 0 0  -1.1125 0 0  -1.1 0 0  -1.0875 0 0  -1.075 0 0  -1.0625 0 0  -1.05 0 0  -1.0375 0 0  -1.025 0 0  -1.0125 0 0  -1 0 0  -0.9874999999999998 0 0  -0.9749999999999996 0 0  -0.9625000000000004 0 0  -0.9500000000000002 0 0  -0.9375 0 0  -0.9249999999999998 0 0  -0.9124999999999996 0 0  -0.9000000000000004 0 0  -0.8875000000000002 0 0  -0.875 0 0  -0.8624999999999998 0 0  -0.8499999999999996 0 0  -0.8375000000000004 0 0  -0.8250000000000002 0 0  -0.8125 0 0  -0.7999999999999998 0 0  -0.7874999999999996 0 0  -0.7750000000000004 0 0  -0.7625000000000002 0 0  -0.75 0 0  -0.7374999999999998 0 0  -0.7249999999999996 0 0  -0.7125000000000004 0 0  -0.7000000000000002 0 0  -0.6875 0 0  -0.6749999999999998 0 0  -0.6624999999999996 0 0  -0.6500000000000004 0 0  -0.6375000000000002 0 0  -0.625 0 0  -0.6124999999999998 0 0  -0.5999999999999996 0 0  -0.5875000000000004 0 0  -0.5750000000000002 0 0  -0.5625 0 0  -0.5499999999999998 0 0  -0.5374999999999996 0 0  -0.5250000000000004 0 0  -0.5125000000000002 0 0  -0.5 0 0  -0.4874999999999998 0 0  -0.4749999999999996 0 0  -0.4625000000000004 0 0  -0.4500000000000002 0 0  -0.4375 0 0  -0.4249999999999998 0 0  -0.4124999999999996 0 0  -0.4000000000000004 0 0  -0.3875000000000002 0 0  -0.375 0 0  -0.3624999999999998 0 0  -0.3499999999999996 0 0  -0.3375000000000004 0 0  -0.3250000000000002 0 0  -0.3125 0 0  -0.2999999999999998 0 0  -0.2874999999999996 0 0  -0.2750000000000004 0 0  -0.2625000000000002 0 0  -0.25 0 0  -0.2374999999999998 0 0  -0.2249999999999996 0 0  -0.2125000000000004 0 0  -0.2000000000000002 0 0  -0.1875 0 0  -0.1749999999999998 0 0  -0.1624999999999996 0 0  -0.1500000000000004 0 0  -0.1375000000000002 0 0  -0.125 0 0  -0.1124999999999998 0 0  -0.09999999999999964 0 0  -0.08750000000000036 0 0  -0.07500000000000018 0 0  -0.0625 0 0  -0.04999999999999982 0 0  -0.03749999999999964 0 0  -0.02500000000000036 0 0  -0.01250000000000018 0 0  0 0 0  0.01250000000000018 0 0  0.02500000000000036 0 0  0.03749999999999964 0 0  0.04999999999999982 0 0  0.0625 0 0  0.07500000000000018 0 0  0.08750000000000036 0 0  0.09999999999999964 0 0  0.1124999999999998 0 0  0.125 0 0  0.1375000000000002 0 0  0.1500000000000004 0 0  0.1624999999999996 0 0  0.1749999999999998 0 0  0.1875 0 0  0.2000000000000002 0 0  0.2125000000000004 0 0  0.2249999999999996 0 0  0.2374999999999998 0 0  0.25 0 0  0.2625000000000002 0 0  0.2750000000000004 0 0  0.2874999999999996 0 0  0.2999999999999998 0 0  0.3125 0 0  0.3250000000000002 0 0  0.3375000000000004 0 0  0.3499999999999996 0 0  0.3624999999999998 0 0  0.375 0 0  0.3875000000000002 0 0  0.4000000000000004 0 0  0.4124999999999996 0 0  0.4249999999999998 0 0  0.4375 0 0  0.4500000000000002 0 0  0.4625000000000004 0 0  0.4749999999999996 0 0  0.4874999999999998 0 0  0.5 0 0  0.5125000000000002 0 0  0.5250000000000004 0 0  0.5374999999999996 0 0  0.5499999999999998 0 0  0.5625 0 0  0.5750000000000002 0 0  0.5875000000000004 0 0  0.5999999999999996 0 0  0.6124999999999998 0 0  0.625 0 0  0.6375000000000002 0 0  0.6500000000000004 0 0  0.6624999999999996 0 0  0.6749999999999998 0 0  0.6875 0 0  0.7000000000000002 0 0  0.7125000000000004 0 0  0.7249999999999996 0 0  0.7374999999999998 0 0  0.75 0 0  0.7625000000000002 0 0  0.7750000000000004 0 0  0.7874999999999996 0 0  0.7999999999999998 0 0  0.8125 0 0  0.8250000000000002 0 0  0.8375000000000004 0 0  0.8499999999999996 0 0  0.8624999999999998 0 0  0.875 0 0  0.8875000000000002 0 0  0.9000000000000004 0 0  0.9124999999999996 0 0  0.9249999999999998 0 0  0.9375 0 0  0.9500000000000002 0 0  0.9625000000000004 0 0  0.9749999999999996 0 0  0.9874999999999998 0 0  1 0 0  1.0125 0 0  1.025 0 0  1.0375 0 0  1.05 0 0  1.0625 0 0  1.075 0 0  1.0875 0 0  1.1 0 0  1.1125 0 0  1.125 0 0  1.1375 0 0  1.15 0 0  1.1625 0 0  1.175 0 0  1.1875 0 0  1.2 0 0  1.2125 0 0  1.225 0 0  1.2375 0 0  1.25 0 0  1.2625 0 0  1.275 0 0  1.2875 0 0  1.3 0 0  1.3125 0 0  1.325 0 0  1.3375 0 0  1.35 0 0  1.3625 0 0  1.375 0 0  1.3875 0 0  1.4 0 0  1.4125 0 0  1.425 0 0  1.4375 0 0  1.45 0 0  1.4625 0 0  1.475 0 0  1.4875 0 0  1.5 0 0  1.5125 0 0  1.525 0 0  1.5375 0 0  1.55 0 0  1.5625 0 0  1.575 0 0  1.5875 0 0  1.6 0 0  1.6125 0 0  1.625 0 0  1.6375 0 0  1.65 0 0  1.6625 0 0  1.675 0 0  1.6875 0 0  1.7 0 0  1.7125 0 0  1.725 0 0  1.7375 0 0  1.75 0 0  1.7625 0 0  1.775 0 0  1.7875 0 0  1.8 0 0  1.8125 0 0  1.825 0 0  1.8375 0 0  1.85 0 0  1.8625 0 0  1.875 0 0  1.8875 0 0  1.9 0 0  1.9125 0 0  1.925 0 0  1.9375 0 0  1.95 0 0  1.9625 0 0  1.975 0 0  1.9875 0 0  2 0 0  2.0125 0 0  2.025 0 0  2.0375 0 0  2.05 0 0  2.0625 0 0  2.075 0 0  2.0875 0 0  2.1 0 0  2.1125 0 0  2.125 0 0  2.1375 0 0  2.15 0 0  2.1625 0 0  2.175 0 0  2.1875 0 0  2.2 0 0  2.2125 0 0  2.225 0 0  2.2375 0 0  2.25 0 0  2.2625 0 0  2.275 0 0  2.2875 0 0  2.3 0 0  2.3125 0 0  2.325 0 0  2.3375 0 0  2.35 0 0  2.3625 0 0  2.375 0 0  2.3875 0 0  2.4 0 0  2.4125 0 0  2.425 0 0  2.4375 0 0  2.45 0 0  2.4625 0 0  2.475 0 0  2.4875 0 0  2.5 0 0  2.5125 0 0  2.525 0 0  2.5375 0 0  2.55 0 0  2.5625 0 0  2.575 0 0  2.5875 0 0  2.6 0 0  2.6125 0 0  2.625 0 0  2.6375 0 0  2.65 0 0  2.6625 0 0  2.675 0 0  2.6875 0 0  2.7 0 0  2.7125 0 0  2.725 0 0  2.7375 0 0  2.75 0 0  2.7625 0 0  2.775 0 0  2.7875 0 0  2.8 0 0  2.8125 0 0  2.825 0 0  2.8375 0 0  2.85 0 0  2.8625 0 0  2.875 0 0  2.8875 0 0  2.9 0 0  2.9125 0 0  2.925 0 0  2.9375 0 0  2.95 0 0  2.9625 0 0  2.975 0 0  2.9875 0 0  3 0 0  3.012499999999999 0 0  3.025 0 0  3.0375 0 0  3.050000000000001 0 0  3.0625 0 0  3.074999999999999 0 0  3.0875 0 0  3.1 0 0  3.112500000000001 0 0  3.125 0 0  3.137499999999999 0 0  3.15 0 0  3.1625 0 0  3.175000000000001 0 0  3.1875 0 0  3.199999999999999 0 0  3.2125 0 0  3.225 0 0  3.237500000000001 0 0  3.25 0 0  3.262499999999999 0 0  3.275 0 0  3.2875 0 0  3.300000000000001 0 0  3.3125 0 0  3.324999999999999 0 0  3.3375 0 0  3.35 0 0  3.362500000000001 0 0  3.375 0 0  3.387499999999999 0 0  3.4 0 0  3.4125 0 0  3.425000000000001 0 0  3.4375 0 0  3.449999999999999 0 0  3.4625 0 0  3.475 0 0  3.4875
[...]
<PointData  Vectors="(h, u)"> 
<DataArray  type="Float64"  Name="(h, u)"  NumberOfComponents="3" format="ascii">1.7038766267138267e-01 0.0000000000000000e+00 0.0000000000000000e+00  1.7012811997494778e-01 5.4194277423225967e-03 0.0000000000000000e+00  1.7038595156979627e-01 1.0871917090474291e-02 0.0000000000000000e+00  1.7012365029639234e-01 1.6258598329617683e-02 0.0000000000000000e+00  1.7038080272888970e-01 2.1744538715285859e-02 0.0000000000000000e+00  1.7011469077614677e-01 2.7098689778327294e-02 0.0000000000000000e+00  1.7037220668400474e-01 3.2618563313868240e-02 0.0000000000000000e+00  1.7010124700585222e-01 3.7940222597947139e-02 0.0000000000000000e+00  1.7036017786406632e-01 4.3494693892665588e-02 0.0000000000000000e+00  1.7008332611540114e-01 4.8783697930169581e-02 0.0000000000000000e+00  1.7034470502850482e-01 5.4373758729370558e-02 0.0000000000000000e+00  1.7006090153749698e-01 5.9629689925877860e-02 0.0000000000000000e+00  1.7032575847562481e-01 6.5256630700156401e-02 0.0000000000000000e+00  1.7003395994374720e-01 7.0478679541064931e-02 0.0000000000000000e+00  1.7030333971645742e-01 7.6144008669699767e-02 0.0000000000000000e+00  1.7000251311278841e-01 8.1331077526136164e-02 0.0000000000000000e+00  1.7027744189381527e-01 8.7036615702420342e-02 0.0000000000000000e+00  1.6996653623721114e-01 9.2187560711132169e-02 0.0000000000000000e+00  1.7024801538017767e-01 9.7935319178518679e-02 0.0000000000000000e+00  1.6992599350943383e-01 1.0304887871274646e-01 0.0000000000000000e+00  1.7021503568480684e-01 1.0884070916619172e-01 0.0000000000000000e+00  1.6988089518419180e-01 1.1391553394855951e-01 0.0000000000000000e+00  1.7017849690766826e-01 1.1975322272332092e-01 0.0000000000000000e+00  1.6983122713618204e-01 1.2478825991542032e-01 0.0000000000000000e+00  1.7013833129176770e-01 1.3067368609309754e-01 0.0000000000000000e+00  1.6977693038546141e-01 1.3566806634967465e-01 0.0000000000000000e+00  1.7009447507881129e-01 1.4160282318950168e-01 0.0000000000000000e+00  1.6971800263765002e-01 1.4655549593314268e-01 0.0000000000000000e+00  1.7004692158566448e-01 1.5254094804180959e-01 0.0000000000000000e+00  1.6965444408398161e-01 1.5745107319613272e-01 0.0000000000000000e+00  1.6999559948028642e-01 1.6348888625083705e-01 0.0000000000000000e+00  1.6958616528308909e-01 1.6835595652264873e-01 0.0000000000000000e+00  1.6994040322578019e-01 1.7444767612320555e-01 0.0000000000000000e+00  1.6951312616346523e-01 1.7927087886369206e-01 0.0000000000000000e+00  1.6988132822632601e-01 1.8541754001323910e-01 0.0000000000000000e+00  1.6943534185231368e-01 1.9019617860616328e-01 0.0000000000000000e+00  1.6981831944814574e-01 1.9639904664926988e-01 0.0000000000000000e+00  1.6935269750535414e-01 2.0113324279649894e-01 0.0000000000000000e+00  1.6975121498918225e-01 2.0739349275920158e-01 0.0000000000000000e+00  1.6926510118414737e-01 2.1208332918298059e-01 0.0000000000000000e+00  1.6967998824225955e-01 2.1840102827954921e-01 0.0000000000000000e+00  1.6917260477598584e-01 2.2304665508398488e-01 0.0000000000000000e+00  1.6960460819114129e-01 2.2942175052049235e-01 0.0000000000000000e+00  1.6907509600524531e-01 2.3402475412710830e-01 0.0000000000000000e+00  1.6952483501247187e-01 2.4045729543561931e-01 0.0000000000000000e+00  1.6897240713751061e-01 2.4501961618484791e-01 0.0000000000000000e+00  1.6944059717299126e-01 2.5150798173926198e-01 0.0000000000000000e+00  1.6886462766808510e-01 2.5603125769063861e-01 0.0000000000000000e+00  1.6935193173878815e-01 2.6257329480002534e-01 0.0000000000000000e+00  1.6875165386008106e-01 2.6706112816738348e-01 0.0000000000000000e+00  1.6925853045957803e-01 2.7365538448282617e-01 0.0000000000000000e+00  1.6863317490066154e-01 2.7811221005048958e-01 0.0000000000000000e+00  1.6916026616067706e-01 2.8475507149121360e-01 0.0000000000000000e+00  1.6850930623070098e-01 2.8918418760895409e-01 0.0000000000000000e+00  1.6905731021366524e-01 2.9587094042001771e-01 0.0000000000000000e+00  1.6837997341360084e-01 3.0027814145759563e-01 0.0000000000000000e+00  1.6894927131245649e-01 3.0700588666830925e-01 0.0000000000000000e+00  1.6824464881694412e-01 3.1139857704630808e-01 0.0000000000000000e+00  1.6883591851036725e-01 3.1816159386136245e-01 0.0000000000000000e+00  1.6810350601127419e-01 3.2254465373493180e-01 0.0000000000000000e+00  1.6871763551430596e-01 3.2933505753938469e-01 0.0000000000000000e+00  1.6795655246965066e-01 3.3371680970029954e-01 0.0000000000000000e+00  1.6859388198770495e-01 3.4053030253285715e-01 0.0000000000000000e+00  1.6780292662590404e-01 3.4492212713831999e-01 0.0000000000000000e+00  1.6846425814445318e-01 3.5175024413681216e-01 0.0000000000000000e+00  1.6764295074771288e-01 3.5615868462161149e-01 0.0000000000000000e+00  1.6832951213194097e-01 3.6298899846750982e-01 0.0000000000000000e+00  1.6747676707668363e-01 3.6742598497914952e-01 0.0000000000000000e+00  1.6818879955944066e-01 3.7425280369056424e-01 0.0000000000000000e+00  1.6730296187247928e-01 3.7873546507548322e-01 0.0000000000000000e+00  1.6804150304680973e-01 3.8554609919380539e-01 0.0000000000000000e+00  1.6712223912532478e-01 3.9008243152570382e-01 0.0000000000000000e+00  1.6788901320586402e-01 3.9685791998397979e-01 0.0000000000000000e+00  1.6693487729846532e-01 4.0146549719260766e-01 0.0000000000000000e+00  1.6772981468433421e-01 4.0819949843131736e-01 0.0000000000000000e+00  1.6673854365240617e-01 4.1290327658067055e-01 0.0000000000000000e+00  1.6756315397639154e-01 4.1957620500919462e-01 0.0000000000000000e+00  1.6653486994332445e-01 4.2438406874164669e-01 0.0000000000000000e+00  1.6739150559500629e-01 4.3096866704112718e-01 0.0000000000000000e+00  1.6632402883221992e-01 4.3590740215957730e-01 0.0000000000000000e+00  1.6721187903615919e-01 4.4239930174548303e-01 0.0000000000000000e+00  1.6610229856326006e-01 4.4750279112460756e-01 0.0000000000000000e+00  1.6702389320445230e-01 4.5387026407636816e-01 0.0000000000000000e+00  1.6587342718336140e-01 4.5914286180051944e-01 0.0000000000000000e+00  1.6683151054235457e-01 4.6534989762054135e-01 0.0000000000000000e+00  1.6563659526378552e-01 4.7083594323724776e-01 0.0000000000000000e+00  1.6662864524034865e-01 4.7688286158669929e-01 0.0000000000000000e+00  1.6538659496693983e-01 4.8262503661097356e-01 0.0000000000000000e+00  1.6641684330186932e-01 4.8845403072512245e-01 0.0000000000000000e+00  1.6513145221717998e-01 4.9445278460659770e-01 0.0000000000000000e+00  1.6620117677369253e-01 5.0001988463849001e-01 0.0000000000000000e+00  1.6486690351782227e-01 5.0635755626046075e-01 0.0000000000000000e+00  1.6597011315835764e-01 5.1166348789435967e-01 0.0000000000000000e+00  1.6458765253041613e-01 5.1838660277074766e-01 0.0000000000000000e+00  1.6573110979396927e-01 5.2332110792418229e-01 0.0000000000000000e+00  1.6430835502965691e-01 5.3043376215893956e-01 0.0000000000000000e+00  1.6548770085130118e-01 5.3495974644573485e-01 0.0000000000000000e+00  1.6401570510393346e-01 5.4260699169339133e-01 0.0000000000000000e+00  1.6522181195128902e-01 5.4671505855601887e-01 0.0000000000000000e+00  1.6370948185167944e-01 5.5491056106279302e-01 0.0000000000000000e+00  1.6495454293843265e-01 5.5842408190131354e-01 0.0000000000000000e+00  1.6341022249333112e-01 5.6718400075928788e-01 0.0000000000000000e+00  1.6467987217906624e-01 5.7013880906356484e-01 0.0000000000000000e+00  1.6308707845487919e-01 5.7965732799741243e-01 0.0000000000000000e+00  1.6437840838547960e-01 5.8202137041813573e-01 0.0000000000000000e+00  1.6275804582720269e-01 5.9217620233585833e-01 0.0000000000000000e+00  1.6409322103136784e-01 5.9375753530872954e-01 0.0000000000000000e+00  1.6243872575737059e-01 6.0459773934861405e-01 0.0000000000000000e+00  1.6379124223831321e-01 6.0562951271950061e-01 0.0000000000000000e+00  1.6207740735533258e-01 6.1729417959484711e-01 0.0000000000000000e+00  1.6347249083248047e-01 6.1766782194728620e-01 0.0000000000000000e+00  1.6173317165324913e-01 6.2977608394655815e-01 0.0000000000000000e+00  1.6319592715402542e-01 6.2944710822383398e-01 0.0000000000000000e+00  1.6138440947927202e-01 6.4217922015066109e-01 0.0000000000000000e+00  1.6287957741736442e-01 6.4163582845829981e-01 0.0000000000000000e+00  1.6098412386298253e-01 6.5484009388212427e-01 0.0000000000000000e+00  1.6258894274775076e-01 6.5374957198956074e-01 0.0000000000000000e+00  1.6064449529922240e-01 6.6686579685996328e-01 0.0000000000000000e+00  1.6234442152911838e-01 6.6564586231714862e-01 0.0000000000000000e+00  1.6025111007161097e-01 6.7913599053065932e-01 0.0000000000000000e+00  1.6203377391051516e-01 6.7820446144169966e-01 0.0000000000000000e+00  1.5985506924009266e-01 6.9125503605562377e-01 0.0000000000000000e+00  1.6183176539562460e-01 6.9005197201366009e-01 0.0000000000000000e+00  1.5953964977100527e-01 7.0258929158816019e-01 0.0000000000000000e+00  1.6159249694125122e-01 7.0230671276226564e-01 0.0000000000000000e+00  1.5910841856047406e-01 7.1469994276210058e-01 0.0000000000000000e+00  1.6134560324944192e-01 7.1470279447670615e-01 0.0000000000000000e+00  1.5882566254347760e-01 7.2556014576853600e-01 0.0000000000000000e+00  1.6122708949750048e-01 7.2613516808745149e-01 0.0000000000000000e+00  1.5848370027141290e-01 7.3683789343400963e-01 0.0000000000000000e+00  1.6094154093071919e-01 7.3887205583402626e-01 0.0000000000000000e+00  1.5815769936248408e-01 7.4798964086498299e-01 0.0000000000000000e+00  1.6086770363634936e-01 7.4990135228897037e-01 0.0000000000000000e+00  1.5798074760522551e-01 7.5801446706056363e-01 0.0000000000000000e+00  1.6062714633921998e-01 7.6215368691151764e-01 0.0000000000000000e+00  1.5762054451172289e-01 7.6955161925595672e-01 0.0000000000000000e+00  1.6049730432251427e-01 7.7342192296389445e-01 0.0000000000000000e+00  1.5758454172671604e-01 7.7864246430764983e-01 0.0000000000000000e+00  1.6035207623535161e-01 7.8468076372487083e-01 0.0000000000000000e+00  1.5725038548543971e-01 7.9018691483100212e-01 0.0000000000000000e+00  1.6012572160379107e-01 7.9643760333320202e-01 0.0000000000000000e+00  1.5730777283581970e-01 7.9876525726499226e-01 0.0000000000000000e+00  1.6006587131683100e-01 8.0675352617133145e-01 0.0000000000000000e+00  1.5703269453194174e-01 8.1006515432524695e-01 0.0000000000000000e+00  1.5975127533051786e-01 8.1894654221009899e-01 0.0000000000000000e+00  1.5717154854547208e-01 8.1819907945232362e-01 0.0000000000000000e+00  1.5974250644614099e-01 8.2862688497441706e-01 0.0000000000000000e+00  1.5693063742923821e-01 8.2940433177165829e-01 0.0000000000000000e+00  1.5937368888529832e-01 8.4104043614759427e-01 0.0000000000000000e+00  1.5717932091313308e-01 8.3681859375075640e-01 0.0000000000000000e+00  1.5936919927486695e-01 8.5050344360408958e-01 0.0000000000000000e+00  1.5690029448471898e-01 8.4845479252255729e-01 0.0000000000000000e+00  1.5902411645745781e-01 8.6256043594251763e-01 0.0000000000000000e+00  1.5730275160476342e-01 8.5477864303112061e-01 0.0000000000000000e+00  1.5891899705039461e-01 8.7264410164173400e-01 0.0000000000000000e+00  1.5692847507705884e-01 8.6729999146788184e-01 0.0000000000000000e+00  1.5876426371018448e-01 8.8301540888323893e-01 0.0000000000000000e+00  1.5745285266521716e-01 8.7282091801827899e-01 0.0000000000000000e+00  1.5835451211487539e-01 8.9527453333190110e-01 0.0000000000000000e+00  1.5711034588898326e-01 8.8529451882361898e-01 0.0000000000000000e+00  1.5859166149896917e-01 9.0229012712736234e-01 0.0000000000000000e+00  1.5744903303444821e-01 8.9254235415431515e-01 0.0000000000000000e+00  1.5777932417906829e-01 9.1738342847300580e-01 0.0000000000000000e+00  1.5761403912985197e-01 9.0133931278163126e-01 0.0000000000000000e+00  1.5821137459092624e-01 9.2245749414216915e-01 0.0000000000000000e+00  1.5725035397855491e-01 9.1454106323896878e-01 0.0000000000000000e+00  1.5761502823727241e-01 9.3536399903185585e-01 0.0000000000000000e+00  1.5816990628473779e-01 9.1786821900579751e-01 0.0000000000000000e+00  1.5721134576606363e-01 9.4646042447362067e-01 0.0000000000000000e+00  1.5757110225050583e-01 9.3347216226159180e-01 0.0000000000000000e+00  1.5779689848904888e-01 9.4945486882689012e-01 0.0000000000000000e+00  1.5783058323885119e-01 9.4258564676721934e-01 0.0000000000000000e+00  1.5655900913564172e-01 9.6653540878336941e-01 0.0000000000000000e+00  1.5877887194385312e-01 9.4648732015045856e-01 0.0000000000000000e+00  1.5665541355681983e-01 9.7287691449615055e-01 0.0000000000000000e+00  1.5770200097107628e-01 9.6654686903102072e-01 0.0000000000000000e+00  1.5740465510671939e-01 9.7394994415231473e-01 0.0000000000000000e+00  1.5810504174044379e-01 9.7494786962598223e-01 0.0000000000000000e+00  1.5585495978102371e-01 9.9321228763537561e-01 0.0000000000000000e+00  1.5942711369513915e-01 9.7590670157126658e-01 0.0000000000000000e+00  1.5575880797338562e-01 1.0012530009738319e+00 0.0000000000000000e+00  1.5799188824437427e-01 9.9827104261615174e-01 0.0000000000000000e+00  1.5766330809672530e-01 9.9395403404743354e-01 0.0000000000000000e+00  1.5686657703480955e-01 1.0176194381432369e+00 0.0000000000000000e+00  1.5708911139987455e-01 1.0068774707221426e+00 0.0000000000000000e+00  1.5864625166272792e-01 1.0133227728035152e+00 0.0000000000000000e+00  1.5518324058668079e-01 1.0310697980134416e+00 0.0000000000000000e+00  1.5913974434673531e-01 1.0183527472946616e+00 0.0000000000000000e+00  1.5675956195364990e-01 1.0285322673974506e+00 0.0000000000000000e+00  1.5562323581076110e-01 1.0542972229208809e+00 0.0000000000000000e+00  1.6097372576330202e-01 1.0057749736900525e+00 0.0000000000000000e+00  1.5180876511031283e-01 1.0920175177108524e+00 0.0000000000000000e+00  1.6271327258591156e-01 1.0030303058619399e+00 0.0000000000000000e+00  1.5247318680793126e-01 1.0940826112511925e+00 0.0000000000000000e+00  1.5964363521722916e-01 1.0385813196742666e+00 0.0000000000000000e+00  1.5750596710277093e-01 1.0615647340127539e+00 0.0000000000000000e+00  1.5371667504137659e-01 1.0965988006582090e+00 0.0000000000000000e+00  1.6309740580751461e-01 1.0246833561559618e+00 0.0000000000000000e+00  1.4856356956789929e-01 1.1482867846123384e+00 0.0000000000000000e+00  1.6638569567993569e-01 1.0062094657423426e+00 0.0000000000000000e+00  1.4623338795522728e-01 1.1773487295856309e+00 0.0000000000000000e+00  1.6711088697446996e-01 1.0083680165416797e+00 0.0000000000000000e+00  1.4641424952915477e-01 1.1861368665337113e+00 0.0000000000000000e+00  1.6623065915872406e-01 1.0235517312464668e+00 0.0000000000000000e+00  1.4791863165139268e-01 1.1841332915764278e+00 0.0000000000000000e+00  1.6467808502912837e-01 1.0442593827983135e+00 0.0000000000000000e+00  1.4978846089624814e-01 1.1790624036247663e+00 0.0000000000000000e+00  1.6304671167575222e-01 1.0657151281713175e+00 0.0000000000000000e+00  1.5150114925305441e-01 1.1751420963528396e+00 0.0000000000000000e+00  1.6163563929602137e-01 1.0855304142729072e+00 0.0000000000000000e+00  1.5285717598448156e-01 1.1739644703278354e+00 0.0000000000000000e+00  1.6054281086413566e-01 1.1029432643418107e+00 0.0000000000000000e+00  1.5384258317718114e-01 1.1756146279322626e+00 0.0000000000000000e+00  1.5975027854262089e-01 1.1181132945936114e+00 0.0000000000000000e+00  1.5452480485889805e-01 1.1795323300537937e+00 0.0000000000000000e+00  1.5919274586861412e-01 1.1315554429069234e+00 0.0000000000000000e+00  1.5498772400584951e-01 1.1850513929077142e+00 0.0000000000000000e+00  1.5880158372530437e-01 1.1437852701461464e+00 0.0000000000000000e+00  1.5530071671970694e-01 1.1916474745229884e+00 0.0000000000000000e+00  1.5852443239030850e-01 1.1551760256947725e+00 0.0000000000000000e+00  1.5551041730335560e-01 1.1989878368202642e+00 0.0000000000000000e+00  1.5832863466497124e-01 1.1659500422730813e+00 0.0000000000000000e+00  1.5564345840938520e-01 1.2068926096869668e+00 0.0000000000000000e+00  1.5819711303808082e-01 1.1762204110883963e+00 0.0000000000000000e+00  1.5571287990154550e-01 1.2152798241798326e+00 0.0000000000000000e+00  1.5812260092237479e-01 1.1860302006849368e+00 0.0000000000000000e+00  1.5572403270560797e-01 1.2241276996828401e+00 0.0000000000000000e+00  1.5810250455442451e-01 1.1953795148311763e+00 0.0000000000000000e+00  1.5567906389268593e-01 1.2334496415776754e+00 0.0000000000000000e+00  1.5813596846783901e-01 1.2042414695611048e+00 0.0000000000000000e+00  1.5557920660855099e-01 1.2432771857829263e+00 0.0000000000000000e+00  1.5822176906634414e-01 1.2125832606364007e+00 0.0000000000000000e+00  1.5542638902545799e-01 1.2536394926310526e+00 0.0000000000000000e+00  1.5835777272637389e-01 1.2203797242087246e+00 0.0000000000000000e+00  1.5522405842741344e-01 1.2645495691541659e+00 0.0000000000000000e+00  1.5853869240998950e-01 1.2276356074087000e+00 0.0000000000000000e+00  1.5497898897635803e-01 1.2759891041582774e+00 0.0000000000000000e+00  1.5875605580125390e-01 1.2343847868680242e+00 0.0000000000000000e+00  1.5470153499019804e-01 1.2879075771760355e+00 0.0000000000000000e+00  1.5899599964973793e-01 1.2407089181678119e+00 0.0000000000000000e+00  1.5440636315878081e-01 1.3002112286497616e+00 0.0000000000000000e+00  1.5924297534092313e-01 1.2467174430886219e+00 0.0000000000000000e+00  1.5410871878407983e-01 1.3127801916580570e+00 0.0000000000000000e+00  1.5947926107582666e-01 1.2525648269389871e+00 0.0000000000000000e+00  1.5382436199876023e-01 1.3254564543822749e+00 0.0000000000000000e+00  1.5969236701978007e-01 1.2584022303832259e+00 0.0000000000000000e+00  1.5356144212408468e-01 1.3381009170268505e+00 0.0000000000000000e+00  1.5987422663661791e-01 1.2643898493602876e+00 0.0000000000000000e+00  1.5332528153773101e-01 1.3505496661131653e+00 0.0000000000000000e+00  1.6002756535838114e-01 1.2706539400607098e+00 0.0000000000000000e+00  1.5310392927317373e-01 1.3627207446085812e+00 0.0000000000000000e+00  1.6016793562242426e-01 1.2772791278341933e+00 0.0000000000000000e+00  1.5288345143943677e-01 1.3744873204406847e+00 0.0000000000000000e+00  1.6031723079082663e-01 1.2843595286471665e+00 0.0000000000000000e+00  1.5262337753321120e-01 1.3858816113941335e+00 0.0000000000000000e+00  1.6053298291850077e-01 1.2917501156850435e+00 0.0000000000000000e+00  1.5227027770815033e-01 1.3970143784217499e+00 0.0000000000000000e+00  1.6087723699406062e-01 1.2992769754691282e+00 0.0000000000000000e+00  1.5172224127996062e-01 1.4084004647627943e+00 0.0000000000000000e+00  1.6152986942607833e-01 1.3057989721176342e+00 0.0000000000000000e+00  1.5077525793842780e-01 1.4214433911241429e+00 0.0000000000000000e+00  1.6270984831272883e-01 1.3097743082877229e+00 0.0000000000000000e+00  1.4923349678503095e-01 1.4376257158567891e+00 0.0000000000000000e+00  1.6466020967292783e-01 1.3093225589526294e+00 0.0000000000000000e+00  1.4693204259381432e-01 1.4584075799086464e+00 0.0000000000000000e+00  1.6731468718115169e-01 1.3047628674710690e+00 0.0000000000000000e+00  1.4444288185742432e-01 1.4796061699329126e+00 0.0000000000000000e+00  1.6938494466510631e-01 1.3055983954046377e+00 0.0000000000000000e+00  1.4320247484256279e-01 1.4903436465278264e+00 0.0000000000000000e+00  1.6944872003987202e-01 1.3218723806861306e+00 0.0000000000000000e+00  1.4376973478630214e-01 1.4872955706980471e+00 0.0000000000000000e+00  1.6805092712676789e-01 1.3478618512370633e+00 0.0000000000000000e+00  1.4486391624593992e-01 1.4825969057437058e+00 0.0000000000000000e+00  1.6705547279029576e-01 1.3672336057360457e+00 0.0000000000000000e+00  1.4518122317914611e-01 1.4887196230898261e+00 0.0000000000000000e+00  1.6687200999272811e-01 1.3749722400272519e+00 0.0000000000000000e+00  1.4537435846011837e-01 1.5019849979905240e+00 0.0000000000000000e+00  1.6617005734502710e-01 1.3802389183248327e+00 0.0000000000000000e+00  1.4629908449042975e-01 1.5161398882845716e+00 0.0000000000000000e+00  1.6473047549958236e-01 1.3847183313987292e+00 0.0000000000000000e+00  1.4758634094109527e-01 1.5333093343299173e+00 0.0000000000000000e+00  1.6206694195161811e-01 1.3938773714482899e+00 0.0000000000000000e+00  1.5093230139982716e-01 1.5371864512988449e+00 0.0000000000000000e+00  1.5574300782316239e-01 1.4303813941538386e+00 0.0000000000000000e+00  1.586804