<?xml version="1.0"?>
<VTKFile type="UnstructuredGrid"  version="0.1"  >
<UnstructuredGrid>
<Piece  NumberOfPoints="801" NumberOfCells="800">
<Points>
<DataArray  type="Float64"  NumberOfComponents="3"  format="ascii">-5 0 0  -4.9875 0 0  -4.975 0 0  -4.9625 0 0  -4.95 0 0  -4.9375 0 0  -4.925 0 0  -4.9125 0 0  -4.9 0 0  -4.8875 0 0  -4.875 0 0  -4.8625 0 0  -4.85 0 0  -4.8375 0 0  -4.825 0 0  -4.8125 0 0  -4.8 0 0  -4.7875 0 0  -4.775 0 0  -4.7625 0 0  -4.75 0 0  -4.7375 0 0  -4.725 0 0  -4.7125 0 0  -4.7 0 0  -4.6875 0 0  -4.675 0 0  -4.6625 0 0  -4.65 0 0  -4.6375 0 0  -4.625 0 0  -4.6125 0 0  -4.6 0 0  -4.5875 0 0  -4.575 0 0  -4.5625 0 0  -4.55 0 0  -4.5375 0 0  -4.525 0 0  -4.5125 0 0  -4.5 0 0  -4.4875 0 0  -4.475 0 0  -4.4625 0 0  -4.45 0 0  -4.4375 0 0  -4.425 0 0  -4.4125 0 0  -4.4 0 0  -4.3875 0 0  -4.375 0 0  -4.3625 0 0  -4.35 0 0  -4.3375 0 0  -4.325 0 0  -4.3125 0 0  -4.3 0 0  -4.2875 0 0  -4.275 0 0  -4.2625 0 0  -4.25 0 0  -4.2375 0 0  -4.225 0 0  -4.2125 0 0  -4.2 0 0  -4.1875 0 0  -4.175 0 0  -4.1625 0 0  -4.15 0 0  -4.1375 0 0  -4.125 0 0  -4.1125 0 0  -4.1 0 0  -4.0875 0 0  -4.075 0 0  -4.0625 0 0  -4.05 0 0  -4.0375 0 0  -4.025 0 0  -4.0125 0 0  -4 0 0  -3.9875 0 0  -3.975 0 0  -3.9625 0 0  -3.95 0 0  -3.9375 0 0  -3.925 0 0  -3.9125 0 0  -3.9 0 0  -3.8875 0 0  -3.875 0 0  -3.8625 0 0  -3.85 0 0  -3.8375 0 0  -3.825 0 0  -3.8125 0 0  -3.8 0 0  -3.7875 0 0  -3.775 0 0  -3.7625 0 0  -3.75 0 0  -3.7375 0 0  -3.725 0 0  -3.7125 0 0  -3.7 0 0  -3.6875 0 0  -3.675 0 0  -3.6625 0 0  -3.65 0 0  -3.6375 0 0  -3.625 0 0  -3.6125 0 0  -3.6 0 0  -3.5875 0 0  -3.575 0 0  -3.5625 0 0  -3.55 0 0  -3.5375 0 0  -3.525 0 0  -3.5125 0 0  -3.5 0 0  -3.4875 0 0  -3.475 0 0  -3.4625 0 0  -3.45 0 0  -3.4375 0 0  -3.425 0 0  -3.4125 0 0  -3.4 0 0  -3.3875 0 0  -3.375 0 0  -3.3625 0 0  -3.35 0 0  -3.3375 0 0  -3.325 0 0  -3.3125 0 0  -3.3 0 0  -3.2875 0 0  -3.275 0 0  -3.2625 0 0  -3.25 0 0  -3.2375 0 0  -3.225 0 0  -3.2125 0 0  -3.2 0 0  -3.1875 0 0  -3.175 0 0  -3.1625 0 0  -3.15 0 0  -3.1375 0 0  -3.125 0 0  -3.1125 0 0  -3.1 0 0  -3.0875 0 0  -3.075 0 0  -3.0625 0 0  -3.05 0 0  -3.0375 0 0  -3.025 0 0  -3.0125 0 0  -3 0 0  -2.9875 0 0  -2.975 0 0  -2.9625 0 0  -2.95 0 0  -2.9375 0 0  -2.925 0 0  -2.9125 0 0  -2.9 0 0  -2.8875 0 0  -2.875 0 0  -2.8625 0 0  -2.85 0 0  -2.8375 0 0  -2.825 0 0  -2.8125 0 0  -2.8 0 0  -2.7875 0 0  -2.775 0 0  -2.7625 0 0  -2.75 0 0  -2.7375 0 0  -2.725 0 0  -2.7125 0 0  -2.7 0 0  -2.6875 0 0  -2.675 0 0  -2.6625 0 0  -2.65 0 0  -2.6375 0 0  -2.625 0 0  -2.6125 0 0  -2.6 0 0  -2.5875 0 0  -2.575 0 0  -2.5625 0 0  -2.55 0 0  -2.5375 0 0  -2.525 0 0  -2.5125 0 0  -2.5 0 0  -2.4875 0 0  -2.475 0 0  -2.4625 0 0  -2.45 0 0  -2.4375 0 0  -2.425 0 0  -2.4125 0 0  -2.4 0 0  -2.3875 0 0  -2.375 0 0  -2.3625 0 0  -2.35 0 0  -2.3375 0 0  -2.325 0 0  -2.3125 0 0  -2.3 0 0  -2.2875 0 0  -2.275 0 0  -2.2625 0 0  -2.25 0 0  -2.2375 0 0  -2.225 0 0  -2.2125 0 0  -2.2 0 0  -2.1875 0 0  -2.175 0 0  -2.1625 0 0  -2.15 0 0  -2.1375 0 0  -2.125 0 0  -2.1125 0 0  -2.1 0 0  -2.0875 0 0  -2.075 0 0  -2.0625 0 0  -2.05 0 0  -2.0375 0 0  -2.025 0 0  -2.0125 0 0  -2 0 0  -1.9875 0 0  -1.975 0 0  -1.9625 0 0  -1.95 0 0  -1.9375 0 0  -1.925 0 0  -1.9125 0 0  -1.9 0 0  -1.8875 0 0  -1.875 0 0  -1.8625 0 0  -1.85 0 0  -1.8375 0 0  -1.825 0 0  -1.8125 0 0  -1.8 0 0  -1.7875 0 0  -1.775 0 0  -1.7625 0 0  -1.75 0 0  -1.7375 0 0  -1.725 0 0  -1.7125 0 0  -1.7 0 0  -1.6875 0 0  -1.675 0 0  -1.6625 0 0  -1.65 0 0  -1.6375 0 0  -1.625 0 0  -1.6125 0 0  -1.6 0 0  -1.5875 0 0  -1.575 0 0  -1.5625 0 0  -1.55 0 0  -1.5375 0 0  -1.525 0 0  -1.5125 0 0  -1.5 0 0  -1.4875 0 0  -1.475 0 0  -1.4625 0 0  -1.45 0 0  -1.4375 0 0  -1.425 0 0  -1.4125 0 0  -1.4 0 0  -1.3875 0 0  -1.375 0 0  -1.3625 0 0  -1.35 0 0  -1.3375 0 0  -1.325 0 0  -1.3125 0 0  -1.3 0 0  -1.2875 0 0  -1.275 0 0  -1.2625 0 0  -1.25 0 0  -1.2375 0 0  -1.225 0 0  -1.2125 0 0  -1.2 0 0  -1.1875 0 0  -1.175 0 0  -1.1625 0 0  -1.15 0 0  -1.1375 0 0  -1.125 0 0  -1.1125 0 0  -1.1 0 0  -1.0875 0 0  -1.075 0 0  -1.0625 0 0  -1.05 0 0  -1.0375 0 0  -1.025 0 0  -1.0125 0 0  -1 0 0  -0.9874999999999998 0 0  -0.9749999999999996 0 0  -0.9625000000000004 0 0  -0.9500000000000002 0 0  -0.9375 0 0  -0.9249999999999998 0 0  -0.9124999999999996 0 0  -0.9000000000000004 0 0  -0.8875000000000002 0 0  -0.875 0 0  -0.8624999999999998 0 0  -0.8499999999999996 0 0  -0.8375000000000004 0 0  -0.8250000000000002 0 0  -0.8125 0 0  -0.7999999999999998 0 0  -0.7874999999999996 0 0  -0.7750000000000004 0 0  -0.7625000000000002 0 0  -0.75 0 0  -0.7374999999999998 0 0  -0.7249999999999996 0 0  -0.7125000000000004 0 0  -0.7000000000000002 0 0  -0.6875 0 0  -0.6749999999999998 0 0  -0.6624999999999996 0 0  -0.6500000000000004 0 0  -0.6375000000000002 0 0  -0.625 0 0  -0.6124999999999998 0 0  -0.5999999999999996 0 0  -0.5875000000000004 0 0  -0.5750000000000002 0 0  -0.5625 0 0  -0.5499999999999998 0 0  -0.5374999999999996 0 0  -0.5250000000000004 0 0  -0.5125000000000002 0 0  -0.5 0 0  -0.4874999999999998 0 0  -0.4749999999999996 0 0  -0.4625000000000004 0 0  -0.4500000000000002 0 0  -0.4375 0 0  -0.4249999999999998 0 0  -0.4124999999999996 0 0  -0.4000000000000004 0 0  -0.3875000000000002 0 0  -0.375 0 0  -0.3624999999999998 0 0  -0.3499999999999996 0 0  -0.3375000000000004 0 0  -0.3250000000000002 0 0  -0.3125 0 0  -0.2999999999999998 0 0  -0.2874999999999996 0 0  -0.2750000000000004 0 0  -0.2625000000000002 0 0  -0.25 0 0  -0.2374999999999998 0 0  -0.2249999999999996 0 0  -0.2125000000000004 0 0  -0.2000000000000002 0 0  -0.1875 0 0  -0.1749999999999998 0 0  -0.1624999999999996 0 0  -0.1500000000000004 0 0  -0.1375000000000002 0 0  -0.125 0 0  -0.1124999999999998 0 0  -0.09999999999999964 0 0  -0.08750000000000036 0 0  -0.07500000000000018 0 0  -0.0625 0 0  -0.04999999999999982 0 0  -0.03749999999999964 0 0  -0.02500000000000036 0 0  -0.01250000000000018 0 0  0 0 0  0.01250000000000018 0 0  0.02500000000000036 0 0  0.03749999999999964 0 0  0.04999999999999982 0 0  0.0625 0 0  0.07500000000000018 0 0  0.08750000000000036 0 0  0.09999999999999964 0 0  0.1124999999999998 0 0  0.125 0 0  0.1375000000000002 0 0  0.1500000000000004 0 0  0.1624999999999996 0 0  0.1749999999999998 0 0  0.1875 0 0  0.2000000000000002 0 0  0.2125000000000004 0 0  0.2249999999999996 0 0  0.2374999999999998 0 0  0.25 0 0  0.2625000000000002 0 0  0.2750000000000004 0 0  0.2874999999999996 0 0  0.2999999999999998 0 0  0.3125 0 0  0.3250000000000002 0 0  0.3375000000000004 0 0  0.3499999999999996 0 0  0.3624999999999998 0 0  0.375 0 0  0.3875000000000002 0 0  0.4000000000000004 0 0  0.4124999999999996 0 0  0.4249999999999998 0 0  0.4375 0 0  0.4500000000000002 0 0  0.4625000000000004 0 0  0.4749999999999996 0 0  0.4874999999999998 0 0  0.5 0 0  0.5125000000000002 0 0  0.5250000000000004 0 0  0.5374999999999996 0 0  0.5499999999999998 0 0  0.5625 0 0  0.5750000000000002 0 0  0.5875000000000004 0 0  0.5999999999999996 0 0  0.6124999999999998 0 0  0.625 0 0  0.6375000000000002 0 0  0.6500000000000004 0 0  0.6624999999999996 0 0  0.6749999999999998 0 0  0.6875 0 0  0.7000000000000002 0 0  0.7125000000000004 0 0  0.7249999999999996 0 0  0.7374999999999998 0 0  0.75 0 0  0.7625000000000002 0 0  0.7750000000000004 0 0  0.7874999999999996 0 0  0.7999999999999998 0 0  0.8125 0 0  0.8250000000000002 0 0  0.8375000000000004 0 0  0.8499999999999996 0 0  0.8624999999999998 0 0  0.875 0 0  0.8875000000000002 0 0  0.9000000000000004 0 0  0.9124999999999996 0 0  0.9249999999999998 0 0  0.9375 0 0  0.9500000000000002 0 0  0.9625000000000004 0 0  0.9749999999999996 0 0  0.9874999999999998 0 0  1 0 0  1.0125 0 0  1.025 0 0  1.0375 0 0  1.05 0 0  1.0625 0 0  1.075 0 0  1.0875 0 0  1.1 0 0  1.1125 0 0  1.125 0 0  1.1375 0 0  1.15 0 0  1.1625 0 0  1.175 0 0  1.1875 0 0  1.2 0 0  1.2125 0 0  1.225 0 0  1.2375 0 0  1.25 0 0  1.2625 0 0  1.275 0 0  1.2875 0 0  1.3 0 0  1.3125 0 0  1.325 0 0  1.3375 0 0  1.35 0 0  1.3625 0 0  1.375 0 0  1.3875 0 0  1.4 0 0  1.4125 0 0  1.425 0 0  1.4375 0 0  1.45 0 0  1.4625 0 0  1.475 0 0  1.4875 0 0  1.5 0 0  1.5125 0 0  1.525 0 0  1.5375 0 0  1.55 0 0  1.5625 0 0  1.575 0 0  1.5875 0 0  1.6 0 0  1.6125 0 0  1.625 0 0  1.6375 0 0  1.65 0 0  1.6625 0 0  1.675 0 0  1.6875 0 0  1.7 0 0  1.7125 0 0  1.725 0 0  1.7375 0 0  1.75 0 0  1.7625 0 0  1.775 0 0  1.7875 0 0  1.8 0 0  1.8125 0 0  1.825 0 0  1.8375 0 0  1.85 0 0  1.8625 0 0  1.875 0 0  1.8875 0 0  1.9 0 0  1.9125 0 0  1.925 0 0  1.9375 0 0  1.95 0 0  1.9625 0 0  1.975 0 0  1.9875 0 0  2 0 0  2.0125 0 0  2.025 0 0  2.0375 0 0  2.05 0 0  2.0625 0 0  2.075 0 0  2.0875 0 0  2.1 0 0  2.1125 0 0  2.125 0 0  2.1375 0 0  2.15 0 0  2.1625 0 0  2.175 0 0  2.1875 0 0  2.2 0 0  2.2125 0 0  2.225 0 0  2.2375 0 0  2.25 0 0  2.2625 0 0  2.275 0 0  2.2875 0 0  2.3 0 0  2.3125 0 0  2.325 0 0  2.3375 0 0  2.35 0 0  2.3625 0 0  2.375 0 0  2.3875 0 0  2.4 0 0  2.4125 0 0  2.425 0 0  2.4375 0 0  2.45 0 0  2.4625 0 0  2.475 0 0  2.4875 0 0  2.5 0 0  2.5125 0 0  2.525 0 0  2.5375 0 0  2.55 0 0  2.5625 0 0  2.575 0 0  2.5875 0 0  2.6 0 0  2.6125 0 0  2.625 0 0  2.6375 0 0  2.65 0 0  2.6625 0 0  2.675 0 0  2.6875 0 0  2.7 0 0  2.7125 0 0  2.725 0 0  2.7375 0 0  2.75 0 0  2.7625 0 0  2.775 0 0  2.7875 0 0  2.8 0 0  2.8125 0 0  2.825 0 0  2.8375 0 0  2.85 0 0  2.8625 0 0  2.875 0 0  2.8875 0 0  2.9 0 0  2.9125 0 0  2.925 0 0  2.9375 0 0  2.95 0 0  2.9625 0 0  2.975 0 0  2.9875 0 0  3 0 0  3.012499999999999 0 0  3.025 0 0  3.0375 0 0  3.050000000000001 0 0  3.0625 0 0  3.074999999999999 0 0  3.0875 0 0  3.1 0 0  3.112500000000001 0 0  3.125 0 0  3.137499999999999 0 0  3.15 0 0  3.1625 0 0  3.175000000000001 0 0  3.1875 0 0  3.199999999999999 0 0  3.2125 0 0  3.225 0 0  3.237500000000001 0 0  3.25 0 0  3.262499999999999 0 0  3.275 0 0  3.2875 0 0  3.300000000000001 0 0  3.3125 0 0  3.324999999999999 0 0  3.3375 0 0  3.35 0 0  3.362500000000001 0 0  3.375 0 0  3.387499999999999 0 0  3.4 0 0  3.4125 0 0  3.425000000000001 0 0  3.4375 0 0  3.449999999999999 0 0  3.4625 0 0  3.475 0 0  3.4875
[...]
<PointData  Vectors="(h, u)"> 
<DataArray  type="Float64"  Name="(h, u)"  NumberOfComponents="3" format="ascii">1.2746391834969539e-01 0.0000000000000000e+00 0.0000000000000000e+00  1.2774193859247832e-01 3.8176259420921381e-03 0.0000000000000000e+00  1.2744500625351621e-01 1.0135432974701843e-02 0.0000000000000000e+00  1.2777318578756897e-01 1.1438866200937453e-02 0.0000000000000000e+00  1.2738929784220193e-01 2.0299654868029125e-02 0.0000000000000000e+00  1.2783370029427815e-01 1.9022730106863592e-02 0.0000000000000000e+00  1.2729986472186960e-01 3.0512413452649739e-02 0.0000000000000000e+00  1.2791953395970840e-01 2.6558976296838774e-02 0.0000000000000000e+00  1.2718176961852926e-01 4.0776950651313093e-02 0.0000000000000000e+00  1.2802482908399593e-01 3.4056553055212171e-02 0.0000000000000000e+00  1.2704192981456816e-01 5.1075422777163641e-02 0.0000000000000000e+00  1.2814198233132554e-01 4.1546162251449498e-02 0.0000000000000000e+00  1.2688884315251808e-01 6.1368026539782891e-02 0.0000000000000000e+00  1.2826197259258965e-01 4.9078855963109888e-02 0.0000000000000000e+00  1.2673213502193767e-01 7.1596030108948272e-02 0.0000000000000000e+00  1.2837488799992541e-01 5.6720909537134261e-02 0.0000000000000000e+00  1.2658191700940577e-01 8.1688259514127476e-02 0.0000000000000000e+00  1.2847064457206978e-01 6.4545856237456789e-02 0.0000000000000000e+00  1.2644799246796548e-01 9.1570022173029467e-02 0.0000000000000000e+00  1.2853983824898921e-01 7.2625024310166070e-02 0.0000000000000000e+00  1.2633898909120625e-01 1.0117305432777901e-01 0.0000000000000000e+00  1.2857462748280571e-01 8.1018112564094538e-02 0.0000000000000000e+00  1.2626153113513527e-01 1.1044492218335770e-01 0.0000000000000000e+00  1.2856951816862702e-01 8.9765257884216937e-02 0.0000000000000000e+00  1.2621957472224965e-01 1.1935641382788618e-01 0.0000000000000000e+00  1.2852192473084562e-01 9.8881726134646353e-02 0.0000000000000000e+00  1.2621401464772528e-01 1.2790581235048323e-01 0.0000000000000000e+00  1.2843241149231258e-01 1.0835587736360666e-01 0.0000000000000000e+00  1.2624263252996662e-01 1.3611947710485833e-01 0.0000000000000000e+00  1.2830457027931469e-01 1.1815051767306141e-01 0.0000000000000000e+00  1.2630040176146051e-01 1.4404878087681536e-01 0.0000000000000000e+00  1.2814455123649252e-01 1.2820725062356078e-01 0.0000000000000000e+00  1.2638010587303009e-01 1.5176403862267046e-01 0.0000000000000000e+00  1.2796032001405358e-01 1.3845305496939619e-01 0.0000000000000000e+00  1.2647317609259015e-01 1.5934650676282167e-01 0.0000000000000000e+00  1.2776075433155784e-01 1.4880808349497376e-01 0.0000000000000000e+00  1.2657062191629434e-01 1.6687974944964831e-01 0.0000000000000000e+00  1.2755471026481568e-01 1.5919360703744143e-01 0.0000000000000000e+00  1.2666392189492950e-01 1.7444163008555549e-01 0.0000000000000000e+00  1.2735018302130433e-01 1.6953910337242420e-01 0.0000000000000000e+00  1.2674576060777865e-01 1.8209792459845767e-01 0.0000000000000000e+00  1.2715366219707172e-01 1.7978768827424960e-01 0.0000000000000000e+00  1.2681053541472884e-01 1.8989815200520613e-01 0.0000000000000000e+00  1.2696974345292839e-01 1.8989937790698869e-01 0.0000000000000000e+00  1.2685460217028516e-01 1.9787378688545618e-01 0.0000000000000000e+00  1.2680101394374813e-01 1.9985202334895324e-01 0.0000000000000000e+00  1.2687627116126293e-01 2.0603865671026647e-01 0.0000000000000000e+00  1.2664818485079132e-01 2.0964012153132550e-01 0.0000000000000000e+00  1.2687559509780577e-01 2.1439109135878731e-01 0.0000000000000000e+00  1.2651040902245039e-01 2.1927201428060156e-01 0.0000000000000000e+00  1.2685400842563627e-01 2.2291727921436696e-01 0.0000000000000000e+00  1.2638570320909298e-01 2.2876616026543498e-01 0.0000000000000000e+00  1.2681388504441390e-01 2.3159524849040419e-01 0.0000000000000000e+00  1.2627139690380937e-01 2.3814715717522969e-01 0.0000000000000000e+00  1.2675808273200034e-01 2.4039889993433564e-01 0.0000000000000000e+00  1.2616454901854038e-01 2.4744203435937065e-01 0.0000000000000000e+00  1.2668953603155986e-01 2.4930157808259146e-01 0.0000000000000000e+00  1.2606229841231242e-01 2.5667712384521929e-01 0.0000000000000000e+00  1.2661094278549143e-01 2.5827880775937151e-01 0.0000000000000000e+00  1.2596213400195286e-01 2.6587564404379382e-01 0.0000000000000000e+00  1.2652456383964480e-01 2.6731003841945089e-01 0.0000000000000000e+00  1.2586207918648054e-01 2.7505604759067431e-01 0.0000000000000000e+00  1.2643212582990204e-01 2.7637949071208029e-01 0.0000000000000000e+00  1.2576078542366098e-01 2.8423117945683440e-01 0.0000000000000000e+00  1.2633479507105480e-01 2.8547638668497111e-01 0.0000000000000000e+00  1.2565753315980577e-01 2.9340825875816423e-01 0.0000000000000000e+00  1.2623319228546825e-01 2.9459482727894953e-01 0.0000000000000000e+00  1.2555215649766821e-01 3.0258953643201242e-01 0.0000000000000000e+00  1.2612744300883916e-01 3.0373335899529236e-01 0.0000000000000000e+00  1.2544492904145754e-01 3.1177329592126712e-01 0.0000000000000000e+00  1.2601727846738955e-01 3.1289409626649622e-01 0.0000000000000000e+00  1.2533644567963687e-01 3.2095488882821072e-01 0.0000000000000000e+00  1.2590219310520478e-01 3.2208134320530657e-01 0.0000000000000000e+00  1.2522750954480416e-01 3.3012772394671541e-01 0.0000000000000000e+00  1.2578164071029044e-01 3.3129987327938759e-01 0.0000000000000000e+00  1.2511901112801485e-01 3.3928432573981721e-01 0.0000000000000000e+00  1.2565522935800999e-01 3.4055321785482107e-01 0.0000000000000000e+00  1.2501177674967087e-01 3.4841766531181895e-01 0.0000000000000000e+00  1.2552286211803304e-01 3.4984243180909591e-01 0.0000000000000000e+00  1.2490637862799318e-01 3.5752283401570667e-01 0.0000000000000000e+00  1.2538479871932920e-01 3.5916555405793732e-01 0.0000000000000000e+00  1.2480296659026570e-01 3.6659852988108238e-01 0.0000000000000000e+00  1.2524168769504046e-01 3.6851732231761553e-01 0.0000000000000000e+00  1.2470123651874115e-01 3.7564733871082301e-01 0.0000000000000000e+00  1.2509462197346061e-01 3.7788867072280907e-01 0.0000000000000000e+00  1.2460056301648835e-01 3.8467456497630970e-01 0.0000000000000000e+00  1.2494515223262499e-01 3.8726659151184228e-01 0.0000000000000000e+00  1.2450018015062261e-01 3.9368663972030660e-01 0.0000000000000000e+00  1.2479515317187308e-01 3.9663529243592649e-01 0.0000000000000000e+00  1.2439931918942432e-01 4.0268991420712064e-01 0.0000000000000000e+00  1.2464656824862433e-01 4.0597842827249481e-01 0.0000000000000000e+00  1.2429731087359880e-01 4.1168977582111688e-01 0.0000000000000000e+00  1.2450112140142131e-01 4.1528162615112107e-01 0.0000000000000000e+00  1.2419364968618192e-01 4.2069010990462952e-01 0.0000000000000000e+00  1.2436008764337468e-01 4.2453449181885633e-01 0.0000000000000000e+00  1.2408809807751545e-01 4.2969241369438738e-01 0.0000000000000000e+00  1.2422432517537010e-01 4.3373029671181501e-01 0.0000000000000000e+00  1.2398095823429287e-01 4.3869342421239094e-01 0.0000000000000000e+00  1.2409454470031937e-01 4.4286355874814470e-01 0.0000000000000000e+00  1.2387319335750985e-01 4.4768407842452468e-01 0.0000000000000000e+00  1.2397128292907536e-01 4.5193025275949855e-01 0.0000000000000000e+00  1.2376597458141705e-01 4.5665357074833735e-01 0.0000000000000000e+00  1.2385453772415440e-01 4.6093103329532609e-01 0.0000000000000000e+00  1.2366022362656669e-01 4.6559344170179756e-01 0.0000000000000000e+00  1.2374388821550805e-01 4.6987015024677098e-01 0.0000000000000000e+00  1.2355681448845661e-01 4.7449579554300736e-01 0.0000000000000000e+00  1.2363903916750761e-01 4.7875059589448349e-01 0.0000000000000000e+00  1.2345676802755240e-01 4.8335156996015100e-01 0.0000000000000000e+00  1.2353994241550988e-01 4.8757302427486043e-01 0.0000000000000000e+00  1.2336108580828094e-01 4.9215200754518407e-01 0.0000000000000000e+00  1.2344673443997203e-01 4.9633631685808904e-01 0.0000000000000000e+00  1.2327061198204005e-01 5.0088987164360999e-01 0.0000000000000000e+00  1.2335943934035483e-01 5.0504024778909407e-01 0.0000000000000000e+00  1.2318545750072808e-01 5.0956455849460958e-01 0.0000000000000000e+00  1.2327741533885483e-01 5.1369043954782723e-01 0.0000000000000000e+00  1.2310514826712990e-01 5.1818075172657907e-01 0.0000000000000000e+00  1.2320046469743764e-01 5.2228848668469030e-01 0.0000000000000000e+00  1.2303026209162378e-01 5.2673380251685709e-01 0.0000000000000000e+00  1.2312957913278760e-01 5.3082533335101134e-01 0.0000000000000000e+00  1.2296139149629465e-01 5.3521896902601340e-01 0.0000000000000000e+00  1.2306447512916564e-01 5.3930328599284227e-01 0.0000000000000000e+00  1.2289727855507707e-01 5.4364803989449306e-01 0.0000000000000000e+00  1.2300403931416548e-01 5.4773204023213151e-01 0.0000000000000000e+00  1.2283748134009062e-01 5.5202551809240441e-01 0.0000000000000000e+00  1.2294886282670794e-01 5.5610606530070084e-01 0.0000000000000000e+00  1.2278258154917378e-01 5.6034677339347660e-01 0.0000000000000000e+00  1.2289912764677605e-01 5.6442348926663144e-01 0.0000000000000000e+00  1.2273211030323050e-01 5.6861656360504398e-01 0.0000000000000000e+00  1.2285438355587057e-01 5.7268808192362153e-01 0.0000000000000000e+00  1.2268558318673622e-01 5.7683978654265067e-01 0.0000000000000000e+00  1.2281382159054129e-01 5.8090680900009994e-01 0.0000000000000000e+00  1.2264195216266512e-01 5.8502637558397197e-01 0.0000000000000000e+00  1.2277700926655412e-01 5.8908325377154658e-01 0.0000000000000000e+00  1.2260251084793414e-01 5.9316533826659645e-01 0.0000000000000000e+00  1.2274558002419857e-01 5.9720253795275313e-01 0.0000000000000000e+00  1.2256730905958148e-01 6.0125682107257394e-01 0.0000000000000000e+00  1.2271641765485741e-01 6.0529224047942720e-01 0.0000000000000000e+00  1.2253334974891732e-01 6.0932817768175207e-01 0.0000000000000000e+00  1.2268957340908067e-01 6.1335159023960617e-01 0.0000000000000000e+00  1.2250445882883720e-01 6.1734574052238567e-01 0.0000000000000000e+00  1.2266747974766617e-01 6.2135857552213181e-01 0.0000000000000000e+00  1.2247859220819443e-01 6.2532833643941543e-01 0.0000000000000000e+00  1.2264567066049634e-01 6.2935288601282946e-01 0.0000000000000000e+00  1.2245423638079879e-01 6.3328996152061257e-01 0.0000000000000000e+00  1.2262697675860973e-01 6.3730897118636132e-01 0.0000000000000000e+00  1.2243355252554615e-01 6.4121171798922827e-01 0.0000000000000000e+00  1.2261051350765170e-01 6.4523459072084399e-01 0.0000000000000000e+00  1.2241455934497118e-01 6.4911169903016253e-01 0.0000000000000000e+00  1.2259685684165889e-01 6.5312447961156195e-01 0.0000000000000000e+00  1.2239743971684217e-01 6.5698857587220350e-01 0.0000000000000000e+00  1.2258327850480433e-01 6.6100299302611876e-01 0.0000000000000000e+00  1.2238065946396159e-01 6.6485629213456732e-01 0.0000000000000000e+00  1.2257425634391149e-01 6.6883005967625764e-01 0.0000000000000000e+00  1.2236928831251624e-01 6.7266969711201852e-01 0.0000000000000000e+00  1.2256504025188826e-01 6.7664827383550774e-01 0.0000000000000000e+00  1.2235350114769926e-01 6.8051682195572172e-01 0.0000000000000000e+00  1.2255654665493546e-01 6.8444945939301882e-01 0.0000000000000000e+00  1.2234579061013552e-01 6.8828596352609128e-01 0.0000000000000000e+00  1.2255270183897195e-01 6.9219866297959587e-01 0.0000000000000000e+00  1.2233349752811495e-01 6.9609052235027780e-01 0.0000000000000000e+00  1.2254495968084669e-01 6.9997242340477028e-01 0.0000000000000000e+00  1.2232642935405073e-01 7.0384273721854529e-01 0.0000000000000000e+00  1.2254327446776449e-01 7.0768181505687566e-01 0.0000000000000000e+00  1.2231721368945951e-01 7.1160870102799967e-01 0.0000000000000000e+00  1.2253934895160011e-01 7.1540118454640445e-01 0.0000000000000000e+00  1.2231237802243090e-01 7.1933002632193865e-01 0.0000000000000000e+00  1.2253733450717295e-01 7.2309351204086370e-01 0.0000000000000000e+00  1.2230244004463238e-01 7.2709164253909875e-01 0.0000000000000000e+00  1.2253778557531025e-01 7.3075390007778251e-01 0.0000000000000000e+00  1.2230251339217821e-01 7.3475834847746557e-01 0.0000000000000000e+00  1.2253559247979140e-01 7.3842829222685591e-01 0.0000000000000000e+00  1.2228957671504692e-01 7.4253616385952659e-01 0.0000000000000000e+00  1.2253977815022050e-01 7.4603598201948895e-01 0.0000000000000000e+00  1.2229406301576194e-01 7.5015270689652114e-01 0.0000000000000000e+00  1.2253731182573976e-01 7.5369400353844551e-01 0.0000000000000000e+00  1.2228004796821042e-01 7.5792930006774484e-01 0.0000000000000000e+00  1.2254541057510260e-01 7.6124845581306522e-01 0.0000000000000000e+00  1.2228259219809784e-01 7.6555190055359756e-01 0.0000000000000000e+00  1.2254081268881803e-01 7.6890824498416133e-01 0.0000000000000000e+00  1.2227506540717824e-01 7.7325823065833565e-01 0.0000000000000000e+00  1.2255385827669141e-01 7.7640254772003947e-01 0.0000000000000000e+00  1.2226756756482553e-01 7.8095714591033116e-01 0.0000000000000000e+00  1.2255098152792078e-01 7.8403302226173732e-01 0.0000000000000000e+00  1.2227456425962269e-01 7.8851772546517906e-01 0.0000000000000000e+00  1.2255827604581002e-01 7.9156800082906531e-01 0.0000000000000000e+00  1.2225216539663844e-01 7.9633083967836260e-01 0.0000000000000000e+00  1.2257021181914945e-01 7.9905933969595033e-01 0.0000000000000000e+00  1.2226593795096821e-01 8.0380669960243045e-01 0.0000000000000000e+00  1.2255575375136626e-01 8.0678882235893246e-01 0.0000000000000000e+00  1.2225134713358270e-01 8.1151834697467340e-01 0.0000000000000000e+00  1.2258811911159723e-01 8.1410627081363807e-01 0.0000000000000000e+00  1.2224093831079469e-01 8.1916854483578450e-01 0.0000000000000000e+00  1.2257112956219549e-01 8.2188021231974673e-01 0.0000000000000000e+00  1.2226290004381524e-01 8.2649568975574905e-01 0.0000000000000000e+00  1.2257628514596995e-01 8.2948162957805815e-01 0.0000000000000000e+00  1.2223592494151984e-01 8.3421508479206363e-01 0.0000000000000000e+00  1.2260742750561325e-01 8.3689082122433578e-01 0.0000000000000000e+00  1.2223502656209118e-01 8.4163800544452838e-01 0.0000000000000000e+00  1.2257616768435908e-01 8.4491955737778524e-01 0.0000000000000000e+00  1.2227314184326961e-01 8.4862444850590624e-01 0.0000000000000000e+00  1.2258284373763285e-01 8.5269776696426125e-01 0.0000000000000000e+00  1.2221763416046458e-01 8.5632993926594225e-01 0.0000000000000000e+00  1.2264407889392352e-01 8.6011280635300935e-01 0.0000000000000000e+00  1.2220925198807579e-01 8.6345306128592936e-01 0.0000000000000000e+00  1.2260063899288894e-01 8.6863760149571168e-01 0.0000000000000000e+00  1.2225651443835107e-01 8.6986313887891864e-01 0.0000000000000000e+00  1.2260931125114095e-01 8.7692969104410323e-01 0.0000000000000000e+00  1.2217699755435824e-01 8.7712607734441095e-01 0.0000000000000000e+00  1.2273514480761553e-01 8.8448093313898302e-01 0.0000000000000000e+00  1.2205841140898716e-01 8.8437468550667619e-01 0.0000000000000000e+00  1.2279884495847715e-01 8.9298485763384461e-01 0.0000000000000000e+00  1.2206631588017600e-01 8.9002877420154958e-01 0.0000000000000000e+00  1.2275987464038085e-01 9.0290886698771866e-01 0.0000000000000000e+00  1.2205652926276192e-01 8.9526695529718081e-01 0.0000000000000000e+00  1.2289271911544222e-01 9.1191430556359176e-01 0.0000000000000000e+00  1.2178237925342029e-01 9.0217608947268690e-01 0.0000000000000000e+00  1.2326345175171530e-01 9.1953316868914892e-01 0.0000000000000000e+00  1.2139450409748227e-01 9.0927837894116359e-01 0.0000000000000000e+00  1.2359630529941050e-01 9.2835549905314085e-01 0.0000000000000000e+00  1.2115855850158505e-01 9.1406796300584581e-01 0.0000000000000000e+00  1.2372618468362492e-01 9.3997294916613783e-01 0.0000000000000000e+00  1.2111072734460926e-01 9.1610888916901545e-01 0.0000000000000000e+00  1.2373724252924577e-01 9.5372500636794344e-01 0.0000000000000000e+00  1.2106733956381215e-01 9.1696595372690848e-01 0.0000000000000000e+00  1.2386264505498984e-01 9.6757985058943297e-01 0.0000000000000000e+00  1.2081373901731424e-01 9.1853142573710944e-01 0.0000000000000000e+00  1.2424057774362199e-01 9.8029541178148416e-01 0.0000000000000000e+00  1.2031876057629567e-01 9.2111894678305317e-01 0.0000000000000000e+00  1.2482209743578052e-01 9.9222399400428474e-01 0.0000000000000000e+00  1.1966829898301908e-01 9.2407713469905228e-01 0.0000000000000000e+00  1.2551936661466759e-01 1.0039742251510382e+00 0.0000000000000000e+00  1.1893747943458305e-01 9.2695294495148040e-01 0.0000000000000000e+00  1.2626323376023710e-01 1.0158862767276700e+00 0.0000000000000000e+00  1.1819309046903857e-01 9.2947864395710456e-01 0.0000000000000000e+00  1.2699012669751381e-01 1.0281464286681634e+00 0.0000000000000000e+00  1.1748632526617585e-01 9.3163659250194486e-01 0.0000000000000000e+00  1.2766535195086678e-01 1.0405889995427056e+00 0.0000000000000000e+00  1.1683699722816461e-01 9.3378806720144303e-01 0.0000000000000000e+00  1.2827559639962163e-01 1.0527850404720409e+00 0.0000000000000000e+00  1.1626155198225002e-01 9.3639213715166436e-01 0.0000000000000000e+00  1.2879639394918108e-01 1.0643667866127395e+00 0.0000000000000000e+00  1.1579294259980671e-01 9.3978212197619693e-01 0.0000000000000000e+00  1.2919027843528696e-01 1.0750913844972865e+00 0.0000000000000000e+00  1.1546760370677565e-01 9.4422587757445298e-01 0.0000000000000000e+00  1.2942539392327176e-01 1.0847310441999227e+00 0.0000000000000000e+00  1.1531021957703852e-01 9.4999834861700871e-01 0.0000000000000000e+00  1.2948387258346772e-01 1.0930559800222948e+00 0.0000000000000000e+00  1.1533231815234894e-01 9.5732967667148861e-01 0.0000000000000000e+00  1.2936006808912853e-01 1.0999021563895344e+00 0.0000000000000000e+00  1.1553354967556624e-01 9.6633975520037407e-01 0.0000000000000000e+00  1.2906203662658683e-01 1.1051973923058829e+00 0.0000000000000000e+00  1.1590625208542063e-01 9.7696400541321637e-01 0.0000000000000000e+00  1.2859100571666165e-01 1.1091623399313384e+00 0.0000000000000000e+00  1.1650127426034239e-01 9.8835485013986779e-01 0.0000000000000000e+00  1.2784969661009996e-01 1.1131180792015645e+00 0.0000000000000000e+00  1.1751379496909214e-01 9.9813852781589163e-01 0.0000000000000000e+00  1.2664592514282683e-01 1.1194252081397302e+00 0.0000000000000000e+00  1.1899288152186120e-01 1.0050999525273701e+00 0.0000000000000000e+00  1.2511142497101127e-01 1.1277072499771492e+00 0.0000000000000000e+00  1.2026582356678839e-01 1.0144348275025985e+00 0.0000000000000000e+00  1.2406921896904861e-01 1.1314757869039462e+00 0.0000000000000000e+00  1.2064542892362029e-01 1.0314691245832510e+00 0.0000000000000000e+00  1.2387291961555189e-01 1.1283584278316747e+00 0.0000000000000000e+00  1.2077727112081284e-01 1.0496606563785205e+00 0.0000000000000000e+00  1.2363536354360789e-01 1.1269277476605986e+00 0.0000000000000000e+00  1.2112895077930934e-01 1.0642302767816105e+00 0.0000000000000000e+00  1.2339003469603445e-01 1.1273296153657419e+00 0.0000000000000000e+00  1.2107041635271575e-01 1.0804818893342065e+00 0.0000000000000000e+00  1.2370334319572883e-01 1.1247186795709527e+00 0.0000000000000000e+00  1.2044982669336184e-01 1.0996983322664819e+00 0.0000000000000000e+00  1.2468915017752538e-01 1.1180771960430851e+00 0.0000000000000000e+00  1.1902700855831407e-01 1.1242059741155801e+00 0.0000000000000000e+00  1.2683629854906173e-01 1.1028742867109742e+00 0.0000000000000000e+00  1.1664306929961689e-01 1.1558187832370230e+00 0.0000000000000000e+00  1.3006607378488286e-01 1.0795508176069684e+00 0.0000000000000000e+00  1.1386706604037923e-01 1.1899014956524292e+00 0.0000000000000000e+00  1.3344584571691714e-01 1.0560226293870367e+00 0.0000000000000000e+00  1.1161126918777921e-01 1.2186229779967725e+00 0.0000000000000000e+00  1.3475165446423071e-01 1.0514311493501853e+00 0.0000000000000000e+00  1.1209035439218812e-01 1.2220465126047817e+00 0.0000000000000000e+00  1.2988673170228088e-01 1.1015923437618500e+00 0.0000000000000000e+00  1.1912806735921991e-01 1.1659252333088703e+00 0.0000000000000000e+00  1.2040028463394546e-01 1.1933767845513121e+00 0.0000000000000000e+00  1.2824397458857134e-01 1.0919983282124965e+00 0.0000000000000000e+00  1.149830