<?xml version="1.0"?>
<VTKFile type="UnstructuredGrid"  version="0.1"  >
<UnstructuredGrid>
<Piece  NumberOfPoints="801" NumberOfCells="800">
<Points>
<DataArray  type="Float64"  NumberOfComponents="3"  format="ascii">-5 0 0  -4.9875 0 0  -4.975 0 0  -4.9625 0 0  -4.95 0 0  -4.9375 0 0  -4.925 0 0  -4.9125 0 0  -4.9 0 0  -4.8875 0 0  -4.875 0 0  -4.8625 0 0  -4.85 0 0  -4.8375 0 0  -4.825 0 0  -4.8125 0 0  -4.8 0 0  -4.7875 0 0  -4.775 0 0  -4.7625 0 0  -4.75 0 0  -4.7375 0 0  -4.725 0 0  -4.7125 0 0  -4.7 0 0  -4.6875 0 0  -4.675 0 0  -4.6625 0 0  -4.65 0 0  -4.6375 0 0  -4.625 0 0  -4.6125 0 0  -4.6 0 0  -4.5875 0 0  -4.575 0 0  -4.5625 0 0  -4.55 0 0  -4.5375 0 0  -4.525 0 0  -4.5125 0 0  -4.5 0 0  -4.4875 0 0  -4.475 0 0  -4.4625 0 0  -4.45 0 0  -4.4375 0 0  -4.425 0 0  -4.4125 0 0  -4.4 0 0  -4.3875 0 0  -4.375 0 0  -4.3625 0 0  -4.35 0 0  -4.3375 0 0  -4.325 0 0  -4.3125 0 0  -4.3 0 0  -4.2875 0 0  -4.275 0 0  -4.2625 0 0  -4.25 0 0  -4.2375 0 0  -4.225 0 0  -4.2125 0 0  -4.2 0 0  -4.1875 0 0  -4.175 0 0  -4.1625 0 0  -4.15 0 0  -4.1375 0 0  -4.125 0 0  -4.1125 0 0  -4.1 0 0  -4.0875 0 0  -4.075 0 0  -4.0625 0 0  -4.05 0 0  -4.0375 0 0  -4.025 0 0  -4.0125 0 0  -4 0 0  -3.9875 0 0  -3.975 0 0  -3.9625 0 0  -3.95 0 0  -3.9375 0 0  -3.925 0 0  -3.9125 0 0  -3.9 0 0  -3.8875 0 0  -3.875 0 0  -3.8625 0 0  -3.85 0 0  -3.8375 0 0  -3.825 0 0  -3.8125 0 0  -3.8 0 0  -3.7875 0 0  -3.775 0 0  -3.7625 0 0  -3.75 0 0  -3.7375 0 0  -3.725 0 0  -3.7125 0 0  -3.7 0 0  -3.6875 0 0  -3.675 0 0  -3.6625 0 0  -3.65 0 0  -3.6375 0 0  -3.625 0 0  -3.6125 0 0  -3.6 0 0  -3.5875 0 0  -3.575 0 0  -3.5625 0 0  -3.55 0 0  -3.5375 0 0  -3.525 0 0  -3.5125 0 0  -3.5 0 0  -3.4875 0 0  -3.475 0 0  -3.4625 0 0  -3.45 0 0  -3.4375 0 0  -3.425 0 0  -3.4125 0 0  -3.4 0 0  -3.3875 0 0  -3.375 0 0  -3.3625 0 0  -3.35 0 0  -3.3375 0 0  -3.325 0 0  -3.3125 0 0  -3.3 0 0  -3.2875 0 0  -3.275 0 0  -3.2625 0 0  -3.25 0 0  -3.2375 0 0  -3.225 0 0  -3.2125 0 0  -3.2 0 0  -3.1875 0 0  -3.175 0 0  -3.1625 0 0  -3.15 0 0  -3.1375 0 0  -3.125 0 0  -3.1125 0 0  -3.1 0 0  -3.0875 0 0  -3.075 0 0  -3.0625 0 0  -3.05 0 0  -3.0375 0 0  -3.025 0 0  -3.0125 0 0  -3 0 0  -2.9875 0 0  -2.975 0 0  -2.9625 0 0  -2.95 0 0  -2.9375 0 0  -2.925 0 0  -2.9125 0 0  -2.9 0 0  -2.8875 0 0  -2.875 0 0  -2.8625 0 0  -2.85 0 0  -2.8375 0 0  -2.825 0 0  -2.8125 0 0  -2.8 0 0  -2.7875 0 0  -2.775 0 0  -2.7625 0 0  -2.75 0 0  -2.7375 0 0  -2.725 0 0  -2.7125 0 0  -2.7 0 0  -2.6875 0 0  -2.675 0 0  -2.6625 0 0  -2.65 0 0  -2.6375 0 0  -2.625 0 0  -2.6125 0 0  -2.6 0 0  -2.5875 0 0  -2.575 0 0  -2.5625 0 0  -2.55 0 0  -2.5375 0 0  -2.525 0 0  -2.5125 0 0  -2.5 0 0  -2.4875 0 0  -2.475 0 0  -2.4625 0 0  -2.45 0 0  -2.4375 0 0  -2.425 0 0  -2.4125 0 0  -2.4 0 0  -2.3875 0 0  -2.375 0 0  -2.3625 0 0  -2.35 0 0  -2.3375 0 0  -2.325 0 0  -2.3125 0 0  -2.3 0 0  -2.2875 0 0  -2.275 0 0  -2.2625 0 0  -2.25 0 0  -2.2375 0 0  -2.225 0 0  -2.2125 0 0  -2.2 0 0  -2.1875 0 0  -2.175 0 0  -2.1625 0 0  -2.15 0 0  -2.1375 0 0  -2.125 0 0  -2.1125 0 0  -2.1 0 0  -2.0875 0 0  -2.075 0 0  -2.0625 0 0  -2.05 0 0  -2.0375 0 0  -2.025 0 0  -2.0125 0 0  -2 0 0  -1.9875 0 0  -1.975 0 0  -1.9625 0 0  -1.95 0 0  -1.9375 0 0  -1.925 0 0  -1.9125 0 0  -1.9 0 0  -1.8875 0 0  -1.875 0 0  -1.8625 0 0  -1.85 0 0  -1.8375 0 0  -1.825 0 0  -1.8125 0 0  -1.8 0 0  -1.7875 0 0  -1.775 0 0  -1.7625 0 0  -1.75 0 0  -1.7375 0 0  -1.725 0 0  -1.7125 0 0  -1.7 0 0  -1.6875 0 0  -1.675 0 0  -1.6625 0 0  -1.65 0 0  -1.6375 0 0  -1.625 0 0  -1.6125 0 0  -1.6 0 0  -1.5875 0 0  -1.575 0 0  -1.5625 0 0  -1.55 0 0  -1.5375 0 0  -1.525 0 0  -1.5125 0 0  -1.5 0 0  -1.4875 0 0  -1.475 0 0  -1.4625 0 0  -1.45 0 0  -1.4375 0 0  -1.425 0 0  -1.4125 0 0  -1.4 0 0  -1.3875 0 0  -1.375 0 0  -1.3625 0 0  -1.35 0 0  -1.3375 0 0  -1.325 0 0  -1.3125 0 0  -1.3 0 0  -1.2875 0 0  -1.275 0 0  -1.2625 0 0  -1.25 0 0  -1.2375 0 0  -1.225 0 0  -1.2125 0 0  -1.2 0 0  -1.1875 0 0  -1.175 0 0  -1.1625 0 0  -1.15 0 0  -1.1375 0 0  -1.125 0 0  -1.1125 0 0  -1.1 0 0  -1.0875 0 0  -1.075 0 0  -1.0625 0 0  -1.05 0 0  -1.0375 0 0  -1.025 0 0  -1.0125 0 0  -1 0 0  -0.9874999999999998 0 0  -0.9749999999999996 0 0  -0.9625000000000004 0 0  -0.9500000000000002 0 0  -0.9375 0 0  -0.9249999999999998 0 0  -0.9124999999999996 0 0  -0.9000000000000004 0 0  -0.8875000000000002 0 0  -0.875 0 0  -0.8624999999999998 0 0  -0.8499999999999996 0 0  -0.8375000000000004 0 0  -0.8250000000000002 0 0  -0.8125 0 0  -0.7999999999999998 0 0  -0.7874999999999996 0 0  -0.7750000000000004 0 0  -0.7625000000000002 0 0  -0.75 0 0  -0.7374999999999998 0 0  -0.7249999999999996 0 0  -0.7125000000000004 0 0  -0.7000000000000002 0 0  -0.6875 0 0  -0.6749999999999998 0 0  -0.6624999999999996 0 0  -0.6500000000000004 0 0  -0.6375000000000002 0 0  -0.625 0 0  -0.6124999999999998 0 0  -0.5999999999999996 0 0  -0.5875000000000004 0 0  -0.5750000000000002 0 0  -0.5625 0 0  -0.5499999999999998 0 0  -0.5374999999999996 0 0  -0.5250000000000004 0 0  -0.5125000000000002 0 0  -0.5 0 0  -0.4874999999999998 0 0  -0.4749999999999996 0 0  -0.4625000000000004 0 0  -0.4500000000000002 0 0  -0.4375 0 0  -0.4249999999999998 0 0  -0.4124999999999996 0 0  -0.4000000000000004 0 0  -0.3875000000000002 0 0  -0.375 0 0  -0.3624999999999998 0 0  -0.3499999999999996 0 0  -0.3375000000000004 0 0  -0.3250000000000002 0 0  -0.3125 0 0  -0.2999999999999998 0 0  -0.2874999999999996 0 0  -0.2750000000000004 0 0  -0.2625000000000002 0 0  -0.25 0 0  -0.2374999999999998 0 0  -0.2249999999999996 0 0  -0.2125000000000004 0 0  -0.2000000000000002 0 0  -0.1875 0 0  -0.1749999999999998 0 0  -0.1624999999999996 0 0  -0.1500000000000004 0 0  -0.1375000000000002 0 0  -0.125 0 0  -0.1124999999999998 0 0  -0.09999999999999964 0 0  -0.08750000000000036 0 0  -0.07500000000000018 0 0  -0.0625 0 0  -0.04999999999999982 0 0  -0.03749999999999964 0 0  -0.02500000000000036 0 0  -0.01250000000000018 0 0  0 0 0  0.01250000000000018 0 0  0.02500000000000036 0 0  0.03749999999999964 0 0  0.04999999999999982 0 0  0.0625 0 0  0.07500000000000018 0 0  0.08750000000000036 0 0  0.09999999999999964 0 0  0.1124999999999998 0 0  0.125 0 0  0.1375000000000002 0 0  0.1500000000000004 0 0  0.1624999999999996 0 0  0.1749999999999998 0 0  0.1875 0 0  0.2000000000000002 0 0  0.2125000000000004 0 0  0.2249999999999996 0 0  0.2374999999999998 0 0  0.25 0 0  0.2625000000000002 0 0  0.2750000000000004 0 0  0.2874999999999996 0 0  0.2999999999999998 0 0  0.3125 0 0  0.3250000000000002 0 0  0.3375000000000004 0 0  0.3499999999999996 0 0  0.3624999999999998 0 0  0.375 0 0  0.3875000000000002 0 0  0.4000000000000004 0 0  0.4124999999999996 0 0  0.4249999999999998 0 0  0.4375 0 0  0.4500000000000002 0 0  0.4625000000000004 0 0  0.4749999999999996 0 0  0.4874999999999998 0 0  0.5 0 0  0.5125000000000002 0 0  0.5250000000000004 0 0  0.5374999999999996 0 0  0.5499999999999998 0 0  0.5625 0 0  0.5750000000000002 0 0  0.5875000000000004 0 0  0.5999999999999996 0 0  0.6124999999999998 0 0  0.625 0 0  0.6375000000000002 0 0  0.6500000000000004 0 0  0.6624999999999996 0 0  0.6749999999999998 0 0  0.6875 0 0  0.7000000000000002 0 0  0.7125000000000004 0 0  0.7249999999999996 0 0  0.7374999999999998 0 0  0.75 0 0  0.7625000000000002 0 0  0.7750000000000004 0 0  0.7874999999999996 0 0  0.7999999999999998 0 0  0.8125 0 0  0.8250000000000002 0 0  0.8375000000000004 0 0  0.8499999999999996 0 0  0.8624999999999998 0 0  0.875 0 0  0.8875000000000002 0 0  0.9000000000000004 0 0  0.9124999999999996 0 0  0.9249999999999998 0 0  0.9375 0 0  0.9500000000000002 0 0  0.9625000000000004 0 0  0.9749999999999996 0 0  0.9874999999999998 0 0  1 0 0  1.0125 0 0  1.025 0 0  1.0375 0 0  1.05 0 0  1.0625 0 0  1.075 0 0  1.0875 0 0  1.1 0 0  1.1125 0 0  1.125 0 0  1.1375 0 0  1.15 0 0  1.1625 0 0  1.175 0 0  1.1875 0 0  1.2 0 0  1.2125 0 0  1.225 0 0  1.2375 0 0  1.25 0 0  1.2625 0 0  1.275 0 0  1.2875 0 0  1.3 0 0  1.3125 0 0  1.325 0 0  1.3375 0 0  1.35 0 0  1.3625 0 0  1.375 0 0  1.3875 0 0  1.4 0 0  1.4125 0 0  1.425 0 0  1.4375 0 0  1.45 0 0  1.4625 0 0  1.475 0 0  1.4875 0 0  1.5 0 0  1.5125 0 0  1.525 0 0  1.5375 0 0  1.55 0 0  1.5625 0 0  1.575 0 0  1.5875 0 0  1.6 0 0  1.6125 0 0  1.625 0 0  1.6375 0 0  1.65 0 0  1.6625 0 0  1.675 0 0  1.6875 0 0  1.7 0 0  1.7125 0 0  1.725 0 0  1.7375 0 0  1.75 0 0  1.7625 0 0  1.775 0 0  1.7875 0 0  1.8 0 0  1.8125 0 0  1.825 0 0  1.8375 0 0  1.85 0 0  1.8625 0 0  1.875 0 0  1.8875 0 0  1.9 0 0  1.9125 0 0  1.925 0 0  1.9375 0 0  1.95 0 0  1.9625 0 0  1.975 0 0  1.9875 0 0  2 0 0  2.0125 0 0  2.025 0 0  2.0375 0 0  2.05 0 0  2.0625 0 0  2.075 0 0  2.0875 0 0  2.1 0 0  2.1125 0 0  2.125 0 0  2.1375 0 0  2.15 0 0  2.1625 0 0  2.175 0 0  2.1875 0 0  2.2 0 0  2.2125 0 0  2.225 0 0  2.2375 0 0  2.25 0 0  2.2625 0 0  2.275 0 0  2.2875 0 0  2.3 0 0  2.3125 0 0  2.325 0 0  2.3375 0 0  2.35 0 0  2.3625 0 0  2.375 0 0  2.3875 0 0  2.4 0 0  2.4125 0 0  2.425 0 0  2.4375 0 0  2.45 0 0  2.4625 0 0  2.475 0 0  2.4875 0 0  2.5 0 0  2.5125 0 0  2.525 0 0  2.5375 0 0  2.55 0 0  2.5625 0 0  2.575 0 0  2.5875 0 0  2.6 0 0  2.6125 0 0  2.625 0 0  2.6375 0 0  2.65 0 0  2.6625 0 0  2.675 0 0  2.6875 0 0  2.7 0 0  2.7125 0 0  2.725 0 0  2.7375 0 0  2.75 0 0  2.7625 0 0  2.775 0 0  2.7875 0 0  2.8 0 0  2.8125 0 0  2.825 0 0  2.8375 0 0  2.85 0 0  2.8625 0 0  2.875 0 0  2.8875 0 0  2.9 0 0  2.9125 0 0  2.925 0 0  2.9375 0 0  2.95 0 0  2.9625 0 0  2.975 0 0  2.9875 0 0  3 0 0  3.012499999999999 0 0  3.025 0 0  3.0375 0 0  3.050000000000001 0 0  3.0625 0 0  3.074999999999999 0 0  3.0875 0 0  3.1 0 0  3.112500000000001 0 0  3.125 0 0  3.137499999999999 0 0  3.15 0 0  3.1625 0 0  3.175000000000001 0 0  3.1875 0 0  3.199999999999999 0 0  3.2125 0 0  3.225 0 0  3.237500000000001 0 0  3.25 0 0  3.262499999999999 0 0  3.275 0 0  3.2875 0 0  3.300000000000001 0 0  3.3125 0 0  3.324999999999999 0 0  3.3375 0 0  3.35 0 0  3.362500000000001 0 0  3.375 0 0  3.387499999999999 0 0  3.4 0 0  3.4125 0 0  3.425000000000001 0 0  3.4375 0 0  3.449999999999999 0 0  3.4625 0 0  3.475 0 0  3.4875
[...]
<PointData  Vectors="(h, u)"> 
<DataArray  type="Float64"  Name="(h, u)"  NumberOfComponents="3" format="ascii">2.1455373957424939e-01 0.0000000000000000e+00 0.0000000000000000e+00  2.1265881783434215e-01 6.4278468481150219e-03 0.0000000000000000e+00  2.1455120086660773e-01 1.2576378825277961e-02 0.0000000000000000e+00  2.1265434266320538e-01 1.9283510583204315e-02 0.0000000000000000e+00  2.1454355322672156e-01 2.5153792143387962e-02 0.0000000000000000e+00  2.1264536299349665e-01 3.2139089331463824e-02 0.0000000000000000e+00  2.1453078419245225e-01 3.7733235175151598e-02 0.0000000000000000e+00  2.1263191054820132e-01 4.4994441973459198e-02 0.0000000000000000e+00  2.1451291497858618e-01 5.0315643066655327e-02 0.0000000000000000e+00  2.1261400050327112e-01 5.7849503748094888e-02 0.0000000000000000e+00  2.1448990026060916e-01 6.2902133179905159e-02 0.0000000000000000e+00  2.1259160168171798e-01 7.0704348478763612e-02 0.0000000000000000e+00  2.1446170257134148e-01 7.5493729991665509e-02 0.0000000000000000e+00  2.1256475055432345e-01 8.3558779585160767e-02 0.0000000000000000e+00  2.1442833601066350e-01 8.8091243472791403e-02 0.0000000000000000e+00  2.1253347426668520e-01 9.6412726534844090e-02 0.0000000000000000e+00  2.1438973517096069e-01 1.0069587953008875e-01 0.0000000000000000e+00  2.1249773149287629e-01 1.0926645359155028e-01 0.0000000000000000e+00  2.1434583759369347e-01 1.1330871844361420e-01 0.0000000000000000e+00  2.1245756633552815e-01 1.2211972485910597e-01 0.0000000000000000e+00  2.1429665483533733e-01 1.2593041718023412e-01 0.0000000000000000e+00  2.1241301002421162e-01 1.3497249056460150e-01 0.0000000000000000e+00  2.1424208959821095e-01 1.3856232097576004e-01 0.0000000000000000e+00  2.1236399730822500e-01 1.4782528625063207e-01 0.0000000000000000e+00  2.1418205687729908e-01 1.5120557565270634e-01 0.0000000000000000e+00  2.1231058698232738e-01 1.6067781480014984e-01 0.0000000000000000e+00  2.1411657169959170e-01 1.6386066328152943e-01 0.0000000000000000e+00  2.1225279936197766e-01 1.7353012925908540e-01 0.0000000000000000e+00  2.1404548384423128e-01 1.7652918690699074e-01 0.0000000000000000e+00  2.1219053019086537e-01 1.8638311835768956e-01 0.0000000000000000e+00  2.1396869674119409e-01 1.8921229331332359e-01 0.0000000000000000e+00  2.1212387028617113e-01 1.9923633039679725e-01 0.0000000000000000e+00  2.1388623249565766e-01 2.0191028943652500e-01 0.0000000000000000e+00  2.1205280082427888e-01 2.1209010899697986e-01 0.0000000000000000e+00  2.1379785849472133e-01 2.1462522512690629e-01 0.0000000000000000e+00  2.1197717443174099e-01 2.2494569344019333e-01 0.0000000000000000e+00  2.1370350139554359e-01 2.2735801871492087e-01 0.0000000000000000e+00  2.1189714178039259e-01 2.3780228647171364e-01 0.0000000000000000e+00  2.1360317832914619e-01 2.4010892498593892e-01 0.0000000000000000e+00  2.1181259260774138e-01 2.5066087022672529e-01 0.0000000000000000e+00  2.1349654749811556e-01 2.5288063955432477e-01 0.0000000000000000e+00  2.1172337230173116e-01 2.6352275882185461e-01 0.0000000000000000e+00  2.1338362833334137e-01 2.6567337962034959e-01 0.0000000000000000e+00  2.1162971185880711e-01 2.7638665977306481e-01 0.0000000000000000e+00  2.1326436804718554e-01 2.7848780934759287e-01 0.0000000000000000e+00  2.1153133352762488e-01 2.8925472529653889e-01 0.0000000000000000e+00  2.1313832718480072e-01 2.9132719956125092e-01 0.0000000000000000e+00  2.1142819121212775e-01 3.0212756047448874e-01 0.0000000000000000e+00  2.1300570061032073e-01 3.0419048884127570e-01 0.0000000000000000e+00  2.1132054224934871e-01 3.1500373405398674e-01 0.0000000000000000e+00  2.1286621146301485e-01 3.1707980731059615e-01 0.0000000000000000e+00  2.1120788810541249e-01 3.2788693078725184e-01 0.0000000000000000e+00  2.1271945654118599e-01 3.2999812021063285e-01 0.0000000000000000e+00  2.1109048492942220e-01 3.4077571400794288e-01 0.0000000000000000e+00  2.1256579695606478e-01 3.4294317975519600e-01 0.0000000000000000e+00  2.1096838574917406e-01 3.5367003552116261e-01 0.0000000000000000e+00  2.1240453832056483e-01 3.5591993347268974e-01 0.0000000000000000e+00  2.1084099887563157e-01 3.6657421397222295e-01 0.0000000000000000e+00  2.1223563475984153e-01 3.6892888945802793e-01 0.0000000000000000e+00  2.1070900342827628e-01 3.7948393421609244e-01 0.0000000000000000e+00  2.1205930548643462e-01 3.8196873570015938e-01 0.0000000000000000e+00  2.1057185866879496e-01 3.9240317788178319e-01 0.0000000000000000e+00  2.1187447868187678e-01 3.9504695539283791e-01 0.0000000000000000e+00  2.1042937727338631e-01 4.0533353062078276e-01 0.0000000000000000e+00  2.1168180190597705e-01 4.0815927991012002e-01 0.0000000000000000e+00  2.1028231098276443e-01 4.1827020807293919e-01 0.0000000000000000e+00  2.1148069099047612e-01 4.2130983090381308e-01 0.0000000000000000e+00  2.1012937043602847e-01 4.3122231547230161e-01 0.0000000000000000e+00  2.1127041700964777e-01 4.3450370186193543e-01 0.0000000000000000e+00  2.0997141859787091e-01 4.4418430693074018e-01 0.0000000000000000e+00  2.1105205743950087e-01 4.4773365177084212e-01 0.0000000000000000e+00  2.0980815190021607e-01 4.5715858832260081e-01 0.0000000000000000e+00  2.1082383578168837e-01 4.6101194370249887e-01 0.0000000000000000e+00  2.0963837348664932e-01 4.7015362734304328e-01 0.0000000000000000e+00  2.1058666383480454e-01 4.7433247673994944e-01 0.0000000000000000e+00  2.0946372791045270e-01 4.8315850450912357e-01 0.0000000000000000e+00  2.1034052223795760e-01 4.8769553835766694e-01 0.0000000000000000e+00  2.0928177123673372e-01 4.9619018487447358e-01 0.0000000000000000e+00  2.1008368531145011e-01 5.0111309416320970e-01 0.0000000000000000e+00  2.0909340727604170e-01 5.0924275415903264e-01 0.0000000000000000e+00  2.0981884873529774e-01 5.1456687143724267e-01 0.0000000000000000e+00  2.0889856317226779e-01 5.2231698740671328e-01 0.0000000000000000e+00  2.0954296448420368e-01 5.2807790367161300e-01 0.0000000000000000e+00  2.0869425746974385e-01 5.3543353567551610e-01 0.0000000000000000e+00  2.0925784901528452e-01 5.4163389844659038e-01 0.0000000000000000e+00  2.0848409302871818e-01 5.4856802931942061e-01 0.0000000000000000e+00  2.0896386393184910e-01 5.5523252166454828e-01 0.0000000000000000e+00  2.0826281206809646e-01 5.6175678967808984e-01 0.0000000000000000e+00  2.0865741841122179e-01 5.6889849575321483e-01 0.0000000000000000e+00  2.0803330475704024e-01 5.7498030582675286e-01 0.0000000000000000e+00  2.0834463641102113e-01 5.8258992911328999e-01 0.0000000000000000e+00  2.0779450924143317e-01 5.8824621002286359e-01 0.0000000000000000e+00  2.0801734913898495e-01 5.9636298021130585e-01 0.0000000000000000e+00  2.0754186088191076e-01 6.0158612846958592e-01 0.0000000000000000e+00  2.0768270144655654e-01 6.1016869843984378e-01 0.0000000000000000e+00  2.0728369037208882e-01 6.1494315182196113e-01 0.0000000000000000e+00  2.0733591501698614e-01 6.2404007157381314e-01 0.0000000000000000e+00  2.0700614893661368e-01 6.2841277345954816e-01 0.0000000000000000e+00  2.0697518376685248e-01 6.3798966286166547e-01 0.0000000000000000e+00  2.0672424031701270e-01 6.4189198398531144e-01 0.0000000000000000e+00  2.0660911264007792e-01 6.5195851703003926e-01 0.0000000000000000e+00  2.0642232945691610e-01 6.5548873758274095e-01 0.0000000000000000e+00  2.0621899832498541e-01 6.6607560441395219e-01 0.0000000000000000e+00  2.0611023421509025e-01 6.6913551532850879e-01 0.0000000000000000e+00  2.0583093499533894e-01 6.8016143516838168e-01 0.0000000000000000e+00  2.0578528638553145e-01 6.8285103125295044e-01 0.0000000000000000e+00  2.0541041225305448e-01 6.9445422828236925e-01 0.0000000000000000e+00  2.0543601413041132e-01 6.9671466737997756e-01 0.0000000000000000e+00  2.0499422168737402e-01 7.0870034723642095e-01 0.0000000000000000e+00  2.0508812865237158e-01 7.1054905535182189e-01 0.0000000000000000e+00  2.0454453595983627e-01 7.2316138148859066e-01 0.0000000000000000e+00  2.0469566991303861e-01 7.2467247476711150e-01 0.0000000000000000e+00  2.0409145560343145e-01 7.3762940351555972e-01 0.0000000000000000e+00  2.0432232900711492e-01 7.3864416862651616e-01 0.0000000000000000e+00  2.0361524713071127e-01 7.5224136022908894e-01 0.0000000000000000e+00  2.0388236315686492e-01 7.5305910958004196e-01 0.0000000000000000e+00  2.0311529362564432e-01 7.6700161030311897e-01 0.0000000000000000e+00  2.0347832471692948e-01 7.6720579849549730e-01 0.0000000000000000e+00  2.0261587307285439e-01 7.8174230161247893e-01 0.0000000000000000e+00  2.0298808979514524e-01 7.8193358181423511e-01 0.0000000000000000e+00  2.0205920245100892e-01 7.9686466810620260e-01 0.0000000000000000e+00  2.0254665305911290e-01 7.9630345213787779e-01 0.0000000000000000e+00  2.0154094769120945e-01 8.1170441606673205e-01 0.0000000000000000e+00  2.0200451426102273e-01 8.1135774149438822e-01 0.0000000000000000e+00  2.0091910917488884e-01 8.2724994701308163e-01 0.0000000000000000e+00  2.0152034276167669e-01 8.2598973225887895e-01 0.0000000000000000e+00  2.0038972487544873e-01 8.4213592100057910e-01 0.0000000000000000e+00  2.0092567513461890e-01 8.4137717384258870e-01 0.0000000000000000e+00  1.9969755132285702e-01 8.5814377308066692e-01 0.0000000000000000e+00  2.0040011483597470e-01 8.5626363482679479e-01 0.0000000000000000e+00  1.9917258939458782e-01 8.7296811472293989e-01 0.0000000000000000e+00  1.9975338519714153e-01 8.7198327339922277e-01 0.0000000000000000e+00  1.9841214425755546e-01 8.8942764401114149e-01 0.0000000000000000e+00  1.9920403573384496e-01 8.8700236154104273e-01 0.0000000000000000e+00  1.9792030187317713e-01 9.0398942240659608e-01 0.0000000000000000e+00  1.9850428691627628e-01 9.0306345592250836e-01 0.0000000000000000e+00  1.9710868569809367e-01 9.2078436498668248e-01 0.0000000000000000e+00  1.9797964667107673e-01 9.1787476959255954e-01 0.0000000000000000e+00  1.9668908844913646e-01 9.3480731280681473e-01 0.0000000000000000e+00  1.9721223084307410e-01 9.3438364387859818e-01 0.0000000000000000e+00  1.9587521888925677e-01 9.5159548371143798e-01 0.0000000000000000e+00  1.9680530541251109e-01 9.4832965297028837e-01 0.0000000000000000e+00  1.9554173477110148e-01 9.6497930009129351e-01 0.0000000000000000e+00  1.9592216443374477e-01 9.6563030914208270e-01 0.0000000000000000e+00  1.9485282862585609e-01 9.8086032114647836e-01 0.0000000000000000e+00  1.9574676173257949e-01 9.7790180120870507e-01 0.0000000000000000e+00  1.9449324799284037e-01 9.9439748186898946e-01 0.0000000000000000e+00  1.9471570584554732e-01 9.9622820510867138e-01 0.0000000000000000e+00  1.9421981396576760e-01 1.0073041732003065e+00 0.0000000000000000e+00  1.9471470375631927e-01 1.0072271052914821e+00 0.0000000000000000e+00  1.9353155027940636e-01 1.0231453039977518e+00 0.0000000000000000e+00  1.9383279728641681e-01 1.0244712256184731e+00 0.0000000000000000e+00  1.9396180464600127e-01 1.0310174430579950e+00 0.0000000000000000e+00  1.9335924019471892e-01 1.0387986174060315e+00 0.0000000000000000e+00  1.9303807403258189e-01 1.0485101153730969e+00 0.0000000000000000e+00  1.9343965975692967e-01 1.0491617409378367e+00 0.0000000000000000e+00  1.9336296568139338e-01 1.0571013656207040e+00 0.0000000000000000e+00  1.9197597944494188e-01 1.0705168283138831e+00 0.0000000000000000e+00  1.9376307010115459e-01 1.0651288065006912e+00 0.0000000000000000e+00  1.9219148283450127e-01 1.0798914986915411e+00 0.0000000000000000e+00  1.9263570734605409e-01 1.0840436670676548e+00 0.0000000000000000e+00  1.9215663032479177e-01 1.0910292865771438e+00 0.0000000000000000e+00  1.9353883725274465e-01 1.0884590595011461e+00 0.0000000000000000e+00  1.9017774766958495e-01 1.1160346508182810e+00 0.0000000000000000e+00  1.9457032653972328e-01 1.0919235025039649e+00 0.0000000000000000e+00  1.9015076904008532e-01 1.1270990563121797e+00 0.0000000000000000e+00  1.9314182636784405e-01 1.1129628742316344e+00 0.0000000000000000e+00  1.9136741111331099e-01 1.1292549956946927e+00 0.0000000000000000e+00  1.9269566613032990e-01 1.1269726180018302e+00 0.0000000000000000e+00  1.8994604016148969e-01 1.1502539181396816e+00 0.0000000000000000e+00  1.9498509573175193e-01 1.1214028167308137e+00 0.0000000000000000e+00  1.8709287316158296e-01 1.1814879531349749e+00 0.0000000000000000e+00  1.9657886235814045e-01 1.1207717644694899e+00 0.0000000000000000e+00  1.8683943764598290e-01 1.1941349157761212e+00 0.0000000000000000e+00  1.9475468942620228e-01 1.1446169675722471e+00 0.0000000000000000e+00  1.9010476465854786e-01 1.1815849589329583e+00 0.0000000000000000e+00  1.9033485050336896e-01 1.1870281324888570e+00 0.0000000000000000e+00  1.9463045140273347e-01 1.1599607530870659e+00 0.0000000000000000e+00  1.8567108866414322e-01 1.2311944965593780e+00 0.0000000000000000e+00  1.9822006266691591e-01 1.1449832753892808e+00 0.0000000000000000e+00  1.8236384157025243e-01 1.2656954860042577e+00 0.0000000000000000e+00  2.0018656034526686e-01 1.1416133897880489e+00 0.0000000000000000e+00  1.8069918934159915e-01 1.2884427887390462e+00 0.0000000000000000e+00  2.0081258373206207e-01 1.1478520325872563e+00 0.0000000000000000e+00  1.8028066105608631e-01 1.3022331524162909e+00 0.0000000000000000e+00  2.0058003931294027e-01 1.1602426910036534e+00 0.0000000000000000e+00  1.8063500498785467e-01 1.3104460743440283e+00 0.0000000000000000e+00  1.9986267205033026e-01 1.1760973223064106e+00 0.0000000000000000e+00  1.8141109707382011e-01 1.3156027520634419e+00 0.0000000000000000e+00  1.9890492400417364e-01 1.1936604760723777e+00 0.0000000000000000e+00  1.8237558116709307e-01 1.3193835414207937e+00 0.0000000000000000e+00  1.9786382246184947e-01 1.2118068241307107e+00 0.0000000000000000e+00  1.8337721208632191e-01 1.3228820366081389e+00 0.0000000000000000e+00  1.9683980572073961e-01 1.2298146894239648e+00 0.0000000000000000e+00  1.8432227754225125e-01 1.3267787353758194e+00 0.0000000000000000e+00  1.9589373957019887e-01 1.2472496346314610e+00 0.0000000000000000e+00  1.8515865871525961e-01 1.3314442598960898e+00 0.0000000000000000e+00  1.9505762130755563e-01 1.2638949753905400e+00 0.0000000000000000e+00  1.8586450426768777e-01 1.3370255009163794e+00 0.0000000000000000e+00  1.9434115326153545e-01 1.2796833034158579e+00 0.0000000000000000e+00  1.8644039939604892e-01 1.3435339531056902e+00 0.0000000000000000e+00  1.9373744970865975e-01 1.2946334228525724e+00 0.0000000000000000e+00  1.8690015946211250e-01 1.3509008389027415e+00 0.0000000000000000e+00  1.9323327256715100e-01 1.3088349147041756e+00 0.0000000000000000e+00  1.8725828798537941e-01 1.3589807816850756e+00 0.0000000000000000e+00  1.9281825911266026e-01 1.3224459179034327e+00 0.0000000000000000e+00  1.8752723977730473e-01 1.3675969626043900e+00 0.0000000000000000e+00  1.9247765458133673e-01 1.3355942616948047e+00 0.0000000000000000e+00  1.8773123601616060e-01 1.3766777774664958e+00 0.0000000000000000e+00  1.9218117757669262e-01 1.3482703940595782e+00 0.0000000000000000e+00  1.8790209761933985e-01 1.3862462163878531e+00 0.0000000000000000e+00  1.9191024053880404e-01 1.3605116307203828e+00 0.0000000000000000e+00  1.8803476469695515e-01 1.3961048634222564e+00 0.0000000000000000e+00  1.9169675941220116e-01 1.3726803372276632e+00 0.0000000000000000e+00  1.8808751476329744e-01 1.4058336862749776e+00 0.0000000000000000e+00  1.9156015720564096e-01 1.3850153766996356e+00 0.0000000000000000e+00  1.8809871727615335e-01 1.4156222985591338e+00 0.0000000000000000e+00  1.9139221624364680e-01 1.3968086853253145e+00 0.0000000000000000e+00  1.8821307732011452e-01 1.4264529033371065e+00 0.0000000000000000e+00  1.9109361878778058e-01 1.4073917275398364e+00 0.0000000000000000e+00  1.8838544933923262e-01 1.4379656348516969e+00 0.0000000000000000e+00  1.9090681633544446e-01 1.4185393369813699e+00 0.0000000000000000e+00  1.8823465868472247e-01 1.4473999799346207e+00 0.0000000000000000e+00  1.9115545338441081e-01 1.4326072419537039e+00 0.0000000000000000e+00  1.8776520189288898e-01 1.4547650717069229e+00 0.0000000000000000e+00  1.9130865825840968e-01 1.4457897156087600e+00 0.0000000000000000e+00  1.8797077834327675e-01 1.4672117403282019e+00 0.0000000000000000e+00  1.9033877999656407e-01 1.4506908323426262e+00 0.0000000000000000e+00  1.8919989030950166e-01 1.4872401726495161e+00 0.0000000000000000e+00  1.8922719511622163e-01 1.4543274109627435e+00 0.0000000000000000e+00  1.8903170042209064e-01 1.4975031847502480e+00 0.0000000000000000e+00  1.9098665144143759e-01 1.4785260071521380e+00 0.0000000000000000e+00  1.8559125458651238e-01 1.4843919791136544e+00 0.0000000000000000e+00  1.9436063753034533e-01 1.5139964018303944e+00 0.0000000000000000e+00  1.8422293320533908e-01 1.4864005484831080e+00 0.0000000000000000e+00  1.9112308275678863e-01 1.5022444905070405e+00 0.0000000000000000e+00  1.9201700991392004e-01 1.5549082217984951e+00 0.0000000000000000e+00  1.8065847576855756e-01 1.4365426629852163e+00 0.0000000000000000e+00  1.9875356272703992e-01 1.6150833475986757e+00 0.0000000000000000e+00  1.8318928158596934e-01 1.4672870947414687e+00 0.0000000000000000e+00  1.8124231364867810e-01 1.5061288860202540e+00 0.0000000000000000e+00  2.1032119052850656e-01 1.6686549505231894e+00 0.0000000000000000e+00  1.5204607970113651e-01 1.3072090235330833e+00 0.0000000000000000e+00  2.1804300111133695e-01 1.6898735336700219e+00 0.0000000000000000e+00  1.4126836299820530e-01 1.4623203045352324e+00 0.0000000000000000e+00  1.9065831132176508e-02 -1.1267596326583653e+00 0.0000000000000000e+00  2.9753787419998748e-02 -4.8737503228524931e-01 0.0000000000000000e+00  3.0795735486176461e-02 -7.0807040682872946e-01 0.0000000000000000e+00  2.7340423374657058e-02 -6.2679546731700375e-01 0.0000000000000000e+00  3.0974876964163844e-02 -6.4797209188188409e-01 0.0000000000000000e+00  2.7405183940956084e-02 -6.3936132198004647e-01 0.0000000000000000e+00  3.0969752590416750e-02 -6.3123541590901466e-01 0.0000000000000000e+00  2.7343826672863121e-02 -6.3550395458541908e-01 0.0000000000000000e+00  3.1060067614634777e-02 -6.2018081503830136e-01 0.0000000000000000e+00  2.7238628721515383e-02 -6.2941450262340959e-01 0.0000000000000000e+00  3.1170160074195957e-02 -6.1003691102465074e-01 0.0000000000000000e+00  2.7115103650265079e-02 -6.2297574750460694e-01 0.0000000000000000e+00  3.1296217129670290e-02 -6.0010084532619656e-01 0.0000000000000000e+00  2.6989847357102793e-02 -6.1614310984463860e-01 0.0000000000000000e+00  3.1408247992264056e-02 -5.9083714788098418e-01 0.0000000000000000e+00  2.6869486543159651e-02 -6.0884115715013598e-01 0.0000000000000000e+00  3.1534939522950833e-02 -5.8171077576081309e-01 0.0000000000000000e+00  2.6721659411060621e-02 -6.0170203610041006e-01 0.0000000000000000e+00  3.1671541433094627e-02 -5.7280152640228110e-01 0.0000000000000000e+00  2.6602868786099573e-02 -5.9368505217571788e-01 0.0000000000000000e+00  3.1764124113020695e-02 -5.6508483116762975e-01 0.0000000000000000e+00  2.6472776672084183e-02 -5.8554067962394152e-01 0.0000000000000000e+00  3.1920268817981656e-02 -5.5663189164089077e-01 0.0000000000000000e+00  2.6251188882931278e-02 -5.7873800338956372e-01 0.0000000000000000e+00  3.2104167022212714e-02 -5.4811197154012048e-01 0.0000000000000000e+00  2.6115850718880108e-02 -5.6989707300719161e-01 0.0000000000000000e+00  3.2127337077828264e-02 -5.4295489808679209e-01 0.0000000000000000e+00  2.6047229787778976e-02 -5.5931830279939865e-01 0.0000000000000000e+00  3.2258005272962555e-02 -5.3636277029048440e-01 0.0000000000000000e+00  2.5534488909790442e-02 -5.5649684295110347e-01 0.0000000000000000e+00  3.2988540977254448e-02 -5.1951616257495703e-01 0.0000000000000000e+00  2.4372605120491830e-02 -5.6528925800609908e-01 0.0000000000000000e+00  3.4227229099188870e-02 -4.9413879399502336e-01 0.0000000000000000e+00  2.3320683264672345e-02 -5.7129221235115302e-01 0.0000000000000000e+00  3.5211448951510890e-02 -4.7401220114626719e-01 0.0000000000000000e+00  2.3053956878759944e-02 -5.6138903897294834e-01 0.0000000000000000e+00  3.5529804881775977e-02 -4.6660867533339906e-01 0.0000000000000000e+00  2.3183364145270755e-02 -5.4301133705254612e-01 0.0000000000000000e+00  3.5538521176883463e-02 -4.65575661695751