<?xml version="1.0"?>
<VTKFile type="UnstructuredGrid"  version="0.1"  >
<UnstructuredGrid>
<Piece  NumberOfPoints="801" NumberOfCells="800">
<Points>
<DataArray  type="Float64"  NumberOfComponents="3"  format="ascii">-5 0 0  -4.9875 0 0  -4.975 0 0  -4.9625 0 0  -4.95 0 0  -4.9375 0 0  -4.925 0 0  -4.9125 0 0  -4.9 0 0  -4.8875 0 0  -4.875 0 0  -4.8625 0 0  -4.85 0 0  -4.8375 0 0  -4.825 0 0  -4.8125 0 0  -4.8 0 0  -4.7875 0 0  -4.775 0 0  -4.7625 0 0  -4.75 0 0  -4.7375 0 0  -4.725 0 0  -4.7125 0 0  -4.7 0 0  -4.6875 0 0  -4.675 0 0  -4.6625 0 0  -4.65 0 0  -4.6375 0 0  -4.625 0 0  -4.6125 0 0  -4.6 0 0  -4.5875 0 0  -4.575 0 0  -4.5625 0 0  -4.55 0 0  -4.5375 0 0  -4.525 0 0  -4.5125 0 0  -4.5 0 0  -4.4875 0 0  -4.475 0 0  -4.4625 0 0  -4.45 0 0  -4.4375 0 0  -4.425 0 0  -4.4125 0 0  -4.4 0 0  -4.3875 0 0  -4.375 0 0  -4.3625 0 0  -4.35 0 0  -4.3375 0 0  -4.325 0 0  -4.3125 0 0  -4.3 0 0  -4.2875 0 0  -4.275 0 0  -4.2625 0 0  -4.25 0 0  -4.2375 0 0  -4.225 0 0  -4.2125 0 0  -4.2 0 0  -4.1875 0 0  -4.175 0 0  -4.1625 0 0  -4.15 0 0  -4.1375 0 0  -4.125 0 0  -4.1125 0 0  -4.1 0 0  -4.0875 0 0  -4.075 0 0  -4.0625 0 0  -4.05 0 0  -4.0375 0 0  -4.025 0 0  -4.0125 0 0  -4 0 0  -3.9875 0 0  -3.975 0 0  -3.9625 0 0  -3.95 0 0  -3.9375 0 0  -3.925 0 0  -3.9125 0 0  -3.9 0 0  -3.8875 0 0  -3.875 0 0  -3.8625 0 0  -3.85 0 0  -3.8375 0 0  -3.825 0 0  -3.8125 0 0  -3.8 0 0  -3.7875 0 0  -3.775 0 0  -3.7625 0 0  -3.75 0 0  -3.7375 0 0  -3.725 0 0  -3.7125 0 0  -3.7 0 0  -3.6875 0 0  -3.675 0 0  -3.6625 0 0  -3.65 0 0  -3.6375 0 0  -3.625 0 0  -3.6125 0 0  -3.6 0 0  -3.5875 0 0  -3.575 0 0  -3.5625 0 0  -3.55 0 0  -3.5375 0 0  -3.525 0 0  -3.5125 0 0  -3.5 0 0  -3.4875 0 0  -3.475 0 0  -3.4625 0 0  -3.45 0 0  -3.4375 0 0  -3.425 0 0  -3.4125 0 0  -3.4 0 0  -3.3875 0 0  -3.375 0 0  -3.3625 0 0  -3.35 0 0  -3.3375 0 0  -3.325 0 0  -3.3125 0 0  -3.3 0 0  -3.2875 0 0  -3.275 0 0  -3.2625 0 0  -3.25 0 0  -3.2375 0 0  -3.225 0 0  -3.2125 0 0  -3.2 0 0  -3.1875 0 0  -3.175 0 0  -3.1625 0 0  -3.15 0 0  -3.1375 0 0  -3.125 0 0  -3.1125 0 0  -3.1 0 0  -3.0875 0 0  -3.075 0 0  -3.0625 0 0  -3.05 0 0  -3.0375 0 0  -3.025 0 0  -3.0125 0 0  -3 0 0  -2.9875 0 0  -2.975 0 0  -2.9625 0 0  -2.95 0 0  -2.9375 0 0  -2.925 0 0  -2.9125 0 0  -2.9 0 0  -2.8875 0 0  -2.875 0 0  -2.8625 0 0  -2.85 0 0  -2.8375 0 0  -2.825 0 0  -2.8125 0 0  -2.8 0 0  -2.7875 0 0  -2.775 0 0  -2.7625 0 0  -2.75 0 0  -2.7375 0 0  -2.725 0 0  -2.7125 0 0  -2.7 0 0  -2.6875 0 0  -2.675 0 0  -2.6625 0 0  -2.65 0 0  -2.6375 0 0  -2.625 0 0  -2.6125 0 0  -2.6 0 0  -2.5875 0 0  -2.575 0 0  -2.5625 0 0  -2.55 0 0  -2.5375 0 0  -2.525 0 0  -2.5125 0 0  -2.5 0 0  -2.4875 0 0  -2.475 0 0  -2.4625 0 0  -2.45 0 0  -2.4375 0 0  -2.425 0 0  -2.4125 0 0  -2.4 0 0  -2.3875 0 0  -2.375 0 0  -2.3625 0 0  -2.35 0 0  -2.3375 0 0  -2.325 0 0  -2.3125 0 0  -2.3 0 0  -2.2875 0 0  -2.275 0 0  -2.2625 0 0  -2.25 0 0  -2.2375 0 0  -2.225 0 0  -2.2125 0 0  -2.2 0 0  -2.1875 0 0  -2.175 0 0  -2.1625 0 0  -2.15 0 0  -2.1375 0 0  -2.125 0 0  -2.1125 0 0  -2.1 0 0  -2.0875 0 0  -2.075 0 0  -2.0625 0 0  -2.05 0 0  -2.0375 0 0  -2.025 0 0  -2.0125 0 0  -2 0 0  -1.9875 0 0  -1.975 0 0  -1.9625 0 0  -1.95 0 0  -1.9375 0 0  -1.925 0 0  -1.9125 0 0  -1.9 0 0  -1.8875 0 0  -1.875 0 0  -1.8625 0 0  -1.85 0 0  -1.8375 0 0  -1.825 0 0  -1.8125 0 0  -1.8 0 0  -1.7875 0 0  -1.775 0 0  -1.7625 0 0  -1.75 0 0  -1.7375 0 0  -1.725 0 0  -1.7125 0 0  -1.7 0 0  -1.6875 0 0  -1.675 0 0  -1.6625 0 0  -1.65 0 0  -1.6375 0 0  -1.625 0 0  -1.6125 0 0  -1.6 0 0  -1.5875 0 0  -1.575 0 0  -1.5625 0 0  -1.55 0 0  -1.5375 0 0  -1.525 0 0  -1.5125 0 0  -1.5 0 0  -1.4875 0 0  -1.475 0 0  -1.4625 0 0  -1.45 0 0  -1.4375 0 0  -1.425 0 0  -1.4125 0 0  -1.4 0 0  -1.3875 0 0  -1.375 0 0  -1.3625 0 0  -1.35 0 0  -1.3375 0 0  -1.325 0 0  -1.3125 0 0  -1.3 0 0  -1.2875 0 0  -1.275 0 0  -1.2625 0 0  -1.25 0 0  -1.2375 0 0  -1.225 0 0  -1.2125 0 0  -1.2 0 0  -1.1875 0 0  -1.175 0 0  -1.1625 0 0  -1.15 0 0  -1.1375 0 0  -1.125 0 0  -1.1125 0 0  -1.1 0 0  -1.0875 0 0  -1.075 0 0  -1.0625 0 0  -1.05 0 0  -1.0375 0 0  -1.025 0 0  -1.0125 0 0  -1 0 0  -0.9874999999999998 0 0  -0.9749999999999996 0 0  -0.9625000000000004 0 0  -0.9500000000000002 0 0  -0.9375 0 0  -0.9249999999999998 0 0  -0.9124999999999996 0 0  -0.9000000000000004 0 0  -0.8875000000000002 0 0  -0.875 0 0  -0.8624999999999998 0 0  -0.8499999999999996 0 0  -0.8375000000000004 0 0  -0.8250000000000002 0 0  -0.8125 0 0  -0.7999999999999998 0 0  -0.7874999999999996 0 0  -0.7750000000000004 0 0  -0.7625000000000002 0 0  -0.75 0 0  -0.7374999999999998 0 0  -0.7249999999999996 0 0  -0.7125000000000004 0 0  -0.7000000000000002 0 0  -0.6875 0 0  -0.6749999999999998 0 0  -0.6624999999999996 0 0  -0.6500000000000004 0 0  -0.6375000000000002 0 0  -0.625 0 0  -0.6124999999999998 0 0  -0.5999999999999996 0 0  -0.5875000000000004 0 0  -0.5750000000000002 0 0  -0.5625 0 0  -0.5499999999999998 0 0  -0.5374999999999996 0 0  -0.5250000000000004 0 0  -0.5125000000000002 0 0  -0.5 0 0  -0.4874999999999998 0 0  -0.4749999999999996 0 0  -0.4625000000000004 0 0  -0.4500000000000002 0 0  -0.4375 0 0  -0.4249999999999998 0 0  -0.4124999999999996 0 0  -0.4000000000000004 0 0  -0.3875000000000002 0 0  -0.375 0 0  -0.3624999999999998 0 0  -0.3499999999999996 0 0  -0.3375000000000004 0 0  -0.3250000000000002 0 0  -0.3125 0 0  -0.2999999999999998 0 0  -0.2874999999999996 0 0  -0.2750000000000004 0 0  -0.2625000000000002 0 0  -0.25 0 0  -0.2374999999999998 0 0  -0.2249999999999996 0 0  -0.2125000000000004 0 0  -0.2000000000000002 0 0  -0.1875 0 0  -0.1749999999999998 0 0  -0.1624999999999996 0 0  -0.1500000000000004 0 0  -0.1375000000000002 0 0  -0.125 0 0  -0.1124999999999998 0 0  -0.09999999999999964 0 0  -0.08750000000000036 0 0  -0.07500000000000018 0 0  -0.0625 0 0  -0.04999999999999982 0 0  -0.03749999999999964 0 0  -0.02500000000000036 0 0  -0.01250000000000018 0 0  0 0 0  0.01250000000000018 0 0  0.02500000000000036 0 0  0.03749999999999964 0 0  0.04999999999999982 0 0  0.0625 0 0  0.07500000000000018 0 0  0.08750000000000036 0 0  0.09999999999999964 0 0  0.1124999999999998 0 0  0.125 0 0  0.1375000000000002 0 0  0.1500000000000004 0 0  0.1624999999999996 0 0  0.1749999999999998 0 0  0.1875 0 0  0.2000000000000002 0 0  0.2125000000000004 0 0  0.2249999999999996 0 0  0.2374999999999998 0 0  0.25 0 0  0.2625000000000002 0 0  0.2750000000000004 0 0  0.2874999999999996 0 0  0.2999999999999998 0 0  0.3125 0 0  0.3250000000000002 0 0  0.3375000000000004 0 0  0.3499999999999996 0 0  0.3624999999999998 0 0  0.375 0 0  0.3875000000000002 0 0  0.4000000000000004 0 0  0.4124999999999996 0 0  0.4249999999999998 0 0  0.4375 0 0  0.4500000000000002 0 0  0.4625000000000004 0 0  0.4749999999999996 0 0  0.4874999999999998 0 0  0.5 0 0  0.5125000000000002 0 0  0.5250000000000004 0 0  0.5374999999999996 0 0  0.5499999999999998 0 0  0.5625 0 0  0.5750000000000002 0 0  0.5875000000000004 0 0  0.5999999999999996 0 0  0.6124999999999998 0 0  0.625 0 0  0.6375000000000002 0 0  0.6500000000000004 0 0  0.6624999999999996 0 0  0.6749999999999998 0 0  0.6875 0 0  0.7000000000000002 0 0  0.7125000000000004 0 0  0.7249999999999996 0 0  0.7374999999999998 0 0  0.75 0 0  0.7625000000000002 0 0  0.7750000000000004 0 0  0.7874999999999996 0 0  0.7999999999999998 0 0  0.8125 0 0  0.8250000000000002 0 0  0.8375000000000004 0 0  0.8499999999999996 0 0  0.8624999999999998 0 0  0.875 0 0  0.8875000000000002 0 0  0.9000000000000004 0 0  0.9124999999999996 0 0  0.9249999999999998 0 0  0.9375 0 0  0.9500000000000002 0 0  0.9625000000000004 0 0  0.9749999999999996 0 0  0.9874999999999998 0 0  1 0 0  1.0125 0 0  1.025 0 0  1.0375 0 0  1.05 0 0  1.0625 0 0  1.075 0 0  1.0875 0 0  1.1 0 0  1.1125 0 0  1.125 0 0  1.1375 0 0  1.15 0 0  1.1625 0 0  1.175 0 0  1.1875 0 0  1.2 0 0  1.2125 0 0  1.225 0 0  1.2375 0 0  1.25 0 0  1.2625 0 0  1.275 0 0  1.2875 0 0  1.3 0 0  1.3125 0 0  1.325 0 0  1.3375 0 0  1.35 0 0  1.3625 0 0  1.375 0 0  1.3875 0 0  1.4 0 0  1.4125 0 0  1.425 0 0  1.4375 0 0  1.45 0 0  1.4625 0 0  1.475 0 0  1.4875 0 0  1.5 0 0  1.5125 0 0  1.525 0 0  1.5375 0 0  1.55 0 0  1.5625 0 0  1.575 0 0  1.5875 0 0  1.6 0 0  1.6125 0 0  1.625 0 0  1.6375 0 0  1.65 0 0  1.6625 0 0  1.675 0 0  1.6875 0 0  1.7 0 0  1.7125 0 0  1.725 0 0  1.7375 0 0  1.75 0 0  1.7625 0 0  1.775 0 0  1.7875 0 0  1.8 0 0  1.8125 0 0  1.825 0 0  1.8375 0 0  1.85 0 0  1.8625 0 0  1.875 0 0  1.8875 0 0  1.9 0 0  1.9125 0 0  1.925 0 0  1.9375 0 0  1.95 0 0  1.9625 0 0  1.975 0 0  1.9875 0 0  2 0 0  2.0125 0 0  2.025 0 0  2.0375 0 0  2.05 0 0  2.0625 0 0  2.075 0 0  2.0875 0 0  2.1 0 0  2.1125 0 0  2.125 0 0  2.1375 0 0  2.15 0 0  2.1625 0 0  2.175 0 0  2.1875 0 0  2.2 0 0  2.2125 0 0  2.225 0 0  2.2375 0 0  2.25 0 0  2.2625 0 0  2.275 0 0  2.2875 0 0  2.3 0 0  2.3125 0 0  2.325 0 0  2.3375 0 0  2.35 0 0  2.3625 0 0  2.375 0 0  2.3875 0 0  2.4 0 0  2.4125 0 0  2.425 0 0  2.4375 0 0  2.45 0 0  2.4625 0 0  2.475 0 0  2.4875 0 0  2.5 0 0  2.5125 0 0  2.525 0 0  2.5375 0 0  2.55 0 0  2.5625 0 0  2.575 0 0  2.5875 0 0  2.6 0 0  2.6125 0 0  2.625 0 0  2.6375 0 0  2.65 0 0  2.6625 0 0  2.675 0 0  2.6875 0 0  2.7 0 0  2.7125 0 0  2.725 0 0  2.7375 0 0  2.75 0 0  2.7625 0 0  2.775 0 0  2.7875 0 0  2.8 0 0  2.8125 0 0  2.825 0 0  2.8375 0 0  2.85 0 0  2.8625 0 0  2.875 0 0  2.8875 0 0  2.9 0 0  2.9125 0 0  2.925 0 0  2.9375 0 0  2.95 0 0  2.9625 0 0  2.975 0 0  2.9875 0 0  3 0 0  3.012499999999999 0 0  3.025 0 0  3.0375 0 0  3.050000000000001 0 0  3.0625 0 0  3.074999999999999 0 0  3.0875 0 0  3.1 0 0  3.112500000000001 0 0  3.125 0 0  3.137499999999999 0 0  3.15 0 0  3.1625 0 0  3.175000000000001 0 0  3.1875 0 0  3.199999999999999 0 0  3.2125 0 0  3.225 0 0  3.237500000000001 0 0  3.25 0 0  3.262499999999999 0 0  3.275 0 0  3.2875 0 0  3.300000000000001 0 0  3.3125 0 0  3.324999999999999 0 0  3.3375 0 0  3.35 0 0  3.362500000000001 0 0  3.375 0 0  3.387499999999999 0 0  3.4 0 0  3.4125 0 0  3.425000000000001 0 0  3.4375 0 0  3.449999999999999 0 0  3.4625 0 0  3.475 0 0  3.4875
[...]
<PointData  Vectors="(h, u)"> 
<DataArray  type="Float64"  Name="(h, u)"  NumberOfComponents="3" format="ascii">1.1119840911630130e-01 0.0000000000000000e+00 0.0000000000000000e+00  1.1097484659140711e-01 4.0574962841409996e-03 0.0000000000000000e+00  1.1119717460675031e-01 8.2018679747615578e-03 0.0000000000000000e+00  1.1097185429996487e-01 1.2173481327465150e-02 0.0000000000000000e+00  1.1119347766037040e-01 1.6402697105899085e-02 0.0000000000000000e+00  1.1096586427619691e-01 2.0292404489258991e-02 0.0000000000000000e+00  1.1118733685807106e-01 2.4601510674288309e-02 0.0000000000000000e+00  1.1095686442737634e-01 2.8416093948043935e-02 0.0000000000000000e+00  1.1117877993196118e-01 3.2797465948756384e-02 0.0000000000000000e+00  1.1094483420201257e-01 3.6546181520777439e-02 0.0000000000000000e+00  1.1116784095033615e-01 4.0989940575511259e-02 0.0000000000000000e+00  1.1092974295341469e-01 4.4684017145006701e-02 0.0000000000000000e+00  1.1115455969385754e-01 4.9178632038842589e-02 0.0000000000000000e+00  1.1091154865874987e-01 5.2830567324484594e-02 0.0000000000000000e+00  1.1113898507903308e-01 5.7363666181012567e-02 0.0000000000000000e+00  1.1089019593276421e-01 6.0986288851784920e-02 0.0000000000000000e+00  1.1112118365409758e-01 6.5545714746514230e-02 0.0000000000000000e+00  1.1086561081275527e-01 6.9150973855992753e-02 0.0000000000000000e+00  1.1110125336831118e-01 7.3726130780309929e-02 0.0000000000000000e+00  1.1083768880955583e-01 7.7323566761922841e-02 0.0000000000000000e+00  1.1107934262318897e-01 8.1907118972856754e-02 0.0000000000000000e+00  1.1080627283105572e-01 8.5501952629036343e-02 0.0000000000000000e+00  1.1105567537326093e-01 9.0091960170697441e-02 0.0000000000000000e+00  1.1077111891048806e-01 9.3682707433017390e-02 0.0000000000000000e+00  1.1103058444019233e-01 9.8285303932486426e-02 0.0000000000000000e+00  1.1073184966486772e-01 1.0186078827130966e-01 0.0000000000000000e+00  1.1100455632539674e-01 1.0649353417022886e-01 0.0000000000000000e+00  1.1068789712803825e-01 1.1002913408706388e-01 0.0000000000000000e+00  1.1097829059289339e-01 1.1472520669698123e-01 0.0000000000000000e+00  1.1063843728428757e-01 1.1817815400851898e-01 0.0000000000000000e+00  1.1095277471655246e-01 1.2299155728739859e-01 0.0000000000000000e+00  1.1058231821294032e-01 1.2629510409718414e-01 0.0000000000000000e+00  1.1092937136164280e-01 1.3130708144697364e-01 0.0000000000000000e+00  1.1051798314749782e-01 1.3436338880304705e-01 0.0000000000000000e+00  1.1090991059154320e-01 1.3969018143535625e-01 0.0000000000000000e+00  1.1044339064400809e-01 1.4236185721180475e-01 0.0000000000000000e+00  1.1089677620015720e-01 1.4816384739051133e-01 0.0000000000000000e+00  1.1035593794603636e-01 1.5026418243945072e-01 0.0000000000000000e+00  1.1089297433544901e-01 1.5675628110706089e-01 0.0000000000000000e+00  1.1025240025873108e-01 1.5803841499620522e-01 0.0000000000000000e+00  1.1090217290317841e-01 1.6550129773620914e-01 0.0000000000000000e+00  1.1012890527234706e-01 1.6564680642605828e-01 0.0000000000000000e+00  1.1092869947908636e-01 1.7443828507082329e-01 0.0000000000000000e+00  1.0998096543837124e-01 1.7304602938600275e-01 0.0000000000000000e+00  1.1097748207868860e-01 1.8361149021072048e-01 0.0000000000000000e+00  1.0980358884317275e-01 1.8018797202490255e-01 0.0000000000000000e+00  1.1105391238906681e-01 1.9306844452059541e-01 0.0000000000000000e+00  1.0959148445867894e-01 1.8702132680006203e-01 0.0000000000000000e+00  1.1116360810001812e-01 2.0285741890678047e-01 0.0000000000000000e+00  1.0933937129340551e-01 1.9349418770022137e-01 0.0000000000000000e+00  1.1131205321824210e-01 2.1302390696766235e-01 0.0000000000000000e+00  1.0904239518177893e-01 1.9955778458269319e-01 0.0000000000000000e+00  1.1150410653505922e-01 2.2360623771148111e-01 0.0000000000000000e+00  1.0869665227512884e-01 2.0517130499537750e-01 0.0000000000000000e+00  1.1174339139725718e-01 2.3463049577696890e-01 0.0000000000000000e+00  1.0829981110910050e-01 2.1030751960113400e-01 0.0000000000000000e+00  1.1203161022594364e-01 2.4610499838600203e-01 0.0000000000000000e+00  1.0785180521452671e-01 2.1495875128561764e-01 0.0000000000000000e+00  1.1236785241478529e-01 2.5801472262354663e-01 0.0000000000000000e+00  1.0735552908416601e-01 2.1914270821069207e-01 0.0000000000000000e+00  1.1274797620333041e-01 2.7031630988362582e-01 0.0000000000000000e+00  1.0681742668938099e-01 2.2290775330419216e-01 0.0000000000000000e+00  1.1316414977907330e-01 2.8293446505573588e-01 0.0000000000000000e+00  1.0624784563309422e-01 2.2633707383773385e-01 0.0000000000000000e+00  1.1360463924409081e-01 2.9576059318216291e-01 0.0000000000000000e+00  1.0566105856835990e-01 2.2955085710670387e-01 0.0000000000000000e+00  1.1405391704934642e-01 3.0865445069452763e-01 0.0000000000000000e+00  1.0507491338699708e-01 2.3270517157804937e-01 0.0000000000000000e+00  1.1449312084455460e-01 3.2144953033915263e-01 0.0000000000000000e+00  1.0451014445043683e-01 2.3598605508209838e-01 0.0000000000000000e+00  1.1490083842119746e-01 3.3396268994387807e-01 0.0000000000000000e+00  1.0398943926551692e-01 2.3959754246794038e-01 0.0000000000000000e+00  1.1525415527157226e-01 3.4600800478667937e-01 0.0000000000000000e+00  1.0353636312503010e-01 2.4374343375369473e-01 0.0000000000000000e+00  1.1552987151830596e-01 3.5741413515539744e-01 0.0000000000000000e+00  1.0317416260700407e-01 2.4860473965519123e-01 0.0000000000000000e+00  1.1570579074931531e-01 3.6804363967439141e-01 0.0000000000000000e+00  1.0292437284534696e-01 2.5431698851798451e-01 0.0000000000000000e+00  1.1576208154373979e-01 3.7781107131845282e-01 0.0000000000000000e+00  1.0280517755131555e-01 2.6095230352072007e-01 0.0000000000000000e+00  1.1568288675870153e-01 3.8669475592627178e-01 0.0000000000000000e+00  1.0282958410715191e-01 2.6851032288114174e-01 0.0000000000000000e+00  1.1545835772626012e-01 3.9473723931717014e-01 0.0000000000000000e+00  1.0300351344213292e-01 2.7692105010642587e-01 0.0000000000000000e+00  1.1508697397858429e-01 4.0203283672443635e-01 0.0000000000000000e+00  1.0332391682970099e-01 2.8606111547456503e-01 0.0000000000000000e+00  1.1457764268383674e-01 4.0870501688876459e-01 0.0000000000000000e+00  1.0377723206867052e-01 2.9578089848224043e-01 0.0000000000000000e+00  1.1395093294022381e-01 4.1487893715521196e-01 0.0000000000000000e+00  1.0433874221609578e-01 3.0593535859661103e-01 0.0000000000000000e+00  1.1323879302686973e-01 4.2065618136858007e-01 0.0000000000000000e+00  1.0497339123601064e-01 3.1640987628612510e-01 0.0000000000000000e+00  1.1248228417594799e-01 4.2609897826427323e-01 0.0000000000000000e+00  1.0563846910657662e-01 3.2713306677586407e-01 0.0000000000000000e+00  1.1172748162793628e-01 4.3122732866122410e-01 0.0000000000000000e+00  1.0628828212574692e-01 3.3807150644712802e-01 0.0000000000000000e+00  1.1102018111044080e-01 4.3602910303271297e-01 0.0000000000000000e+00  1.0687998115707530e-01 3.4921081130700032e-01 0.0000000000000000e+00  1.1039994966773027e-01 4.4048389073181182e-01 0.0000000000000000e+00  1.0737891604328613e-01 3.6053538408847341e-01 0.0000000000000000e+00  1.0989456413783304e-01 4.4459485011502597e-01 0.0000000000000000e+00  1.0776264799202830e-01 3.7201175439545597e-01 0.0000000000000000e+00  1.0951690745881756e-01 4.4841023266765495e-01 0.0000000000000000e+00  1.0802351348907614e-01 3.8357368084950255e-01 0.0000000000000000e+00  1.0926522144128595e-01 4.5202442432310702e-01 0.0000000000000000e+00  1.0816866092241439e-01 3.9511811336492542e-01 0.0000000000000000e+00  1.0912534522919053e-01 4.5556830020944383e-01 0.0000000000000000e+00  1.0821682511353169e-01 4.0652015889667442e-01 0.0000000000000000e+00  1.0907417693146998e-01 4.5919306861677062e-01 0.0000000000000000e+00  1.0819348854611452e-01 4.1765489253714971e-01 0.0000000000000000e+00  1.0908442144881876e-01 4.6304459331336639e-01 0.0000000000000000e+00  1.0812603622501019e-01 4.2841593541662931e-01 0.0000000000000000e+00  1.0912932577904264e-01 4.6723846303079952e-01 0.0000000000000000e+00  1.0803957305754856e-01 4.3872958437155274e-01 0.0000000000000000e+00  1.0918652290905573e-01 4.7184225279697589e-01 0.0000000000000000e+00  1.0795429116067409e-01 4.4855965057124175e-01 0.0000000000000000e+00  1.0924011864707883e-01 4.7687129755283025e-01 0.0000000000000000e+00  1.0788346524707418e-01 4.5791340511621376e-01 0.0000000000000000e+00  1.0928001429991324e-01 4.8230597155053639e-01 0.0000000000000000e+00  1.0783285920078764e-01 4.6684095545816118e-01 0.0000000000000000e+00  1.0930177353493023e-01 4.8809846750053004e-01 0.0000000000000000e+00  1.0780389071008920e-01 4.7540443672260302e-01 0.0000000000000000e+00  1.0930671132534082e-01 4.9417249965535953e-01 0.0000000000000000e+00  1.0779523083278458e-01 4.8366607664262640e-01 0.0000000000000000e+00  1.0929767208349586e-01 5.0046013959033842e-01 0.0000000000000000e+00  1.0780233976448945e-01 4.9169806900488544e-01 0.0000000000000000e+00  1.0927718756577881e-01 5.0691402744367520e-01 0.0000000000000000e+00  1.0782147298125395e-01 4.9955056153004673e-01 0.0000000000000000e+00  1.0924887141194765e-01 5.1348842372664050e-01 0.0000000000000000e+00  1.0785087239898007e-01 5.0724606763285418e-01 0.0000000000000000e+00  1.0921461400354937e-01 5.2016078327327797e-01 0.0000000000000000e+00  1.0788881698057451e-01 5.1480257276445918e-01 0.0000000000000000e+00  1.0917461108371493e-01 5.2692770086345353e-01 0.0000000000000000e+00  1.0793467980241984e-01 5.2222655209493651e-01 0.0000000000000000e+00  1.0912876081193708e-01 5.3378927878592519e-01 0.0000000000000000e+00  1.0798798228407329e-01 5.2952366652966043e-01 0.0000000000000000e+00  1.0907765914646875e-01 5.4073851786317217e-01 0.0000000000000000e+00  1.0804896182961121e-01 5.3669395877989179e-01 0.0000000000000000e+00  1.0902313150071782e-01 5.4775597577187296e-01 0.0000000000000000e+00  1.0811503937963533e-01 5.4376533824330930e-01 0.0000000000000000e+00  1.0896512451594129e-01 5.5483942263335495e-01 0.0000000000000000e+00  1.0818279910051445e-01 5.5077421307130681e-01 0.0000000000000000e+00  1.0890829993336014e-01 5.6194154780974315e-01 0.0000000000000000e+00  1.0825200913780557e-01 5.5772674759043539e-01 0.0000000000000000e+00  1.0885551551584793e-01 5.6903216162645609e-01 0.0000000000000000e+00  1.0831667769562484e-01 5.6468347472048541e-01 0.0000000000000000e+00  1.0880673447536192e-01 5.7610867452166936e-01 0.0000000000000000e+00  1.0837630015969199e-01 5.7165201297140888e-01 0.0000000000000000e+00  1.0876690911985405e-01 5.8312138749352771e-01 0.0000000000000000e+00  1.0843045332294143e-01 5.7863858014563307e-01 0.0000000000000000e+00  1.0873376952056137e-01 5.9008947516349319e-01 0.0000000000000000e+00  1.0847722103229003e-01 5.8566301014757427e-01 0.0000000000000000e+00  1.0870807402683326e-01 5.9700368460665210e-01 0.0000000000000000e+00  1.0851879004413099e-01 5.9270578090913983e-01 0.0000000000000000e+00  1.0868798666220193e-01 6.0387974032647906e-01 0.0000000000000000e+00  1.0855569945104175e-01 5.9976289038748631e-01 0.0000000000000000e+00  1.0867394563412353e-01 6.1071209724536590e-01 0.0000000000000000e+00  1.0858980848510176e-01 6.0681776475427673e-01 0.0000000000000000e+00  1.0866120158076623e-01 6.1754471263541688e-01 0.0000000000000000e+00  1.0861965713400779e-01 6.1388538434439832e-01 0.0000000000000000e+00  1.0865332012980082e-01 6.2434277584475573e-01 0.0000000000000000e+00  1.0865177116690136e-01 6.2090487678280448e-01 0.0000000000000000e+00  1.0864584389109992e-01 6.3114781178722468e-01 0.0000000000000000e+00  1.0867731327484627e-01 6.2796142074602590e-01 0.0000000000000000e+00  1.0863913381811420e-01 6.3795556259619857e-01 0.0000000000000000e+00  1.0870730923013902e-01 6.3495133718851993e-01 0.0000000000000000e+00  1.0863620820475114e-01 6.4473666992779644e-01 0.0000000000000000e+00  1.0873127886559060e-01 6.4197543015939318e-01 0.0000000000000000e+00  1.0863191962006849e-01 6.5153917590517174e-01 0.0000000000000000e+00  1.0875824844172406e-01 6.4894895721554868e-01 0.0000000000000000e+00  1.0863213310437600e-01 6.5830664382290383e-01 0.0000000000000000e+00  1.0878044460344913e-01 6.5594690584729121e-01 0.0000000000000000e+00  1.0863187370710875e-01 6.6508544572908035e-01 0.0000000000000000e+00  1.0880533253073156e-01 6.6289930703110000e-01 0.0000000000000000e+00  1.0863160405083987e-01 6.7187038446206004e-01 0.0000000000000000e+00  1.0882395875299275e-01 6.6989219999668204e-01 0.0000000000000000e+00  1.0863452728506395e-01 6.7863018258208907e-01 0.0000000000000000e+00  1.0884980806131776e-01 6.7679837136623366e-01 0.0000000000000000e+00  1.0863300574755164e-01 6.8543662325744903e-01 0.0000000000000000e+00  1.0886510215436844e-01 6.8378753193918285e-01 0.0000000000000000e+00  1.0863943455586711e-01 6.9217124381437922e-01 0.0000000000000000e+00  1.0889230829888792e-01 6.9064706644739704e-01 0.0000000000000000e+00  1.0863742017116074e-01 6.9898913060195100e-01 0.0000000000000000e+00  1.0890639529075477e-01 6.9761538698863546e-01 0.0000000000000000e+00  1.0864806626957642e-01 7.0568934895125213e-01 0.0000000000000000e+00  1.0893043135934406e-01 7.0447408511457210e-01 0.0000000000000000e+00  1.0864500374992345e-01 7.1252184100186244e-01 0.0000000000000000e+00  1.0894790629830743e-01 7.1138040306448791e-01 0.0000000000000000e+00  1.0865863627269695e-01 7.1919769035649295e-01 0.0000000000000000e+00  1.0896244825929785e-01 7.1830045851830326e-01 0.0000000000000000e+00  1.0865772996428542e-01 7.2601305258311410e-01 0.0000000000000000e+00  1.0898816373390172e-01 7.2510053250368067e-01 0.0000000000000000e+00  1.0866654436877901e-01 7.3273762051422442e-01 0.0000000000000000e+00  1.0899117794486868e-01 7.3210266082151421e-01 0.0000000000000000e+00  1.0867920602787581e-01 7.3942681200878946e-01 0.0000000000000000e+00  1.0902043885234038e-01 7.3884231511852017e-01 0.0000000000000000e+00  1.0867144099922409e-01 7.4631107818181064e-01 0.0000000000000000e+00  1.0902533733365137e-01 7.4580003228156588e-01 0.0000000000000000e+00  1.0870288703869616e-01 7.5282423124142017e-01 0.0000000000000000e+00  1.0903578531880738e-01 7.5269227254446092e-01 0.0000000000000000e+00  1.0869021738117259e-01 7.5975695201076665e-01 0.0000000000000000e+00  1.0906551808292068e-01 7.5938846609839661e-01 0.0000000000000000e+00  1.0870933744897045e-01 7.6638906025618925e-01 0.0000000000000000e+00  1.0904744472471216e-01 7.6652585889556957e-01 0.0000000000000000e+00  1.0873310091450419e-01 7.7297774577814449e-01 0.0000000000000000e+00  1.0907524294850339e-01 7.7321542138902433e-01 0.0000000000000000e+00  1.0871595931612313e-01 7.7995544147888207e-01 0.0000000000000000e+00  1.0909637266637892e-01 7.7995579498435785e-01 0.0000000000000000e+00  1.0875536276803412e-01 7.8639747560381834e-01 0.0000000000000000e+00  1.0905797608125338e-01 7.8724908087201706e-01 0.0000000000000000e+00  1.0877789889278515e-01 7.9299981645784601e-01 0.0000000000000000e+00  1.0909879175331284e-01 7.9377875107568341e-01 0.0000000000000000e+00  1.0873415434681857e-01 8.0023166663020706e-01 0.0000000000000000e+00  1.0911911415726139e-01 8.0049079173721938e-01 0.0000000000000000e+00  1.0879981283190791e-01 8.0642606360362679e-01 0.0000000000000000e+00  1.0906201369041973e-01 8.0792627399644634e-01 0.0000000000000000e+00  1.0883902771851239e-01 8.1287119969410582e-01 0.0000000000000000e+00  1.0912726676163050e-01 8.1418982915770866e-01 0.0000000000000000e+00  1.0875571950982189e-01 8.2047905211855010e-01 0.0000000000000000e+00  1.0920712919889979e-01 8.2030324811826305e-01 0.0000000000000000e+00  1.0876439445809727e-01 8.2721462747471286e-01 0.0000000000000000e+00  1.0913766275455393e-01 8.2782254588510051e-01 0.0000000000000000e+00  1.0886140132079844e-01 8.3311165500438678e-01 0.0000000000000000e+00  1.0910873908361719e-01 8.3494690194050636e-01 0.0000000000000000e+00  1.0878924833259475e-01 8.4061272290991174e-01 0.0000000000000000e+00  1.0928830828135937e-01 8.4008263158616037e-01 0.0000000000000000e+00  1.0859606252073555e-01 8.4926195901628287e-01 0.0000000000000000e+00  1.0942078670105171e-01 8.4565366408064646e-01 0.0000000000000000e+00  1.0860840395411246e-01 8.5596198930503198e-01 0.0000000000000000e+00  1.0929607702227118e-01 8.5365431752717114e-01 0.0000000000000000e+00  1.0881077143714905e-01 8.6085879424748313e-01 0.0000000000000000e+00  1.0913600554428608e-01 8.6198046447440235e-01 0.0000000000000000e+00  1.0888429233637678e-01 8.6697672824481309e-01 0.0000000000000000e+00  1.0921631298960156e-01 8.6801647076919797e-01 0.0000000000000000e+00  1.0868077997599276e-01 8.7572244116202969e-01 0.0000000000000000e+00  1.0952984480649661e-01 8.7182911043033839e-01 0.0000000000000000e+00  1.0833563179422172e-01 8.8581221667552390e-01 0.0000000000000000e+00  1.0986380354221810e-01 8.7543596210464791e-01 0.0000000000000000e+00  1.0807718328488310e-01 8.9508097967074340e-01 0.0000000000000000e+00  1.1003549567516599e-01 8.8057046466580269e-01 0.0000000000000000e+00  1.0801198136267152e-01 9.0251817374910281e-01 0.0000000000000000e+00  1.1003005141589964e-01 8.8737413199745652e-01 0.0000000000000000e+00  1.0808584775821020e-01 9.0863713837773508e-01 0.0000000000000000e+00  1.0993607261220520e-01 8.9500647185550530e-01 0.0000000000000000e+00  1.0820591337235592e-01 9.1431855342841728e-01 0.0000000000000000e+00  1.0982584736682323e-01 9.0278168548678361e-01 0.0000000000000000e+00  1.0832221658757196e-01 9.2003643785054023e-01 0.0000000000000000e+00  1.0973096290319914e-01 9.1040013213680815e-01 0.0000000000000000e+00  1.0841560830414505e-01 9.2597265108768101e-01 0.0000000000000000e+00  1.0966567062568995e-01 9.1772666381208845e-01 0.0000000000000000e+00  1.0848819425271854e-01 9.3210748814338584e-01 0.0000000000000000e+00  1.0964176048105254e-01 9.2464964557485252e-01 0.0000000000000000e+00  1.0854123592195868e-01 9.3842938196584080e-01 0.0000000000000000e+00  1.0969782335079789e-01 9.3080380043356215e-01 0.0000000000000000e+00  1.0857384159484763e-01 9.4494766449213241e-01 0.0000000000000000e+00  1.0975005418156017e-01 9.3698374203608070e-01 0.0000000000000000e+00  1.0870810416883610e-01 9.5050503235731809e-01 0.0000000000000000e+00  1.0953298786834482e-01 9.4570445379979851e-01 0.0000000000000000e+00  1.0880870542685282e-01 9.5638137251457200e-01 0.0000000000000000e+00  1.0965605771278894e-01 9.5119194806348939e-01 0.0000000000000000e+00  1.0787478851200202e-01 9.7207557066041561e-01 0.0000000000000000e+00  1.1076952504745428e-01 9.4727980190918570e-01 0.0000000000000000e+00  1.0683694954555160e-01 9.8877275094067640e-01 0.0000000000000000e+00  1.1117801299138752e-01 9.5003176794716881e-01 0.0000000000000000e+00  1.0700041771628917e-01 9.9406050348246600e-01 0.0000000000000000e+00  1.1085673070348370e-01 9.5968746044415021e-01 0.0000000000000000e+00  1.0727463080194463e-01 9.9829659460290032e-01 0.0000000000000000e+00  1.1050329812769311e-01 9.6963935256007583e-01 0.0000000000000000e+00  1.0783518462527618e-01 9.9981350006025127e-01 0.0000000000000000e+00  1.0981404050658367e-01 9.8276527681378079e-01 0.0000000000000000e+00  1.0916920308396727e-01 9.9399967976538584e-01 0.0000000000000000e+00  1.0881556752213342e-01 9.9881629592155530e-01 0.0000000000000000e+00  1.1166185611814215e-01 9.7728369922668967e-01 0.0000000000000000e+00  1.0765547435504252e-01 1.0163873091531550e+00 0.0000000000000000e+00  1.1487822952049082e-01 9.5390306027114236e-01 0.0000000000000000e+00  1.0665907914625300e-01 1.0323816510003772e+00 0.0000000000000000e+00  1.2045643113817889e-01 9.0881385436026296e-01 0.0000000000000000e+00  9.7148943785307848e-02 1.1298070588626659e+00 0.0000000000000000e+00  1.1567636281471762e-01 9.6076146435962873e-01 0.0000000000000000e+00  1.0557529491884428e-01 1.0551609651503195e+00 0.0000000000000000e+00  1.0510827496560235e-01 1.0680008226300823e+00 0.0000000000000000e+00  1.1699846375192739e-01 9.5330327194712305e-01 0.0000000000000000e+00  1.0151779288780233e-01 1.1092181400378616e+00 0.0000000000000000e+00  1.1637949103341590e-01 9.6562737827132250e-01 0.0000000000000000e+00  1.054926