<?xml version="1.0"?>
<VTKFile type="UnstructuredGrid"  version="0.1"  >
<UnstructuredGrid>
<Piece  NumberOfPoints="801" NumberOfCells="800">
<Points>
<DataArray  type="Float64"  NumberOfComponents="3"  format="ascii">-5 0 0  -4.9875 0 0  -4.975 0 0  -4.9625 0 0  -4.95 0 0  -4.9375 0 0  -4.925 0 0  -4.9125 0 0  -4.9 0 0  -4.8875 0 0  -4.875 0 0  -4.8625 0 0  -4.85 0 0  -4.8375 0 0  -4.825 0 0  -4.8125 0 0  -4.8 0 0  -4.7875 0 0  -4.775 0 0  -4.7625 0 0  -4.75 0 0  -4.7375 0 0  -4.725 0 0  -4.7125 0 0  -4.7 0 0  -4.6875 0 0  -4.675 0 0  -4.6625 0 0  -4.65 0 0  -4.6375 0 0  -4.625 0 0  -4.6125 0 0  -4.6 0 0  -4.5875 0 0  -4.575 0 0  -4.5625 0 0  -4.55 0 0  -4.5375 0 0  -4.525 0 0  -4.5125 0 0  -4.5 0 0  -4.4875 0 0  -4.475 0 0  -4.4625 0 0  -4.45 0 0  -4.4375 0 0  -4.425 0 0  -4.4125 0 0  -4.4 0 0  -4.3875 0 0  -4.375 0 0  -4.3625 0 0  -4.35 0 0  -4.3375 0 0  -4.325 0 0  -4.3125 0 0  -4.3 0 0  -4.2875 0 0  -4.275 0 0  -4.2625 0 0  -4.25 0 0  -4.2375 0 0  -4.225 0 0  -4.2125 0 0  -4.2 0 0  -4.1875 0 0  -4.175 0 0  -4.1625 0 0  -4.15 0 0  -4.1375 0 0  -4.125 0 0  -4.1125 0 0  -4.1 0 0  -4.0875 0 0  -4.075 0 0  -4.0625 0 0  -4.05 0 0  -4.0375 0 0  -4.025 0 0  -4.0125 0 0  -4 0 0  -3.9875 0 0  -3.975 0 0  -3.9625 0 0  -3.95 0 0  -3.9375 0 0  -3.925 0 0  -3.9125 0 0  -3.9 0 0  -3.8875 0 0  -3.875 0 0  -3.8625 0 0  -3.85 0 0  -3.8375 0 0  -3.825 0 0  -3.8125 0 0  -3.8 0 0  -3.7875 0 0  -3.775 0 0  -3.7625 0 0  -3.75 0 0  -3.7375 0 0  -3.725 0 0  -3.7125 0 0  -3.7 0 0  -3.6875 0 0  -3.675 0 0  -3.6625 0 0  -3.65 0 0  -3.6375 0 0  -3.625 0 0  -3.6125 0 0  -3.6 0 0  -3.5875 0 0  -3.575 0 0  -3.5625 0 0  -3.55 0 0  -3.5375 0 0  -3.525 0 0  -3.5125 0 0  -3.5 0 0  -3.4875 0 0  -3.475 0 0  -3.4625 0 0  -3.45 0 0  -3.4375 0 0  -3.425 0 0  -3.4125 0 0  -3.4 0 0  -3.3875 0 0  -3.375 0 0  -3.3625 0 0  -3.35 0 0  -3.3375 0 0  -3.325 0 0  -3.3125 0 0  -3.3 0 0  -3.2875 0 0  -3.275 0 0  -3.2625 0 0  -3.25 0 0  -3.2375 0 0  -3.225 0 0  -3.2125 0 0  -3.2 0 0  -3.1875 0 0  -3.175 0 0  -3.1625 0 0  -3.15 0 0  -3.1375 0 0  -3.125 0 0  -3.1125 0 0  -3.1 0 0  -3.0875 0 0  -3.075 0 0  -3.0625 0 0  -3.05 0 0  -3.0375 0 0  -3.025 0 0  -3.0125 0 0  -3 0 0  -2.9875 0 0  -2.975 0 0  -2.9625 0 0  -2.95 0 0  -2.9375 0 0  -2.925 0 0  -2.9125 0 0  -2.9 0 0  -2.8875 0 0  -2.875 0 0  -2.8625 0 0  -2.85 0 0  -2.8375 0 0  -2.825 0 0  -2.8125 0 0  -2.8 0 0  -2.7875 0 0  -2.775 0 0  -2.7625 0 0  -2.75 0 0  -2.7375 0 0  -2.725 0 0  -2.7125 0 0  -2.7 0 0  -2.6875 0 0  -2.675 0 0  -2.6625 0 0  -2.65 0 0  -2.6375 0 0  -2.625 0 0  -2.6125 0 0  -2.6 0 0  -2.5875 0 0  -2.575 0 0  -2.5625 0 0  -2.55 0 0  -2.5375 0 0  -2.525 0 0  -2.5125 0 0  -2.5 0 0  -2.4875 0 0  -2.475 0 0  -2.4625 0 0  -2.45 0 0  -2.4375 0 0  -2.425 0 0  -2.4125 0 0  -2.4 0 0  -2.3875 0 0  -2.375 0 0  -2.3625 0 0  -2.35 0 0  -2.3375 0 0  -2.325 0 0  -2.3125 0 0  -2.3 0 0  -2.2875 0 0  -2.275 0 0  -2.2625 0 0  -2.25 0 0  -2.2375 0 0  -2.225 0 0  -2.2125 0 0  -2.2 0 0  -2.1875 0 0  -2.175 0 0  -2.1625 0 0  -2.15 0 0  -2.1375 0 0  -2.125 0 0  -2.1125 0 0  -2.1 0 0  -2.0875 0 0  -2.075 0 0  -2.0625 0 0  -2.05 0 0  -2.0375 0 0  -2.025 0 0  -2.0125 0 0  -2 0 0  -1.9875 0 0  -1.975 0 0  -1.9625 0 0  -1.95 0 0  -1.9375 0 0  -1.925 0 0  -1.9125 0 0  -1.9 0 0  -1.8875 0 0  -1.875 0 0  -1.8625 0 0  -1.85 0 0  -1.8375 0 0  -1.825 0 0  -1.8125 0 0  -1.8 0 0  -1.7875 0 0  -1.775 0 0  -1.7625 0 0  -1.75 0 0  -1.7375 0 0  -1.725 0 0  -1.7125 0 0  -1.7 0 0  -1.6875 0 0  -1.675 0 0  -1.6625 0 0  -1.65 0 0  -1.6375 0 0  -1.625 0 0  -1.6125 0 0  -1.6 0 0  -1.5875 0 0  -1.575 0 0  -1.5625 0 0  -1.55 0 0  -1.5375 0 0  -1.525 0 0  -1.5125 0 0  -1.5 0 0  -1.4875 0 0  -1.475 0 0  -1.4625 0 0  -1.45 0 0  -1.4375 0 0  -1.425 0 0  -1.4125 0 0  -1.4 0 0  -1.3875 0 0  -1.375 0 0  -1.3625 0 0  -1.35 0 0  -1.3375 0 0  -1.325 0 0  -1.3125 0 0  -1.3 0 0  -1.2875 0 0  -1.275 0 0  -1.2625 0 0  -1.25 0 0  -1.2375 0 0  -1.225 0 0  -1.2125 0 0  -1.2 0 0  -1.1875 0 0  -1.175 0 0  -1.1625 0 0  -1.15 0 0  -1.1375 0 0  -1.125 0 0  -1.1125 0 0  -1.1 0 0  -1.0875 0 0  -1.075 0 0  -1.0625 0 0  -1.05 0 0  -1.0375 0 0  -1.025 0 0  -1.0125 0 0  -1 0 0  -0.9874999999999998 0 0  -0.9749999999999996 0 0  -0.9625000000000004 0 0  -0.9500000000000002 0 0  -0.9375 0 0  -0.9249999999999998 0 0  -0.9124999999999996 0 0  -0.9000000000000004 0 0  -0.8875000000000002 0 0  -0.875 0 0  -0.8624999999999998 0 0  -0.8499999999999996 0 0  -0.8375000000000004 0 0  -0.8250000000000002 0 0  -0.8125 0 0  -0.7999999999999998 0 0  -0.7874999999999996 0 0  -0.7750000000000004 0 0  -0.7625000000000002 0 0  -0.75 0 0  -0.7374999999999998 0 0  -0.7249999999999996 0 0  -0.7125000000000004 0 0  -0.7000000000000002 0 0  -0.6875 0 0  -0.6749999999999998 0 0  -0.6624999999999996 0 0  -0.6500000000000004 0 0  -0.6375000000000002 0 0  -0.625 0 0  -0.6124999999999998 0 0  -0.5999999999999996 0 0  -0.5875000000000004 0 0  -0.5750000000000002 0 0  -0.5625 0 0  -0.5499999999999998 0 0  -0.5374999999999996 0 0  -0.5250000000000004 0 0  -0.5125000000000002 0 0  -0.5 0 0  -0.4874999999999998 0 0  -0.4749999999999996 0 0  -0.4625000000000004 0 0  -0.4500000000000002 0 0  -0.4375 0 0  -0.4249999999999998 0 0  -0.4124999999999996 0 0  -0.4000000000000004 0 0  -0.3875000000000002 0 0  -0.375 0 0  -0.3624999999999998 0 0  -0.3499999999999996 0 0  -0.3375000000000004 0 0  -0.3250000000000002 0 0  -0.3125 0 0  -0.2999999999999998 0 0  -0.2874999999999996 0 0  -0.2750000000000004 0 0  -0.2625000000000002 0 0  -0.25 0 0  -0.2374999999999998 0 0  -0.2249999999999996 0 0  -0.2125000000000004 0 0  -0.2000000000000002 0 0  -0.1875 0 0  -0.1749999999999998 0 0  -0.1624999999999996 0 0  -0.1500000000000004 0 0  -0.1375000000000002 0 0  -0.125 0 0  -0.1124999999999998 0 0  -0.09999999999999964 0 0  -0.08750000000000036 0 0  -0.07500000000000018 0 0  -0.0625 0 0  -0.04999999999999982 0 0  -0.03749999999999964 0 0  -0.02500000000000036 0 0  -0.01250000000000018 0 0  0 0 0  0.01250000000000018 0 0  0.02500000000000036 0 0  0.03749999999999964 0 0  0.04999999999999982 0 0  0.0625 0 0  0.07500000000000018 0 0  0.08750000000000036 0 0  0.09999999999999964 0 0  0.1124999999999998 0 0  0.125 0 0  0.1375000000000002 0 0  0.1500000000000004 0 0  0.1624999999999996 0 0  0.1749999999999998 0 0  0.1875 0 0  0.2000000000000002 0 0  0.2125000000000004 0 0  0.2249999999999996 0 0  0.2374999999999998 0 0  0.25 0 0  0.2625000000000002 0 0  0.2750000000000004 0 0  0.2874999999999996 0 0  0.2999999999999998 0 0  0.3125 0 0  0.3250000000000002 0 0  0.3375000000000004 0 0  0.3499999999999996 0 0  0.3624999999999998 0 0  0.375 0 0  0.3875000000000002 0 0  0.4000000000000004 0 0  0.4124999999999996 0 0  0.4249999999999998 0 0  0.4375 0 0  0.4500000000000002 0 0  0.4625000000000004 0 0  0.4749999999999996 0 0  0.4874999999999998 0 0  0.5 0 0  0.5125000000000002 0 0  0.5250000000000004 0 0  0.5374999999999996 0 0  0.5499999999999998 0 0  0.5625 0 0  0.5750000000000002 0 0  0.5875000000000004 0 0  0.5999999999999996 0 0  0.6124999999999998 0 0  0.625 0 0  0.6375000000000002 0 0  0.6500000000000004 0 0  0.6624999999999996 0 0  0.6749999999999998 0 0  0.6875 0 0  0.7000000000000002 0 0  0.7125000000000004 0 0  0.7249999999999996 0 0  0.7374999999999998 0 0  0.75 0 0  0.7625000000000002 0 0  0.7750000000000004 0 0  0.7874999999999996 0 0  0.7999999999999998 0 0  0.8125 0 0  0.8250000000000002 0 0  0.8375000000000004 0 0  0.8499999999999996 0 0  0.8624999999999998 0 0  0.875 0 0  0.8875000000000002 0 0  0.9000000000000004 0 0  0.9124999999999996 0 0  0.9249999999999998 0 0  0.9375 0 0  0.9500000000000002 0 0  0.9625000000000004 0 0  0.9749999999999996 0 0  0.9874999999999998 0 0  1 0 0  1.0125 0 0  1.025 0 0  1.0375 0 0  1.05 0 0  1.0625 0 0  1.075 0 0  1.0875 0 0  1.1 0 0  1.1125 0 0  1.125 0 0  1.1375 0 0  1.15 0 0  1.1625 0 0  1.175 0 0  1.1875 0 0  1.2 0 0  1.2125 0 0  1.225 0 0  1.2375 0 0  1.25 0 0  1.2625 0 0  1.275 0 0  1.2875 0 0  1.3 0 0  1.3125 0 0  1.325 0 0  1.3375 0 0  1.35 0 0  1.3625 0 0  1.375 0 0  1.3875 0 0  1.4 0 0  1.4125 0 0  1.425 0 0  1.4375 0 0  1.45 0 0  1.4625 0 0  1.475 0 0  1.4875 0 0  1.5 0 0  1.5125 0 0  1.525 0 0  1.5375 0 0  1.55 0 0  1.5625 0 0  1.575 0 0  1.5875 0 0  1.6 0 0  1.6125 0 0  1.625 0 0  1.6375 0 0  1.65 0 0  1.6625 0 0  1.675 0 0  1.6875 0 0  1.7 0 0  1.7125 0 0  1.725 0 0  1.7375 0 0  1.75 0 0  1.7625 0 0  1.775 0 0  1.7875 0 0  1.8 0 0  1.8125 0 0  1.825 0 0  1.8375 0 0  1.85 0 0  1.8625 0 0  1.875 0 0  1.8875 0 0  1.9 0 0  1.9125 0 0  1.925 0 0  1.9375 0 0  1.95 0 0  1.9625 0 0  1.975 0 0  1.9875 0 0  2 0 0  2.0125 0 0  2.025 0 0  2.0375 0 0  2.05 0 0  2.0625 0 0  2.075 0 0  2.0875 0 0  2.1 0 0  2.1125 0 0  2.125 0 0  2.1375 0 0  2.15 0 0  2.1625 0 0  2.175 0 0  2.1875 0 0  2.2 0 0  2.2125 0 0  2.225 0 0  2.2375 0 0  2.25 0 0  2.2625 0 0  2.275 0 0  2.2875 0 0  2.3 0 0  2.3125 0 0  2.325 0 0  2.3375 0 0  2.35 0 0  2.3625 0 0  2.375 0 0  2.3875 0 0  2.4 0 0  2.4125 0 0  2.425 0 0  2.4375 0 0  2.45 0 0  2.4625 0 0  2.475 0 0  2.4875 0 0  2.5 0 0  2.5125 0 0  2.525 0 0  2.5375 0 0  2.55 0 0  2.5625 0 0  2.575 0 0  2.5875 0 0  2.6 0 0  2.6125 0 0  2.625 0 0  2.6375 0 0  2.65 0 0  2.6625 0 0  2.675 0 0  2.6875 0 0  2.7 0 0  2.7125 0 0  2.725 0 0  2.7375 0 0  2.75 0 0  2.7625 0 0  2.775 0 0  2.7875 0 0  2.8 0 0  2.8125 0 0  2.825 0 0  2.8375 0 0  2.85 0 0  2.8625 0 0  2.875 0 0  2.8875 0 0  2.9 0 0  2.9125 0 0  2.925 0 0  2.9375 0 0  2.95 0 0  2.9625 0 0  2.975 0 0  2.9875 0 0  3 0 0  3.012499999999999 0 0  3.025 0 0  3.0375 0 0  3.050000000000001 0 0  3.0625 0 0  3.074999999999999 0 0  3.0875 0 0  3.1 0 0  3.112500000000001 0 0  3.125 0 0  3.137499999999999 0 0  3.15 0 0  3.1625 0 0  3.175000000000001 0 0  3.1875 0 0  3.199999999999999 0 0  3.2125 0 0  3.225 0 0  3.237500000000001 0 0  3.25 0 0  3.262499999999999 0 0  3.275 0 0  3.2875 0 0  3.300000000000001 0 0  3.3125 0 0  3.324999999999999 0 0  3.3375 0 0  3.35 0 0  3.362500000000001 0 0  3.375 0 0  3.387499999999999 0 0  3.4 0 0  3.4125 0 0  3.425000000000001 0 0  3.4375 0 0  3.449999999999999 0 0  3.4625 0 0  3.475 0 0  3.4875
[...]
<PointData  Vectors="(h, u)"> 
<DataArray  type="Float64"  Name="(h, u)"  NumberOfComponents="3" format="ascii">1.2118479148825813e-01 0.0000000000000000e+00 0.0000000000000000e+00  1.2077875140179231e-01 4.3354080030821949e-03 0.0000000000000000e+00  1.2118398806821261e-01 8.5194573020329449e-03 0.0000000000000000e+00  1.2077472771322628e-01 1.3006730333322020e-02 0.0000000000000000e+00  1.2118153002894720e-01 1.7038865085370176e-02 0.0000000000000000e+00  1.2076674943010410e-01 2.1679380128940700e-02 0.0000000000000000e+00  1.2117727311170651e-01 2.5558464863457534e-02 0.0000000000000000e+00  1.2075496123291196e-01 3.0353643397149549e-02 0.0000000000000000e+00  1.2117097554097828e-01 3.4079041715746793e-02 0.0000000000000000e+00  1.2073959149387123e-01 3.9029039301695101e-02 0.0000000000000000e+00  1.2116230116029800e-01 4.2602098924540047e-02 0.0000000000000000e+00  1.2072095480829483e-01 4.7704251210014648e-02 0.0000000000000000e+00  1.2115083108639921e-01 5.1129922740774679e-02 0.0000000000000000e+00  1.2069944376514691e-01 5.6377228405037262e-02 0.0000000000000000e+00  1.2113608476458272e-01 5.9665533380254591e-02 0.0000000000000000e+00  1.2067551124592046e-01 6.5045401236884307e-02 0.0000000000000000e+00  1.2111754447943690e-01 6.8212572698814339e-02 0.0000000000000000e+00  1.2064965367288330e-01 7.3705876762094821e-02 0.0000000000000000e+00  1.2109466902630749e-01 7.6775249409716445e-02 0.0000000000000000e+00  1.2062241375150025e-01 8.2355422421765842e-02 0.0000000000000000e+00  1.2106687601315798e-01 8.5358519779772879e-02 0.0000000000000000e+00  1.2059442378781893e-01 9.0990038157999276e-02 0.0000000000000000e+00  1.2103347280907834e-01 9.3968683202704309e-02 0.0000000000000000e+00  1.2056650374487589e-01 9.9603994009454924e-02 0.0000000000000000e+00  1.2099352743183664e-01 1.0261447970665001e-01 0.0000000000000000e+00  1.2053981052736812e-01 1.0818838054083650e-01 0.0000000000000000e+00  1.2094569351178812e-01 1.1130857934950657e-01 0.0000000000000000e+00  1.2051600915409286e-01 1.1672945909214273e-01 0.0000000000000000e+00  1.2088803364383570e-01 1.2006908705132451e-01 0.0000000000000000e+00  1.2049740924827522e-01 1.2520734664256766e-01 0.0000000000000000e+00  1.2081791338581749e-01 1.2892043539158743e-01 0.0000000000000000e+00  1.2048699135378108e-01 1.3359573861425517e-01 0.0000000000000000e+00  1.2073205128254871e-01 1.3789291529952860e-01 0.0000000000000000e+00  1.2048824699845896e-01 1.4186337149778125e-01 0.0000000000000000e+00  1.2062679741625555e-01 1.4702020054607262e-01 0.0000000000000000e+00  1.2050478104784634e-01 1.4997769263527441e-01 0.0000000000000000e+00  1.2049866960810396e-01 1.5633459605602976e-01 0.0000000000000000e+00  1.2053967525789416e-01 1.5791073081260448e-01 0.0000000000000000e+00  1.2034510855754259e-01 1.6586032816820365e-01 0.0000000000000000e+00  1.2059468038403520e-01 1.6564651939522609e-01 0.0000000000000000e+00  1.2016533757246085e-01 1.7560585224378580e-01 0.0000000000000000e+00  1.2066937486752248e-01 1.7318876549353629e-01 0.0000000000000000e+00  1.1996115174086730e-01 1.8555668882953424e-01 0.0000000000000000e+00  1.2076047943221520e-01 1.8056699459519052e-01 0.0000000000000000e+00  1.1973743648576762e-01 1.9567054186523525e-01 0.0000000000000000e+00  1.2086152755890410e-01 1.8783933811916667e-01 0.0000000000000000e+00  1.1950223911725812e-01 2.0587629694336604e-01 0.0000000000000000e+00  1.2096304895123246e-01 1.9509058755372091e-01 0.0000000000000000e+00  1.1926628945006690e-01 2.1607793002058356e-01 0.0000000000000000e+00  1.2105332906621726e-01 2.0242506702897026e-01 0.0000000000000000e+00  1.1904197338037165e-01 2.2616345800593840e-01 0.0000000000000000e+00  1.2111968161359504e-01 2.0995505793820804e-01 0.0000000000000000e+00  1.1884188261751950e-01 2.3601799608912086e-01 0.0000000000000000e+00  1.2115004522394093e-01 2.1778660835290362e-01 0.0000000000000000e+00  1.1867716749826268e-01 2.4553896671641273e-01 0.0000000000000000e+00  1.2113462767741384e-01 2.2600523339941650e-01 0.0000000000000000e+00  1.1855598377028663e-01 2.5465077187281587e-01 0.0000000000000000e+00  1.2106729826764895e-01 2.3466406330880191e-01 0.0000000000000000e+00  1.1848232825839759e-01 2.6331604855115404e-01 0.0000000000000000e+00  1.2094647453625607e-01 2.4377647363606819e-01 0.0000000000000000e+00  1.1845549116697192e-01 2.7154116478560808e-01 0.0000000000000000e+00  1.2077534648800550e-01 2.5331436143018426e-01 0.0000000000000000e+00  1.1847022535566620e-01 2.7937482815188636e-01 0.0000000000000000e+00  1.2056140604488333e-01 2.6321223250586462e-01 0.0000000000000000e+00  1.1851758163795688e-01 2.8690021563104795e-01 0.0000000000000000e+00  1.2031537730976563e-01 2.7337630009692021e-01 0.0000000000000000e+00  1.1858622638256691e-01 2.9422242405184373e-01 0.0000000000000000e+00  1.2004974658236853e-01 2.8369701829134897e-01 0.0000000000000000e+00  1.1866397574895701e-01 3.0145389697058822e-01 0.0000000000000000e+00  1.1977715294635917e-01 2.9406296415019928e-01 0.0000000000000000e+00  1.1873927397063613e-01 3.0870053959168303e-01 0.0000000000000000e+00  1.1950892200798140e-01 3.0437371395624185e-01 0.0000000000000000e+00  1.1880240991802807e-01 3.1605051953838276e-01 0.0000000000000000e+00  1.1925399561448850e-01 3.1454948494740004e-01 0.0000000000000000e+00  1.1884635216462236e-01 3.2356682851376511e-01 0.0000000000000000e+00  1.1901839807420021e-01 3.2453619326528588e-01 0.0000000000000000e+00  1.1886713168948067e-01 3.3128412997427176e-01 0.0000000000000000e+00  1.1880521311783492e-01 3.3430601070259625e-01 0.0000000000000000e+00  1.1886374487933948e-01 3.3920999304521582e-01 0.0000000000000000e+00  1.1861493636701571e-01 3.4385449709630189e-01 0.0000000000000000e+00  1.1883764504860474e-01 3.4732978343966558e-01 0.0000000000000000e+00  1.1844606031718272e-01 3.5319551160697232e-01 0.0000000000000000e+00  1.1879198353965642e-01 3.5561370528620395e-01 0.0000000000000000e+00  1.1829576549293264e-01 3.6235502599173880e-01 0.0000000000000000e+00  1.1873077984625742e-01 3.6402437752898603e-01 0.0000000000000000e+00  1.1816061897603343e-01 3.7136476488869508e-01 0.0000000000000000e+00  1.1865820336988296e-01 3.7252332769733570e-01 0.0000000000000000e+00  1.1803725828184979e-01 3.8025592089719201e-01 0.0000000000000000e+00  1.1857811902901184e-01 3.8107506162124011e-01 0.0000000000000000e+00  1.1792300921022542e-01 3.8905345372292494e-01 0.0000000000000000e+00  1.1849382924625665e-01 3.8964935196842698e-01 0.0000000000000000e+00  1.1781619834760775e-01 3.9777317528237083e-01 0.0000000000000000e+00  1.1840777049834462e-01 3.9822396060126591e-01 0.0000000000000000e+00  1.1771602479777503e-01 4.0642286359480739e-01 0.0000000000000000e+00  1.1832123707768946e-01 4.0678713363791530e-01 0.0000000000000000e+00  1.1762232945065502e-01 4.1500432889177258e-01 0.0000000000000000e+00  1.1823451952053426e-01 4.1533633217871391e-01 0.0000000000000000e+00  1.1753556517860325e-01 4.2351366633722681e-01 0.0000000000000000e+00  1.1814740227489867e-01 4.2387370081394465e-01 0.0000000000000000e+00  1.1745668589723517e-01 4.3194225806836017e-01 0.0000000000000000e+00  1.1805957668981462e-01 4.3240232533692974e-01 0.0000000000000000e+00  1.1738675868670376e-01 4.4028030339454266e-01 0.0000000000000000e+00  1.1797092409173514e-01 4.4092369575851731e-01 0.0000000000000000e+00  1.1732650772692615e-01 4.4852096717624501e-01 0.0000000000000000e+00  1.1788164668591321e-01 4.4943658060209762e-01 0.0000000000000000e+00  1.1727576453220484e-01 4.5666536259716500e-01 0.0000000000000000e+00  1.1779215486793587e-01 4.5793814791310472e-01 0.0000000000000000e+00  1.1723327697053311e-01 4.6472421747801435e-01 0.0000000000000000e+00  1.1770346394463382e-01 4.6642045585246572e-01 0.0000000000000000e+00  1.1719756674572522e-01 4.7270991010666663e-01 0.0000000000000000e+00  1.1761780210507680e-01 4.7486505012687680e-01 0.0000000000000000e+00  1.1716726344028303e-01 4.8063320830406864e-01 0.0000000000000000e+00  1.1753750914045175e-01 4.8325324101891548e-01 0.0000000000000000e+00  1.1714007071962511e-01 4.8851241062774925e-01 0.0000000000000000e+00  1.1746382391667726e-01 4.9157747611139185e-01 0.0000000000000000e+00  1.1711340898227030e-01 4.9636707747131220e-01 0.0000000000000000e+00  1.1739803720082623e-01 4.9983120472122505e-01 0.0000000000000000e+00  1.1708607782446077e-01 5.0420234835884914e-01 0.0000000000000000e+00  1.1734169376913521e-01 5.0800758674951685e-01 0.0000000000000000e+00  1.1705738863072127e-01 5.1201626336639472e-01 0.0000000000000000e+00  1.1729530805280781e-01 5.1611194461976029e-01 0.0000000000000000e+00  1.1702649157581872e-01 5.1980515423168772e-01 0.0000000000000000e+00  1.1725879180155488e-01 5.2415871059194741e-01 0.0000000000000000e+00  1.1699259927841545e-01 5.2756067692346131e-01 0.0000000000000000e+00  1.1723176359668351e-01 5.3216961215133574e-01 0.0000000000000000e+00  1.1695494222933692e-01 5.3526913643779839e-01 0.0000000000000000e+00  1.1721487089611321e-01 5.4016273135243620e-01 0.0000000000000000e+00  1.1691379407682136e-01 5.4290089968072230e-01 0.0000000000000000e+00  1.1720963807990534e-01 5.4815515731728903e-01 0.0000000000000000e+00  1.1686735404113915e-01 5.5043764620130597e-01 0.0000000000000000e+00  1.1721555220049767e-01 5.5619089462105020e-01 0.0000000000000000e+00  1.1681218001980534e-01 5.5786713440473035e-01 0.0000000000000000e+00  1.1723516526879942e-01 5.6429529569545134e-01 0.0000000000000000e+00  1.1674783437974660e-01 5.6513963602154382e-01 0.0000000000000000e+00  1.1727285015961474e-01 5.7248733799759610e-01 0.0000000000000000e+00  1.1666991693141998e-01 5.7223107099216308e-01 0.0000000000000000e+00  1.1732959383304951e-01 5.8082752483590538e-01 0.0000000000000000e+00  1.1657296509685044e-01 5.7911642964692223e-01 0.0000000000000000e+00  1.1741080351084542e-01 5.8934588325539061e-01 0.0000000000000000e+00  1.1645413798969316e-01 5.8573702091897584e-01 0.0000000000000000e+00  1.1752158073883173e-01 5.9808356930659456e-01 0.0000000000000000e+00  1.1630720793978296e-01 5.9205776665520193e-01 0.0000000000000000e+00  1.1766646988731842e-01 6.0709192684480051e-01 0.0000000000000000e+00  1.1612701359561139e-01 5.9803025434330437e-01 0.0000000000000000e+00  1.1785001712652446e-01 6.1642244923240463e-01 0.0000000000000000e+00  1.1590716457064082e-01 6.0361947952424555e-01 0.0000000000000000e+00  1.1807773074365714e-01 6.2611113015524322e-01 0.0000000000000000e+00  1.1564631587279980e-01 6.0875393799823885e-01 0.0000000000000000e+00  1.1835463111746757e-01 6.3618316765261551e-01 0.0000000000000000e+00  1.1533703401462393e-01 6.1343724998131388e-01 0.0000000000000000e+00  1.1867827475521764e-01 6.4670618705138505e-01 0.0000000000000000e+00  1.1498004406465601e-01 6.1762849533122532e-01 0.0000000000000000e+00  1.1905624644427629e-01 6.5761949247118046e-01 0.0000000000000000e+00  1.1457786611866917e-01 6.2131221671122416e-01 0.0000000000000000e+00  1.1947873769523010e-01 6.6897318603365630e-01 0.0000000000000000e+00  1.1412860798176729e-01 6.2456739002366735e-01 0.0000000000000000e+00  1.1994529858752576e-01 6.8067380632933527e-01 0.0000000000000000e+00  1.1364649423963710e-01 6.2738827300582856e-01 0.0000000000000000e+00  1.2044519070025070e-01 6.9265690880023145e-01 0.0000000000000000e+00  1.1313548955062762e-01 6.2993416225709709e-01 0.0000000000000000e+00  1.2096638047620153e-01 7.0480159558015754e-01 0.0000000000000000e+00  1.1261458512850037e-01 6.3229805457131438e-01 0.0000000000000000e+00  1.2149076563250553e-01 7.1697739671360605e-01 0.0000000000000000e+00  1.1209797257806742e-01 6.3468482976590901e-01 0.0000000000000000e+00  1.2200399178068642e-01 7.2896444005030692e-01 0.0000000000000000e+00  1.1161118263579946e-01 6.3724911493433400e-01 0.0000000000000000e+00  1.2247476032594999e-01 7.4065849218591884e-01 0.0000000000000000e+00  1.1116823470209661e-01 6.4028635037298720e-01 0.0000000000000000e+00  1.2289311986146442e-01 7.5174684772409761e-01 0.0000000000000000e+00  1.1080484972191003e-01 6.4389565117164194e-01 0.0000000000000000e+00  1.2322212638243502e-01 7.6217610599771968e-01 0.0000000000000000e+00  1.1052351913999002e-01 6.4845573042600235e-01 0.0000000000000000e+00  1.2345727724972855e-01 7.7164486633741958e-01 0.0000000000000000e+00  1.1036205313912109e-01 6.5395112282525336e-01 0.0000000000000000e+00  1.2356891225044157e-01 7.8015753840313007e-01 0.0000000000000000e+00  1.1031336540841044e-01 6.6068290311024380e-01 0.0000000000000000e+00  1.2356447564087118e-01 7.8748853058351564e-01 0.0000000000000000e+00  1.1039681082514341e-01 6.6857688715921171e-01 0.0000000000000000e+00  1.2342359203131222e-01 7.9378910500724298e-01 0.0000000000000000e+00  1.1060515272361487e-01 6.7765974144746266e-01 0.0000000000000000e+00  1.2317348544788810e-01 7.9891669482401451e-01 0.0000000000000000e+00  1.1091859486957459e-01 6.8792514679066274e-01 0.0000000000000000e+00  1.2280495665678168e-01 8.0318958141083552e-01 0.0000000000000000e+00  1.1134700405204784e-01 6.9895414448966886e-01 0.0000000000000000e+00  1.2235845256769876e-01 8.0659457802808066e-01 0.0000000000000000e+00  1.1182309920706909e-01 7.1093468218967637e-01 0.0000000000000000e+00  1.2185118280320542e-01 8.0941691398799098e-01 0.0000000000000000e+00  1.1237821944020324e-01 7.2306942754229897e-01 0.0000000000000000e+00  1.2129862580147573e-01 8.1200720022735773e-01 0.0000000000000000e+00  1.1292513104844498e-01 7.3563480058841058e-01 0.0000000000000000e+00  1.2076763988348849e-01 8.1425936641633190e-01 0.0000000000000000e+00  1.1347743345853743e-01 7.4799849850368016e-01 0.0000000000000000e+00  1.2022329521692722e-01 8.1695304795361912e-01 0.0000000000000000e+00  1.1400923064595152e-01 7.5995658480134154e-01 0.0000000000000000e+00  1.1974579555176978e-01 8.1974845083821601e-01 0.0000000000000000e+00  1.1445657824920842e-01 7.7175700400540470e-01 0.0000000000000000e+00  1.1932917504779471e-01 8.2298695766685059e-01 0.0000000000000000e+00  1.1488127802247457e-01 7.8260635990768956e-01 0.0000000000000000e+00  1.1893395504101041e-01 8.2719588573881808e-01 0.0000000000000000e+00  1.1522781769884936e-01 7.9291297412285311e-01 0.0000000000000000e+00  1.1867198475465120e-01 8.3140652192978737e-01 0.0000000000000000e+00  1.1546570318444731e-01 8.0297173719045767e-01 0.0000000000000000e+00  1.1843120387894217e-01 8.3658801682875950e-01 0.0000000000000000e+00  1.1572736614438402e-01 8.1167125287769670e-01 0.0000000000000000e+00  1.1821348074048096e-01 8.4258879452562663e-01 0.0000000000000000e+00  1.1588794098022838e-01 8.2032666901730178e-01 0.0000000000000000e+00  1.1812366890015556e-01 8.4826725951931803e-01 0.0000000000000000e+00  1.1596993407722721e-01 8.2893499664237358e-01 0.0000000000000000e+00  1.1801926076337656e-01 8.5472223911999856e-01 0.0000000000000000e+00  1.1612520346327132e-01 8.3630951727721192e-01 0.0000000000000000e+00  1.1785919108782114e-01 8.6213421817744440e-01 0.0000000000000000e+00  1.1625536262457255e-01 8.4353826508080343e-01 0.0000000000000000e+00  1.1782584755761082e-01 8.6866858425097748e-01 0.0000000000000000e+00  1.1623523372492112e-01 8.5192003514931469e-01 0.0000000000000000e+00  1.1784106271521665e-01 8.7490937326443707e-01 0.0000000000000000e+00  1.1630238934033499e-01 8.5938572445249073e-01 0.0000000000000000e+00  1.1767408416814894e-01 8.8287952453162755e-01 0.0000000000000000e+00  1.1652134228164551e-01 8.6541275255888606e-01 0.0000000000000000e+00  1.1749604433358268e-01 8.9096759505852408e-01 0.0000000000000000e+00  1.1661853925270269e-01 8.7254344964444208e-01 0.0000000000000000e+00  1.1753709242882472e-01 8.9704905812023072e-01 0.0000000000000000e+00  1.1650863298623229e-01 8.8156760543640866e-01 0.0000000000000000e+00  1.1768872124116933e-01 9.0211204591453764e-01 0.0000000000000000e+00  1.1642548821356503e-01 8.9033395052922359e-01 0.0000000000000000e+00  1.1765025632412877e-01 9.0891568937456346e-01 0.0000000000000000e+00  1.1661293839962815e-01 8.9659739578473219e-01 0.0000000000000000e+00  1.1733000874223237e-01 9.1831639760213801e-01 0.0000000000000000e+00  1.1699387670583442e-01 9.0105416744412858e-01 0.0000000000000000e+00  1.1694106951133501e-01 9.2838063395054260e-01 0.0000000000000000e+00  1.1732431564066201e-01 9.0593029715392870e-01 0.0000000000000000e+00  1.1668720039470146e-01 9.3725006723750515e-01 0.0000000000000000e+00  1.1748574055114751e-01 9.1230237497613720e-01 0.0000000000000000e+00  1.1661308478265447e-01 9.4451183729132238e-01 0.0000000000000000e+00  1.1748946287621234e-01 9.2006033692629940e-01 0.0000000000000000e+00  1.1666879423767244e-01 9.5061635758952723e-01 0.0000000000000000e+00  1.1740665199098718e-01 9.2855341650774281e-01 0.0000000000000000e+00  1.1676664219933057e-01 9.5636349583657376e-01 0.0000000000000000e+00  1.1731797110190567e-01 9.3705219583684729e-01 0.0000000000000000e+00  1.1684355159119858e-01 9.6233244524631634e-01 0.0000000000000000e+00  1.1725858018822863e-01 9.4524767056418013e-01 0.0000000000000000e+00  1.1689143116376328e-01 9.6859987374807632e-01 0.0000000000000000e+00  1.1722207672080831e-01 9.5320913914785133e-01 0.0000000000000000e+00  1.1692191820071705e-01 9.7505865136042125e-01 0.0000000000000000e+00  1.1720119739713940e-01 9.6100799964917016e-01 0.0000000000000000e+00  1.1693592395353881e-01 9.8169563651075820e-01 0.0000000000000000e+00  1.1719823530901659e-01 9.6862262463851290e-01 0.0000000000000000e+00  1.1693054552493676e-01 9.8853026904850883e-01 0.0000000000000000e+00  1.1721269962605783e-01 9.7605406767754399e-01 0.0000000000000000e+00  1.1690882991711479e-01 9.9552781009109614e-01 0.0000000000000000e+00  1.1723992988561532e-01 9.8334170789719277e-01 0.0000000000000000e+00  1.1687965875110957e-01 1.0026021658620634e+00 0.0000000000000000e+00  1.1726828854190183e-01 9.9059069290934054e-01 0.0000000000000000e+00  1.1687693975820806e-01 1.0094406475905595e+00 0.0000000000000000e+00  1.1728660125107311e-01 9.9790433697744152e-01 0.0000000000000000e+00  1.1690183492286263e-01 1.0160320791184112e+00 0.0000000000000000e+00  1.1743538740623211e-01 1.0039997777643626e+00 0.0000000000000000e+00  1.1667340885112666e-01 1.0249486788736129e+00 0.0000000000000000e+00  1.1805070788824529e-01 1.0058075689108426e+00 0.0000000000000000e+00  1.1578859006790272e-01 1.0398873684973133e+00 0.0000000000000000e+00  1.1890541178501898e-01 1.0054058549454825e+00 0.0000000000000000e+00  1.1493639063804806e-01 1.0545486658113701e+00 0.0000000000000000e+00  1.1895239911908873e-01 1.0123619103312402e+00 0.0000000000000000e+00  1.1524735826703111e-01 1.0585495147279260e+00 0.0000000000000000e+00  1.1842525615180273e-01 1.0245503024838789e+00 0.0000000000000000e+00  1.1575357078181958e-01 1.0607649438380196e+00 0.0000000000000000e+00  1.1813637331823941e-01 1.0345469645961682e+00 0.0000000000000000e+00  1.1605293623351533e-01 1.0648866382775026e+00 0.0000000000000000e+00  1.1756929154740642e-01 1.0470735619509992e+00 0.0000000000000000e+00  1.1687978730867506e-01 1.0641823434579731e+00 0.0000000000000000e+00  1.1646343567991474e-01 1.0645265822262551e+00 0.0000000000000000e+00  1.1846812220614064e-01 1.0565299244225714e+00 0.0000000000000000e+00  1.1463279120661660e-01 1.0886424274481421e+00 0.0000000000000000e+00  1.2128142015213515e-01 1.0377614824046464e+00 0.0000000000000000e+00  1.1215242931376582e-01 1.1187854713305492e+00 0.0000000000000000e+00  1.2496252877783839e-01 1.0112395014811011e+00 0.0000000000000000e+00  1.0949389792046160e-01 1.1506686341792154e+00 0.0000000000000000e+00  1.2840702624184580e-01 9.8700571385692126e-01 0.0000000000000000e+00  1.0708982299831750e-01 1.1803266329118576e+00 0.0000000000000000e+00  1.2682368809580302e-01 1.0081972900117009e+00 0.0000000000000000e+00  1.1081872596936256e-01 1.1530451430747504e+00 0.0000000000000000e+00  1.1662231223308472e-01 1.1080860953993750e+00 0.0000000000000000e+00  1.2171534001560946e-01 1.0601964077791763e+00 0.0000000000000000e+00  1.0981986939064257e-01 1.1776825738285888e+00 0.0000000000000000e+00  1.2631693757662554e-01 1.0256177537647961e+00 0.0000000000000000e+00  1.100257