<?xml version="1.0"?>
<VTKFile type="UnstructuredGrid"  version="0.1"  >
<UnstructuredGrid>
<Piece  NumberOfPoints="801" NumberOfCells="800">
<Points>
<DataArray  type="Float64"  NumberOfComponents="3"  format="ascii">-5 0 0  -4.9875 0 0  -4.975 0 0  -4.9625 0 0  -4.95 0 0  -4.9375 0 0  -4.925 0 0  -4.9125 0 0  -4.9 0 0  -4.8875 0 0  -4.875 0 0  -4.8625 0 0  -4.85 0 0  -4.8375 0 0  -4.825 0 0  -4.8125 0 0  -4.8 0 0  -4.7875 0 0  -4.775 0 0  -4.7625 0 0  -4.75 0 0  -4.7375 0 0  -4.725 0 0  -4.7125 0 0  -4.7 0 0  -4.6875 0 0  -4.675 0 0  -4.6625 0 0  -4.65 0 0  -4.6375 0 0  -4.625 0 0  -4.6125 0 0  -4.6 0 0  -4.5875 0 0  -4.575 0 0  -4.5625 0 0  -4.55 0 0  -4.5375 0 0  -4.525 0 0  -4.5125 0 0  -4.5 0 0  -4.4875 0 0  -4.475 0 0  -4.4625 0 0  -4.45 0 0  -4.4375 0 0  -4.425 0 0  -4.4125 0 0  -4.4 0 0  -4.3875 0 0  -4.375 0 0  -4.3625 0 0  -4.35 0 0  -4.3375 0 0  -4.325 0 0  -4.3125 0 0  -4.3 0 0  -4.2875 0 0  -4.275 0 0  -4.2625 0 0  -4.25 0 0  -4.2375 0 0  -4.225 0 0  -4.2125 0 0  -4.2 0 0  -4.1875 0 0  -4.175 0 0  -4.1625 0 0  -4.15 0 0  -4.1375 0 0  -4.125 0 0  -4.1125 0 0  -4.1 0 0  -4.0875 0 0  -4.075 0 0  -4.0625 0 0  -4.05 0 0  -4.0375 0 0  -4.025 0 0  -4.0125 0 0  -4 0 0  -3.9875 0 0  -3.975 0 0  -3.9625 0 0  -3.95 0 0  -3.9375 0 0  -3.925 0 0  -3.9125 0 0  -3.9 0 0  -3.8875 0 0  -3.875 0 0  -3.8625 0 0  -3.85 0 0  -3.8375 0 0  -3.825 0 0  -3.8125 0 0  -3.8 0 0  -3.7875 0 0  -3.775 0 0  -3.7625 0 0  -3.75 0 0  -3.7375 0 0  -3.725 0 0  -3.7125 0 0  -3.7 0 0  -3.6875 0 0  -3.675 0 0  -3.6625 0 0  -3.65 0 0  -3.6375 0 0  -3.625 0 0  -3.6125 0 0  -3.6 0 0  -3.5875 0 0  -3.575 0 0  -3.5625 0 0  -3.55 0 0  -3.5375 0 0  -3.525 0 0  -3.5125 0 0  -3.5 0 0  -3.4875 0 0  -3.475 0 0  -3.4625 0 0  -3.45 0 0  -3.4375 0 0  -3.425 0 0  -3.4125 0 0  -3.4 0 0  -3.3875 0 0  -3.375 0 0  -3.3625 0 0  -3.35 0 0  -3.3375 0 0  -3.325 0 0  -3.3125 0 0  -3.3 0 0  -3.2875 0 0  -3.275 0 0  -3.2625 0 0  -3.25 0 0  -3.2375 0 0  -3.225 0 0  -3.2125 0 0  -3.2 0 0  -3.1875 0 0  -3.175 0 0  -3.1625 0 0  -3.15 0 0  -3.1375 0 0  -3.125 0 0  -3.1125 0 0  -3.1 0 0  -3.0875 0 0  -3.075 0 0  -3.0625 0 0  -3.05 0 0  -3.0375 0 0  -3.025 0 0  -3.0125 0 0  -3 0 0  -2.9875 0 0  -2.975 0 0  -2.9625 0 0  -2.95 0 0  -2.9375 0 0  -2.925 0 0  -2.9125 0 0  -2.9 0 0  -2.8875 0 0  -2.875 0 0  -2.8625 0 0  -2.85 0 0  -2.8375 0 0  -2.825 0 0  -2.8125 0 0  -2.8 0 0  -2.7875 0 0  -2.775 0 0  -2.7625 0 0  -2.75 0 0  -2.7375 0 0  -2.725 0 0  -2.7125 0 0  -2.7 0 0  -2.6875 0 0  -2.675 0 0  -2.6625 0 0  -2.65 0 0  -2.6375 0 0  -2.625 0 0  -2.6125 0 0  -2.6 0 0  -2.5875 0 0  -2.575 0 0  -2.5625 0 0  -2.55 0 0  -2.5375 0 0  -2.525 0 0  -2.5125 0 0  -2.5 0 0  -2.4875 0 0  -2.475 0 0  -2.4625 0 0  -2.45 0 0  -2.4375 0 0  -2.425 0 0  -2.4125 0 0  -2.4 0 0  -2.3875 0 0  -2.375 0 0  -2.3625 0 0  -2.35 0 0  -2.3375 0 0  -2.325 0 0  -2.3125 0 0  -2.3 0 0  -2.2875 0 0  -2.275 0 0  -2.2625 0 0  -2.25 0 0  -2.2375 0 0  -2.225 0 0  -2.2125 0 0  -2.2 0 0  -2.1875 0 0  -2.175 0 0  -2.1625 0 0  -2.15 0 0  -2.1375 0 0  -2.125 0 0  -2.1125 0 0  -2.1 0 0  -2.0875 0 0  -2.075 0 0  -2.0625 0 0  -2.05 0 0  -2.0375 0 0  -2.025 0 0  -2.0125 0 0  -2 0 0  -1.9875 0 0  -1.975 0 0  -1.9625 0 0  -1.95 0 0  -1.9375 0 0  -1.925 0 0  -1.9125 0 0  -1.9 0 0  -1.8875 0 0  -1.875 0 0  -1.8625 0 0  -1.85 0 0  -1.8375 0 0  -1.825 0 0  -1.8125 0 0  -1.8 0 0  -1.7875 0 0  -1.775 0 0  -1.7625 0 0  -1.75 0 0  -1.7375 0 0  -1.725 0 0  -1.7125 0 0  -1.7 0 0  -1.6875 0 0  -1.675 0 0  -1.6625 0 0  -1.65 0 0  -1.6375 0 0  -1.625 0 0  -1.6125 0 0  -1.6 0 0  -1.5875 0 0  -1.575 0 0  -1.5625 0 0  -1.55 0 0  -1.5375 0 0  -1.525 0 0  -1.5125 0 0  -1.5 0 0  -1.4875 0 0  -1.475 0 0  -1.4625 0 0  -1.45 0 0  -1.4375 0 0  -1.425 0 0  -1.4125 0 0  -1.4 0 0  -1.3875 0 0  -1.375 0 0  -1.3625 0 0  -1.35 0 0  -1.3375 0 0  -1.325 0 0  -1.3125 0 0  -1.3 0 0  -1.2875 0 0  -1.275 0 0  -1.2625 0 0  -1.25 0 0  -1.2375 0 0  -1.225 0 0  -1.2125 0 0  -1.2 0 0  -1.1875 0 0  -1.175 0 0  -1.1625 0 0  -1.15 0 0  -1.1375 0 0  -1.125 0 0  -1.1125 0 0  -1.1 0 0  -1.0875 0 0  -1.075 0 0  -1.0625 0 0  -1.05 0 0  -1.0375 0 0  -1.025 0 0  -1.0125 0 0  -1 0 0  -0.9874999999999998 0 0  -0.9749999999999996 0 0  -0.9625000000000004 0 0  -0.9500000000000002 0 0  -0.9375 0 0  -0.9249999999999998 0 0  -0.9124999999999996 0 0  -0.9000000000000004 0 0  -0.8875000000000002 0 0  -0.875 0 0  -0.8624999999999998 0 0  -0.8499999999999996 0 0  -0.8375000000000004 0 0  -0.8250000000000002 0 0  -0.8125 0 0  -0.7999999999999998 0 0  -0.7874999999999996 0 0  -0.7750000000000004 0 0  -0.7625000000000002 0 0  -0.75 0 0  -0.7374999999999998 0 0  -0.7249999999999996 0 0  -0.7125000000000004 0 0  -0.7000000000000002 0 0  -0.6875 0 0  -0.6749999999999998 0 0  -0.6624999999999996 0 0  -0.6500000000000004 0 0  -0.6375000000000002 0 0  -0.625 0 0  -0.6124999999999998 0 0  -0.5999999999999996 0 0  -0.5875000000000004 0 0  -0.5750000000000002 0 0  -0.5625 0 0  -0.5499999999999998 0 0  -0.5374999999999996 0 0  -0.5250000000000004 0 0  -0.5125000000000002 0 0  -0.5 0 0  -0.4874999999999998 0 0  -0.4749999999999996 0 0  -0.4625000000000004 0 0  -0.4500000000000002 0 0  -0.4375 0 0  -0.4249999999999998 0 0  -0.4124999999999996 0 0  -0.4000000000000004 0 0  -0.3875000000000002 0 0  -0.375 0 0  -0.3624999999999998 0 0  -0.3499999999999996 0 0  -0.3375000000000004 0 0  -0.3250000000000002 0 0  -0.3125 0 0  -0.2999999999999998 0 0  -0.2874999999999996 0 0  -0.2750000000000004 0 0  -0.2625000000000002 0 0  -0.25 0 0  -0.2374999999999998 0 0  -0.2249999999999996 0 0  -0.2125000000000004 0 0  -0.2000000000000002 0 0  -0.1875 0 0  -0.1749999999999998 0 0  -0.1624999999999996 0 0  -0.1500000000000004 0 0  -0.1375000000000002 0 0  -0.125 0 0  -0.1124999999999998 0 0  -0.09999999999999964 0 0  -0.08750000000000036 0 0  -0.07500000000000018 0 0  -0.0625 0 0  -0.04999999999999982 0 0  -0.03749999999999964 0 0  -0.02500000000000036 0 0  -0.01250000000000018 0 0  0 0 0  0.01250000000000018 0 0  0.02500000000000036 0 0  0.03749999999999964 0 0  0.04999999999999982 0 0  0.0625 0 0  0.07500000000000018 0 0  0.08750000000000036 0 0  0.09999999999999964 0 0  0.1124999999999998 0 0  0.125 0 0  0.1375000000000002 0 0  0.1500000000000004 0 0  0.1624999999999996 0 0  0.1749999999999998 0 0  0.1875 0 0  0.2000000000000002 0 0  0.2125000000000004 0 0  0.2249999999999996 0 0  0.2374999999999998 0 0  0.25 0 0  0.2625000000000002 0 0  0.2750000000000004 0 0  0.2874999999999996 0 0  0.2999999999999998 0 0  0.3125 0 0  0.3250000000000002 0 0  0.3375000000000004 0 0  0.3499999999999996 0 0  0.3624999999999998 0 0  0.375 0 0  0.3875000000000002 0 0  0.4000000000000004 0 0  0.4124999999999996 0 0  0.4249999999999998 0 0  0.4375 0 0  0.4500000000000002 0 0  0.4625000000000004 0 0  0.4749999999999996 0 0  0.4874999999999998 0 0  0.5 0 0  0.5125000000000002 0 0  0.5250000000000004 0 0  0.5374999999999996 0 0  0.5499999999999998 0 0  0.5625 0 0  0.5750000000000002 0 0  0.5875000000000004 0 0  0.5999999999999996 0 0  0.6124999999999998 0 0  0.625 0 0  0.6375000000000002 0 0  0.6500000000000004 0 0  0.6624999999999996 0 0  0.6749999999999998 0 0  0.6875 0 0  0.7000000000000002 0 0  0.7125000000000004 0 0  0.7249999999999996 0 0  0.7374999999999998 0 0  0.75 0 0  0.7625000000000002 0 0  0.7750000000000004 0 0  0.7874999999999996 0 0  0.7999999999999998 0 0  0.8125 0 0  0.8250000000000002 0 0  0.8375000000000004 0 0  0.8499999999999996 0 0  0.8624999999999998 0 0  0.875 0 0  0.8875000000000002 0 0  0.9000000000000004 0 0  0.9124999999999996 0 0  0.9249999999999998 0 0  0.9375 0 0  0.9500000000000002 0 0  0.9625000000000004 0 0  0.9749999999999996 0 0  0.9874999999999998 0 0  1 0 0  1.0125 0 0  1.025 0 0  1.0375 0 0  1.05 0 0  1.0625 0 0  1.075 0 0  1.0875 0 0  1.1 0 0  1.1125 0 0  1.125 0 0  1.1375 0 0  1.15 0 0  1.1625 0 0  1.175 0 0  1.1875 0 0  1.2 0 0  1.2125 0 0  1.225 0 0  1.2375 0 0  1.25 0 0  1.2625 0 0  1.275 0 0  1.2875 0 0  1.3 0 0  1.3125 0 0  1.325 0 0  1.3375 0 0  1.35 0 0  1.3625 0 0  1.375 0 0  1.3875 0 0  1.4 0 0  1.4125 0 0  1.425 0 0  1.4375 0 0  1.45 0 0  1.4625 0 0  1.475 0 0  1.4875 0 0  1.5 0 0  1.5125 0 0  1.525 0 0  1.5375 0 0  1.55 0 0  1.5625 0 0  1.575 0 0  1.5875 0 0  1.6 0 0  1.6125 0 0  1.625 0 0  1.6375 0 0  1.65 0 0  1.6625 0 0  1.675 0 0  1.6875 0 0  1.7 0 0  1.7125 0 0  1.725 0 0  1.7375 0 0  1.75 0 0  1.7625 0 0  1.775 0 0  1.7875 0 0  1.8 0 0  1.8125 0 0  1.825 0 0  1.8375 0 0  1.85 0 0  1.8625 0 0  1.875 0 0  1.8875 0 0  1.9 0 0  1.9125 0 0  1.925 0 0  1.9375 0 0  1.95 0 0  1.9625 0 0  1.975 0 0  1.9875 0 0  2 0 0  2.0125 0 0  2.025 0 0  2.0375 0 0  2.05 0 0  2.0625 0 0  2.075 0 0  2.0875 0 0  2.1 0 0  2.1125 0 0  2.125 0 0  2.1375 0 0  2.15 0 0  2.1625 0 0  2.175 0 0  2.1875 0 0  2.2 0 0  2.2125 0 0  2.225 0 0  2.2375 0 0  2.25 0 0  2.2625 0 0  2.275 0 0  2.2875 0 0  2.3 0 0  2.3125 0 0  2.325 0 0  2.3375 0 0  2.35 0 0  2.3625 0 0  2.375 0 0  2.3875 0 0  2.4 0 0  2.4125 0 0  2.425 0 0  2.4375 0 0  2.45 0 0  2.4625 0 0  2.475 0 0  2.4875 0 0  2.5 0 0  2.5125 0 0  2.525 0 0  2.5375 0 0  2.55 0 0  2.5625 0 0  2.575 0 0  2.5875 0 0  2.6 0 0  2.6125 0 0  2.625 0 0  2.6375 0 0  2.65 0 0  2.6625 0 0  2.675 0 0  2.6875 0 0  2.7 0 0  2.7125 0 0  2.725 0 0  2.7375 0 0  2.75 0 0  2.7625 0 0  2.775 0 0  2.7875 0 0  2.8 0 0  2.8125 0 0  2.825 0 0  2.8375 0 0  2.85 0 0  2.8625 0 0  2.875 0 0  2.8875 0 0  2.9 0 0  2.9125 0 0  2.925 0 0  2.9375 0 0  2.95 0 0  2.9625 0 0  2.975 0 0  2.9875 0 0  3 0 0  3.012499999999999 0 0  3.025 0 0  3.0375 0 0  3.050000000000001 0 0  3.0625 0 0  3.074999999999999 0 0  3.0875 0 0  3.1 0 0  3.112500000000001 0 0  3.125 0 0  3.137499999999999 0 0  3.15 0 0  3.1625 0 0  3.175000000000001 0 0  3.1875 0 0  3.199999999999999 0 0  3.2125 0 0  3.225 0 0  3.237500000000001 0 0  3.25 0 0  3.262499999999999 0 0  3.275 0 0  3.2875 0 0  3.300000000000001 0 0  3.3125 0 0  3.324999999999999 0 0  3.3375 0 0  3.35 0 0  3.362500000000001 0 0  3.375 0 0  3.387499999999999 0 0  3.4 0 0  3.4125 0 0  3.425000000000001 0 0  3.4375 0 0  3.449999999999999 0 0  3.4625 0 0  3.475 0 0  3.4875
[...]
<PointData  Vectors="(h, u)"> 
<DataArray  type="Float64"  Name="(h, u)"  NumberOfComponents="3" format="ascii">1.1781056854728530e-01 0.0000000000000000e+00 0.0000000000000000e+00  1.2009754603960174e-01 4.1864292285101546e-03 0.0000000000000000e+00  1.1779090558400979e-01 9.1338323822408463e-03 0.0000000000000000e+00  1.2012849898157933e-01 1.2498816710307493e-02 0.0000000000000000e+00  1.1773147847163756e-01 1.8383561412813949e-02 0.0000000000000000e+00  1.2019121907969769e-01 2.0652521090878905e-02 0.0000000000000000e+00  1.1763250569185529e-01 2.7820277592029180e-02 0.0000000000000000e+00  1.2028427856185150e-01 2.8612076415258356e-02 0.0000000000000000e+00  1.1749840316562175e-01 3.7437878766128287e-02 0.0000000000000000e+00  1.2040018304445832e-01 3.6426943970475599e-02 0.0000000000000000e+00  1.1734075987223516e-01 4.7143894116098546e-02 0.0000000000000000e+00  1.2052371951834091e-01 4.4224422063042272e-02 0.0000000000000000e+00  1.1717821716378868e-01 5.6780456702347569e-02 0.0000000000000000e+00  1.2063403783511115e-01 5.2172240873517017e-02 0.0000000000000000e+00  1.1703251512617478e-01 6.6172861688531440e-02 0.0000000000000000e+00  1.2070971556104487e-01 6.0425199931527625e-02 0.0000000000000000e+00  1.1692256491397578e-01 7.5187485390177902e-02 0.0000000000000000e+00  1.2073437356340905e-01 6.9079048122614617e-02 0.0000000000000000e+00  1.1685989762382877e-01 8.3770116345469742e-02 0.0000000000000000e+00  1.2070014915753066e-01 7.8151817290806253e-02 0.0000000000000000e+00  1.1684780329343294e-01 9.1944785880918520e-02 0.0000000000000000e+00  1.2060745431054211e-01 8.7600544990865073e-02 0.0000000000000000e+00  1.1688374047242367e-01 9.9778919927825171e-02 0.0000000000000000e+00  1.2046154850884300e-01 9.7363301597235372e-02 0.0000000000000000e+00  1.1696275857249391e-01 1.0733987344685177e-01 0.0000000000000000e+00  1.2026846083689544e-01 1.0740024628281430e-01 0.0000000000000000e+00  1.1708007971234578e-01 1.1466516574587934e-01 0.0000000000000000e+00  1.2003284940291406e-01 1.1770875671442919e-01 0.0000000000000000e+00  1.1723235000422320e-01 1.2175394139137810e-01 0.0000000000000000e+00  1.1975790549234849e-01 1.2831250531265892e-01 0.0000000000000000e+00  1.1741791089800176e-01 1.2857546671075129e-01 0.0000000000000000e+00  1.1944502517574654e-01 1.3924894135345842e-01 0.0000000000000000e+00  1.1763703000121077e-01 1.3508204950336122e-01 0.0000000000000000e+00  1.1909187438196286e-01 1.5057331115055686e-01 0.0000000000000000e+00  1.1789331914232908e-01 1.4121035564368378e-01 0.0000000000000000e+00  1.1869055587409093e-01 1.6236846697978405e-01 0.0000000000000000e+00  1.1819586483654437e-01 1.4687173876918358e-01 0.0000000000000000e+00  1.1822856903968819e-01 1.7473731882206278e-01 0.0000000000000000e+00  1.1855845235317376e-01 1.5196292744438500e-01 0.0000000000000000e+00  1.1769332297195248e-01 1.8776815641144612e-01 0.0000000000000000e+00  1.1899249158121170e-01 1.5642816324125419e-01 0.0000000000000000e+00  1.1707957277442510e-01 2.0147322328368181e-01 0.0000000000000000e+00  1.1949591642393430e-01 1.6035258549041984e-01 0.0000000000000000e+00  1.1639878390217612e-01 2.1570499752703662e-01 0.0000000000000000e+00  1.2004501839269024e-01 1.6402332976650477e-01 0.0000000000000000e+00  1.1568659939393137e-01 2.3008422072973789e-01 0.0000000000000000e+00  1.2059368027762625e-01 1.6791915279507522e-01 0.0000000000000000e+00  1.1500117328537200e-01 2.4401014767881762e-01 0.0000000000000000e+00  1.2107954642348055e-01 1.7263878123499019e-01 0.0000000000000000e+00  1.1440921938438606e-01 2.5679068434145996e-01 0.0000000000000000e+00  1.2143659504678470e-01 1.7878047100811512e-01 0.0000000000000000e+00  1.1396723925281911e-01 2.6783217429611850e-01 0.0000000000000000e+00  1.2161373685162374e-01 1.8677843384615264e-01 0.0000000000000000e+00  1.1370836813853652e-01 2.7679064985628282e-01 0.0000000000000000e+00  1.2159227118022571e-01 1.9675623838977993e-01 0.0000000000000000e+00  1.1363613268338706e-01 2.8365569578065614e-01 0.0000000000000000e+00  1.2139012508417313e-01 2.0849890220623049e-01 0.0000000000000000e+00  1.1372210658026292e-01 2.8877623746789971e-01 0.0000000000000000e+00  1.2105081323062471e-01 2.2155596576419184e-01 0.0000000000000000e+00  1.1391252273176405e-01 2.9277963939824986e-01 0.0000000000000000e+00  1.2062925040150424e-01 2.3536526555079493e-01 0.0000000000000000e+00  1.1414814849996464e-01 2.9635749091190622e-01 0.0000000000000000e+00  1.2018237730386883e-01 2.4933422623131929e-01 0.0000000000000000e+00  1.1438368497382657e-01 3.0005772021965454e-01 0.0000000000000000e+00  1.1975811621144203e-01 2.6294728462562078e-01 0.0000000000000000e+00  1.1458941948030521e-01 3.0424967435593198e-01 0.0000000000000000e+00  1.1938227711873936e-01 2.7590004426595344e-01 0.0000000000000000e+00  1.1474372526239707e-01 3.0918752272431965e-01 0.0000000000000000e+00  1.1906002654551320e-01 2.8809729899294628e-01 0.0000000000000000e+00  1.1483668055458431e-01 3.1498377547614603e-01 0.0000000000000000e+00  1.1879355694323425e-01 2.9949463707912227e-01 0.0000000000000000e+00  1.1487643979251849e-01 3.2156124895399807e-01 0.0000000000000000e+00  1.1858683898746930e-01 3.1005272245618831e-01 0.0000000000000000e+00  1.1487701898639567e-01 3.2877285915102561e-01 0.0000000000000000e+00  1.1842839837791291e-01 3.1989024896048834e-01 0.0000000000000000e+00  1.1484536865032487e-01 3.3652547855593345e-01 0.0000000000000000e+00  1.1828911101190746e-01 3.2929793913149585e-01 0.0000000000000000e+00  1.1479758250708448e-01 3.4463548736633864e-01 0.0000000000000000e+00  1.1814644131874991e-01 3.3851130300818227e-01 0.0000000000000000e+00  1.1477280795894040e-01 3.5270357283054737e-01 0.0000000000000000e+00  1.1798739242176227e-01 3.4768265555892208e-01 0.0000000000000000e+00  1.1480193712912115e-01 3.6040326218276825e-01 0.0000000000000000e+00  1.1778664746907543e-01 3.5708340901759744e-01 0.0000000000000000e+00  1.1488098049320382e-01 3.6772876031648200e-01 0.0000000000000000e+00  1.1752558522964647e-01 3.6692922042943615e-01 0.0000000000000000e+00  1.1500173234341213e-01 3.7471873889668833e-01 0.0000000000000000e+00  1.1723332221983852e-01 3.7699947057850386e-01 0.0000000000000000e+00  1.1516311920570489e-01 3.8135376525765335e-01 0.0000000000000000e+00  1.1695521583357515e-01 3.8692136832635271e-01 0.0000000000000000e+00  1.1532448890748768e-01 3.8798181290809031e-01 0.0000000000000000e+00  1.1670600678325170e-01 3.9659504630343040e-01 0.0000000000000000e+00  1.1542382497416702e-01 3.9514692361791959e-01 0.0000000000000000e+00  1.1651542115485559e-01 4.0577210326107260e-01 0.0000000000000000e+00  1.1545145871252480e-01 4.0291114017732971e-01 0.0000000000000000e+00  1.1643913809859548e-01 4.1395796221920717e-01 0.0000000000000000e+00  1.1540859086930920e-01 4.1123907420090838e-01 0.0000000000000000e+00  1.1646850473666069e-01 4.2124678568043772e-01 0.0000000000000000e+00  1.1526062878238692e-01 4.2043155495050316e-01 0.0000000000000000e+00  1.1656226585892646e-01 4.2803158697904248e-01 0.0000000000000000e+00  1.1503669573604858e-01 4.3021395167151749e-01 0.0000000000000000e+00  1.1673192025593551e-01 4.3421590086001688e-01 0.0000000000000000e+00  1.1481097203158974e-01 4.3990926199558789e-01 0.0000000000000000e+00  1.1693609604882839e-01 4.4017753512009589e-01 0.0000000000000000e+00  1.1458001480980026e-01 4.4956426513182579e-01 0.0000000000000000e+00  1.1708646639758596e-01 4.4670544467726259e-01 0.0000000000000000e+00  1.1437827101138352e-01 4.5888602606526629e-01 0.0000000000000000e+00  1.1720046970111030e-01 4.5359273458642568e-01 0.0000000000000000e+00  1.1428623291946476e-01 4.6716747872874803e-01 0.0000000000000000e+00  1.1726300639527766e-01 4.6092182175897262e-01 0.0000000000000000e+00  1.1425095071629549e-01 4.7493526722502583e-01 0.0000000000000000e+00  1.1721277624965797e-01 4.6920238853562379e-01 0.0000000000000000e+00  1.1426799581410384e-01 4.8227471980468722e-01 0.0000000000000000e+00  1.1713670942361971e-01 4.7759050526144431e-01 0.0000000000000000e+00  1.1438249566351115e-01 4.8881262626440464e-01 0.0000000000000000e+00  1.1703691922092556e-01 4.8604654907871553e-01 0.0000000000000000e+00  1.1448022028141321e-01 4.9562377520777545e-01 0.0000000000000000e+00  1.1687860789264430e-01 4.9489304171557269e-01 0.0000000000000000e+00  1.1458871323124406e-01 5.0245539451760624e-01 0.0000000000000000e+00  1.1678466785764953e-01 5.0302025199198486e-01 0.0000000000000000e+00  1.1472938193463932e-01 5.0908645907352024e-01 0.0000000000000000e+00  1.1668026727317977e-01 5.1116080923898333e-01 0.0000000000000000e+00  1.1478409794218632e-01 5.1655256876515609e-01 0.0000000000000000e+00  1.1657806608885332e-01 5.1925944931478207e-01 0.0000000000000000e+00  1.1487812841669502e-01 5.2362834853968077e-01 0.0000000000000000e+00  1.1656540886069638e-01 5.2659337100127146e-01 0.0000000000000000e+00  1.1493523768511360e-01 5.3092180814698020e-01 0.0000000000000000e+00  1.1649150230587058e-01 5.3465590507140448e-01 0.0000000000000000e+00  1.1493265752040110e-01 5.3852030440163479e-01 0.0000000000000000e+00  1.1650736448495735e-01 5.4219040811866026e-01 0.0000000000000000e+00  1.1499271523242406e-01 5.4514490725500986e-01 0.0000000000000000e+00  1.1653323495557555e-01 5.5010510434195170e-01 0.0000000000000000e+00  1.1491754435648643e-01 5.5241911463242654e-01 0.0000000000000000e+00  1.1655364389151909e-01 5.5876072353721373e-01 0.0000000000000000e+00  1.1489108078986456e-01 5.5840262206103042e-01 0.0000000000000000e+00  1.1672034950726612e-01 5.6703262204003402e-01 0.0000000000000000e+00  1.1476173517878749e-01 5.6419133352930162e-01 0.0000000000000000e+00  1.1682490793224809e-01 5.7715869404081233e-01 0.0000000000000000e+00  1.1454152784029716e-01 5.6932688716847502e-01 0.0000000000000000e+00  1.1715050461575188e-01 5.8689125192903568e-01 0.0000000000000000e+00  1.1430362348983583e-01 5.7275504453976545e-01 0.0000000000000000e+00  1.1747352309887620e-01 5.9866094052557928e-01 0.0000000000000000e+00  1.1381306428447717e-01 5.7625791974091023e-01 0.0000000000000000e+00  1.1799189502195380e-01 6.1099389350718947e-01 0.0000000000000000e+00  1.1335794685850989e-01 5.7682680327307967e-01 0.0000000000000000e+00  1.1864889698248311e-01 6.2470031647508073e-01 0.0000000000000000e+00  1.1255891036240048e-01 5.7770241274285694e-01 0.0000000000000000e+00  1.1940534513565053e-01 6.4027818354839716e-01 0.0000000000000000e+00  1.1179684222075445e-01 5.7525411259052217e-01 0.0000000000000000e+00  1.2044188764905445e-01 6.5605068442807080e-01 0.0000000000000000e+00  1.1070659621996543e-01 5.7296813059696861e-01 0.0000000000000000e+00  1.2143300747583952e-01 6.7467527136385030e-01 0.0000000000000000e+00  1.0963652606649997e-01 5.6803002240840250e-01 0.0000000000000000e+00  1.2277498516424938e-01 6.9196059522175202e-01 0.0000000000000000e+00  1.0837187106520849e-01 5.6317316934663897e-01 0.0000000000000000e+00  1.2389426813149500e-01 7.1216990874197228e-01 0.0000000000000000e+00  1.0715777006363823e-01 5.5727183760768162e-01 0.0000000000000000e+00  1.2532557694267035e-01 7.2924016702355476e-01 0.0000000000000000e+00  1.0595086727618754e-01 5.5217889791758179e-01 0.0000000000000000e+00  1.2630169145947429e-01 7.4861330581970498e-01 0.0000000000000000e+00  1.0490225736761850e-01 5.4824531368351825e-01 0.0000000000000000e+00  1.2748750906091433e-01 7.6275146374739833e-01 0.0000000000000000e+00  1.0407292982175637e-01 5.4664417700219925e-01 0.0000000000000000e+00  1.2795690678625887e-01 7.7847619294807546e-01 0.0000000000000000e+00  1.0355831979429690e-01 5.4811178481490419e-01 0.0000000000000000e+00  1.2858492395630333e-01 7.8680690393243080e-01 0.0000000000000000e+00  1.0340222456712711e-01 5.5330905794706953e-01 0.0000000000000000e+00  1.2831093061818291e-01 7.9656539963772932e-01 0.0000000000000000e+00  1.0367955230173638e-01 5.6192394468506546e-01 0.0000000000000000e+00  1.2821808811149302e-01 7.9815292772456403e-01 0.0000000000000000e+00  1.0416291881487959e-01 5.7559666121503728e-01 0.0000000000000000e+00  1.2718378941758057e-01 8.0237396392864679e-01 0.0000000000000000e+00  1.0517742836441522e-01 5.8984039479577954e-01 0.0000000000000000e+00  1.2653559882074145e-01 7.9887386787431514e-01 0.0000000000000000e+00  1.0600030942775548e-01 6.0947033562821706e-01 0.0000000000000000e+00  1.2520285984661078e-01 7.9924699146578604e-01 0.0000000000000000e+00  1.0744273165157868e-01 6.2434927423654230e-01 0.0000000000000000e+00  1.2431771955435013e-01 7.9548995172903414e-01 0.0000000000000000e+00  1.0806220302308016e-01 6.4574548389732400e-01 0.0000000000000000e+00  1.2330506205229674e-01 7.9486971083940783e-01 0.0000000000000000e+00  1.0940726136462976e-01 6.5720873744907082e-01 0.0000000000000000e+00  1.2239721741041780e-01 7.9668747277981145e-01 0.0000000000000000e+00  1.0959522655834310e-01 6.7520596227004426e-01 0.0000000000000000e+00  1.2227776161189503e-01 7.9551183480255594e-01 0.0000000000000000e+00  1.1037096121923538e-01 6.8332622468999737e-01 0.0000000000000000e+00  1.2144133095717913e-01 8.0477445335734221e-01 0.0000000000000000e+00  1.1055480015335893e-01 6.9315006967615977e-01 0.0000000000000000e+00  1.2208351617342490e-01 8.0357378413276592e-01 0.0000000000000000e+00  1.1032771440689573e-01 7.0432518650573273e-01 0.0000000000000000e+00  1.2152803927152042e-01 8.1487642691620910e-01 0.0000000000000000e+00  1.1105651773689014e-01 7.0571609610908193e-01 0.0000000000000000e+00  1.2169718747726886e-01 8.1979575302045471e-01 0.0000000000000000e+00  1.1013841995181989e-01 7.2281507663949918e-01 0.0000000000000000e+00  1.2213066384452574e-01 8.2135512025790292e-01 0.0000000000000000e+00  1.1083241917803878e-01 7.2618760530216775e-01 0.0000000000000000e+00  1.2102397375162807e-01 8.3555767726146712e-01 0.0000000000000000e+00  1.1102398122704708e-01 7.3573875776787678e-01 0.0000000000000000e+00  1.2193171924343364e-01 8.3022337120118028e-01 0.0000000000000000e+00  1.1018890981902692e-01 7.5583731186648162e-01 0.0000000000000000e+00  1.2144525042425479e-01 8.3677601743051333e-01 0.0000000000000000e+00  1.1187010831369955e-01 7.5286148299097166e-01 0.0000000000000000e+00  1.2036234488525520e-01 8.4878923737600032e-01 0.0000000000000000e+00  1.1130440433718543e-01 7.7041007350246671e-01 0.0000000000000000e+00  1.2192047926332682e-01 8.3748136412246010e-01 0.0000000000000000e+00  1.1052769640735387e-01 7.8905168107977286e-01 0.0000000000000000e+00  1.2086157392749196e-01 8.5083929591933083e-01 0.0000000000000000e+00  1.1286036947617391e-01 7.7782914717536300e-01 0.0000000000000000e+00  1.1951700989075965e-01 8.6752294344321812e-01 0.0000000000000000e+00  1.1200187357402787e-01 7.9546866627735657e-01 0.0000000000000000e+00  1.2172243775730272e-01 8.5249848701467079e-01 0.0000000000000000e+00  1.1044883733447296e-01 8.1929198869542430e-01 0.0000000000000000e+00  1.2087054976328690e-01 8.6554061766672452e-01 0.0000000000000000e+00  1.1366017640571430e-01 7.9893629637396635e-01 0.0000000000000000e+00  1.1781614353504788e-01 8.9841757550347645e-01 0.0000000000000000e+00  1.1479657089359815e-01 7.9762035998660963e-01 0.0000000000000000e+00  1.1954044642303541e-01 8.8779227325136478e-01 0.0000000000000000e+00  1.1132662819913519e-01 8.3897500987981943e-01 0.0000000000000000e+00  1.2179662909745705e-01 8.7260035933804048e-01 0.0000000000000000e+00  1.1180879415338060e-01 8.4362103870244121e-01 0.0000000000000000e+00  1.1794617627664844e-01 9.1363377511557364e-01 0.0000000000000000e+00  1.1696235439763615e-01 8.0430239599392295e-01 0.0000000000000000e+00  1.1399867077848935e-01 9.5579281705268127e-01 0.0000000000000000e+00  1.1809886584335717e-01 8.0143051193685078e-01 0.0000000000000000e+00  1.1676028182285529e-01 9.3725638077880713e-01 0.0000000000000000e+00  1.1343140217257086e-01 8.5211544072648071e-01 0.0000000000000000e+00  1.2247125355868758e-01 8.9224137631752576e-01 0.0000000000000000e+00  1.0909320345155396e-01 8.9975026823679083e-01 0.0000000000000000e+00  1.2394342702966779e-01 8.8586778277833456e-01 0.0000000000000000e+00  1.1071629610080637e-01 8.9265728882946638e-01 0.0000000000000000e+00  1.1962955152500650e-01 9.3183042792674231e-01 0.0000000000000000e+00  1.1630442672085971e-01 8.4898164914691865e-01 0.0000000000000000e+00  1.1358631727770295e-01 9.9290924818460158e-01 0.0000000000000000e+00  1.2072282316205102e-01 8.1612358156083042e-01 0.0000000000000000e+00  1.1015547193251814e-01 1.0300432405259632e+00 0.0000000000000000e+00  1.2214443241431217e-01 8.1155131158480154e-01 0.0000000000000000e+00  1.1002784549165130e-01 1.0371375991717924e+00 0.0000000000000000e+00  1.2151137706278332e-01 8.2656992773623106e-01 0.0000000000000000e+00  1.1163924235009297e-01 1.0284555571838161e+00 0.0000000000000000e+00  1.2010661405769991e-01 8.4870227641505014e-01 0.0000000000000000e+00  1.1354530322768458e-01 1.0169192596448140e+00 0.0000000000000000e+00  1.1873169898145150e-01 8.7003620580566532e-01 0.0000000000000000e+00  1.1505682392517426e-01 1.0085742968476048e+00 0.0000000000000000e+00  1.1773182683156849e-01 8.8734247849258274e-01 0.0000000000000000e+00  1.1600618616149345e-01 1.0050707646484529e+00 0.0000000000000000e+00  1.1719759794012347e-01 9.0011206067528315e-01 0.0000000000000000e+00  1.1641745357476400e-01 1.0066248181433941e+00 0.0000000000000000e+00  1.1714780132145210e-01 9.0852407167595173e-01 0.0000000000000000e+00  1.1633464267519200e-01 1.0132723030648245e+00 0.0000000000000000e+00  1.1757599407205850e-01 9.1273255576878587e-01 0.0000000000000000e+00  1.1579574870470634e-01 1.0248445640568262e+00 0.0000000000000000e+00  1.1840754128667108e-01 9.1325684075164826e-01 0.0000000000000000e+00  1.1495979744307591e-01 1.0397519359056593e+00 0.0000000000000000e+00  1.1947836982938449e-01 9.1139581916626533e-01 0.0000000000000000e+00  1.1421173658717672e-01 1.0541179142853072e+00 0.0000000000000000e+00  1.2054202842266416e-01 9.0937937091107035e-01 0.0000000000000000e+00  1.1409790094325875e-01 1.0625103412462780e+00 0.0000000000000000e+00  1.2158245145585149e-01 9.0754931143519268e-01 0.0000000000000000e+00  1.1474926214323779e-01 1.0633958491469511e+00 0.0000000000000000e+00  1.2324670733796833e-01 9.0031284585198579e-01 0.0000000000000000e+00  1.1575920601445309e-01 1.0603948262779932e+00 0.0000000000000000e+00  1.2468380422979766e-01 8.9565081325846485e-01 0.0000000000000000e+00  1.2270234994254586e-01 1.0036760282580837e+00 0.0000000000000000e+00  1.2690271145890331e-01 8.8452928648540008e-01 0.0000000000000000e+00  9.9873645491250329e-02 1.2190270863054578e+00 0.0000000000000000e+00  1.0636471189821858e-01 1.0865187141454553e+00 0.0000000000000000e+00  1.1307312182724920e-01 1.0974585400988084e+00 0.0000000000000000e+00  1.1808648396096375e-01 9.8513728955414570e-01 0.0000000000000000e+00  1.1172858707958709e-01 1.1159744395043418e+00 0.0000000000000000e+00  1.1749224335579041e-01 9.9803272104453100e-01 0.0000000000000000e+00  1.1513455772070337e-01 1.0912346732486207e+00 0.0000000000000000e+00  1.1308682336517055e-01 1.0454895459633280e+00 0.0000000000000000e+00  1.1862030173725041e-01 1.0664888311547964e+00 0.0000000000000000e+00  1.1564472357022293e-01 1.0283793183511647e+00 0.0000000000000000e+00  1.1721618531442965e-01 1.0869516212683596e+00 0.0000000000000000e+00  1.2281106780347908e-01 9.6955896852210044e-01 0.0000000000000000e+00  1.1271937909467923e-01 1.1354850354146961e+00 0.0000000000000000e+00  1.2669779275316942e-01 9.4124082185100189e-01 0.0000000000000000e+00  1.1300538967499228e-01 1.1397591019622182e+00 0.0000000000000000e+00  1.0575680799254550e-01 1.1424697542553284e+00 0.0000000000000000e+00  1.2507020053995382e-01 1.0342491494338104e+00 0.0000000000000000e+00  1.1054170430316146e-01 1.1061780742966785e+00 0.0000000000000000e+00  1.1639871787084510e-01 1.1192478311115539e+00 0.0000000000000000e+00  1.2421599565572417e-01 9.8942479451412868e-01 0.0000000000000000e+00  1.1614882296582094e-01 1.1272417610838721e+00 0.0000000000000000e+00  1.3154141278207282e-01 9.3253444408715858e-01 0.0000000000000000e+00  1.213081