<?xml version="1.0"?>
<VTKFile type="UnstructuredGrid"  version="0.1"  >
<UnstructuredGrid>
<Piece  NumberOfPoints="801" NumberOfCells="800">
<Points>
<DataArray  type="Float64"  NumberOfComponents="3"  format="ascii">-5 0 0  -4.9875 0 0  -4.975 0 0  -4.9625 0 0  -4.95 0 0  -4.9375 0 0  -4.925 0 0  -4.9125 0 0  -4.9 0 0  -4.8875 0 0  -4.875 0 0  -4.8625 0 0  -4.85 0 0  -4.8375 0 0  -4.825 0 0  -4.8125 0 0  -4.8 0 0  -4.7875 0 0  -4.775 0 0  -4.7625 0 0  -4.75 0 0  -4.7375 0 0  -4.725 0 0  -4.7125 0 0  -4.7 0 0  -4.6875 0 0  -4.675 0 0  -4.6625 0 0  -4.65 0 0  -4.6375 0 0  -4.625 0 0  -4.6125 0 0  -4.6 0 0  -4.5875 0 0  -4.575 0 0  -4.5625 0 0  -4.55 0 0  -4.5375 0 0  -4.525 0 0  -4.5125 0 0  -4.5 0 0  -4.4875 0 0  -4.475 0 0  -4.4625 0 0  -4.45 0 0  -4.4375 0 0  -4.425 0 0  -4.4125 0 0  -4.4 0 0  -4.3875 0 0  -4.375 0 0  -4.3625 0 0  -4.35 0 0  -4.3375 0 0  -4.325 0 0  -4.3125 0 0  -4.3 0 0  -4.2875 0 0  -4.275 0 0  -4.2625 0 0  -4.25 0 0  -4.2375 0 0  -4.225 0 0  -4.2125 0 0  -4.2 0 0  -4.1875 0 0  -4.175 0 0  -4.1625 0 0  -4.15 0 0  -4.1375 0 0  -4.125 0 0  -4.1125 0 0  -4.1 0 0  -4.0875 0 0  -4.075 0 0  -4.0625 0 0  -4.05 0 0  -4.0375 0 0  -4.025 0 0  -4.0125 0 0  -4 0 0  -3.9875 0 0  -3.975 0 0  -3.9625 0 0  -3.95 0 0  -3.9375 0 0  -3.925 0 0  -3.9125 0 0  -3.9 0 0  -3.8875 0 0  -3.875 0 0  -3.8625 0 0  -3.85 0 0  -3.8375 0 0  -3.825 0 0  -3.8125 0 0  -3.8 0 0  -3.7875 0 0  -3.775 0 0  -3.7625 0 0  -3.75 0 0  -3.7375 0 0  -3.725 0 0  -3.7125 0 0  -3.7 0 0  -3.6875 0 0  -3.675 0 0  -3.6625 0 0  -3.65 0 0  -3.6375 0 0  -3.625 0 0  -3.6125 0 0  -3.6 0 0  -3.5875 0 0  -3.575 0 0  -3.5625 0 0  -3.55 0 0  -3.5375 0 0  -3.525 0 0  -3.5125 0 0  -3.5 0 0  -3.4875 0 0  -3.475 0 0  -3.4625 0 0  -3.45 0 0  -3.4375 0 0  -3.425 0 0  -3.4125 0 0  -3.4 0 0  -3.3875 0 0  -3.375 0 0  -3.3625 0 0  -3.35 0 0  -3.3375 0 0  -3.325 0 0  -3.3125 0 0  -3.3 0 0  -3.2875 0 0  -3.275 0 0  -3.2625 0 0  -3.25 0 0  -3.2375 0 0  -3.225 0 0  -3.2125 0 0  -3.2 0 0  -3.1875 0 0  -3.175 0 0  -3.1625 0 0  -3.15 0 0  -3.1375 0 0  -3.125 0 0  -3.1125 0 0  -3.1 0 0  -3.0875 0 0  -3.075 0 0  -3.0625 0 0  -3.05 0 0  -3.0375 0 0  -3.025 0 0  -3.0125 0 0  -3 0 0  -2.9875 0 0  -2.975 0 0  -2.9625 0 0  -2.95 0 0  -2.9375 0 0  -2.925 0 0  -2.9125 0 0  -2.9 0 0  -2.8875 0 0  -2.875 0 0  -2.8625 0 0  -2.85 0 0  -2.8375 0 0  -2.825 0 0  -2.8125 0 0  -2.8 0 0  -2.7875 0 0  -2.775 0 0  -2.7625 0 0  -2.75 0 0  -2.7375 0 0  -2.725 0 0  -2.7125 0 0  -2.7 0 0  -2.6875 0 0  -2.675 0 0  -2.6625 0 0  -2.65 0 0  -2.6375 0 0  -2.625 0 0  -2.6125 0 0  -2.6 0 0  -2.5875 0 0  -2.575 0 0  -2.5625 0 0  -2.55 0 0  -2.5375 0 0  -2.525 0 0  -2.5125 0 0  -2.5 0 0  -2.4875 0 0  -2.475 0 0  -2.4625 0 0  -2.45 0 0  -2.4375 0 0  -2.425 0 0  -2.4125 0 0  -2.4 0 0  -2.3875 0 0  -2.375 0 0  -2.3625 0 0  -2.35 0 0  -2.3375 0 0  -2.325 0 0  -2.3125 0 0  -2.3 0 0  -2.2875 0 0  -2.275 0 0  -2.2625 0 0  -2.25 0 0  -2.2375 0 0  -2.225 0 0  -2.2125 0 0  -2.2 0 0  -2.1875 0 0  -2.175 0 0  -2.1625 0 0  -2.15 0 0  -2.1375 0 0  -2.125 0 0  -2.1125 0 0  -2.1 0 0  -2.0875 0 0  -2.075 0 0  -2.0625 0 0  -2.05 0 0  -2.0375 0 0  -2.025 0 0  -2.0125 0 0  -2 0 0  -1.9875 0 0  -1.975 0 0  -1.9625 0 0  -1.95 0 0  -1.9375 0 0  -1.925 0 0  -1.9125 0 0  -1.9 0 0  -1.8875 0 0  -1.875 0 0  -1.8625 0 0  -1.85 0 0  -1.8375 0 0  -1.825 0 0  -1.8125 0 0  -1.8 0 0  -1.7875 0 0  -1.775 0 0  -1.7625 0 0  -1.75 0 0  -1.7375 0 0  -1.725 0 0  -1.7125 0 0  -1.7 0 0  -1.6875 0 0  -1.675 0 0  -1.6625 0 0  -1.65 0 0  -1.6375 0 0  -1.625 0 0  -1.6125 0 0  -1.6 0 0  -1.5875 0 0  -1.575 0 0  -1.5625 0 0  -1.55 0 0  -1.5375 0 0  -1.525 0 0  -1.5125 0 0  -1.5 0 0  -1.4875 0 0  -1.475 0 0  -1.4625 0 0  -1.45 0 0  -1.4375 0 0  -1.425 0 0  -1.4125 0 0  -1.4 0 0  -1.3875 0 0  -1.375 0 0  -1.3625 0 0  -1.35 0 0  -1.3375 0 0  -1.325 0 0  -1.3125 0 0  -1.3 0 0  -1.2875 0 0  -1.275 0 0  -1.2625 0 0  -1.25 0 0  -1.2375 0 0  -1.225 0 0  -1.2125 0 0  -1.2 0 0  -1.1875 0 0  -1.175 0 0  -1.1625 0 0  -1.15 0 0  -1.1375 0 0  -1.125 0 0  -1.1125 0 0  -1.1 0 0  -1.0875 0 0  -1.075 0 0  -1.0625 0 0  -1.05 0 0  -1.0375 0 0  -1.025 0 0  -1.0125 0 0  -1 0 0  -0.9874999999999998 0 0  -0.9749999999999996 0 0  -0.9625000000000004 0 0  -0.9500000000000002 0 0  -0.9375 0 0  -0.9249999999999998 0 0  -0.9124999999999996 0 0  -0.9000000000000004 0 0  -0.8875000000000002 0 0  -0.875 0 0  -0.8624999999999998 0 0  -0.8499999999999996 0 0  -0.8375000000000004 0 0  -0.8250000000000002 0 0  -0.8125 0 0  -0.7999999999999998 0 0  -0.7874999999999996 0 0  -0.7750000000000004 0 0  -0.7625000000000002 0 0  -0.75 0 0  -0.7374999999999998 0 0  -0.7249999999999996 0 0  -0.7125000000000004 0 0  -0.7000000000000002 0 0  -0.6875 0 0  -0.6749999999999998 0 0  -0.6624999999999996 0 0  -0.6500000000000004 0 0  -0.6375000000000002 0 0  -0.625 0 0  -0.6124999999999998 0 0  -0.5999999999999996 0 0  -0.5875000000000004 0 0  -0.5750000000000002 0 0  -0.5625 0 0  -0.5499999999999998 0 0  -0.5374999999999996 0 0  -0.5250000000000004 0 0  -0.5125000000000002 0 0  -0.5 0 0  -0.4874999999999998 0 0  -0.4749999999999996 0 0  -0.4625000000000004 0 0  -0.4500000000000002 0 0  -0.4375 0 0  -0.4249999999999998 0 0  -0.4124999999999996 0 0  -0.4000000000000004 0 0  -0.3875000000000002 0 0  -0.375 0 0  -0.3624999999999998 0 0  -0.3499999999999996 0 0  -0.3375000000000004 0 0  -0.3250000000000002 0 0  -0.3125 0 0  -0.2999999999999998 0 0  -0.2874999999999996 0 0  -0.2750000000000004 0 0  -0.2625000000000002 0 0  -0.25 0 0  -0.2374999999999998 0 0  -0.2249999999999996 0 0  -0.2125000000000004 0 0  -0.2000000000000002 0 0  -0.1875 0 0  -0.1749999999999998 0 0  -0.1624999999999996 0 0  -0.1500000000000004 0 0  -0.1375000000000002 0 0  -0.125 0 0  -0.1124999999999998 0 0  -0.09999999999999964 0 0  -0.08750000000000036 0 0  -0.07500000000000018 0 0  -0.0625 0 0  -0.04999999999999982 0 0  -0.03749999999999964 0 0  -0.02500000000000036 0 0  -0.01250000000000018 0 0  0 0 0  0.01250000000000018 0 0  0.02500000000000036 0 0  0.03749999999999964 0 0  0.04999999999999982 0 0  0.0625 0 0  0.07500000000000018 0 0  0.08750000000000036 0 0  0.09999999999999964 0 0  0.1124999999999998 0 0  0.125 0 0  0.1375000000000002 0 0  0.1500000000000004 0 0  0.1624999999999996 0 0  0.1749999999999998 0 0  0.1875 0 0  0.2000000000000002 0 0  0.2125000000000004 0 0  0.2249999999999996 0 0  0.2374999999999998 0 0  0.25 0 0  0.2625000000000002 0 0  0.2750000000000004 0 0  0.2874999999999996 0 0  0.2999999999999998 0 0  0.3125 0 0  0.3250000000000002 0 0  0.3375000000000004 0 0  0.3499999999999996 0 0  0.3624999999999998 0 0  0.375 0 0  0.3875000000000002 0 0  0.4000000000000004 0 0  0.4124999999999996 0 0  0.4249999999999998 0 0  0.4375 0 0  0.4500000000000002 0 0  0.4625000000000004 0 0  0.4749999999999996 0 0  0.4874999999999998 0 0  0.5 0 0  0.5125000000000002 0 0  0.5250000000000004 0 0  0.5374999999999996 0 0  0.5499999999999998 0 0  0.5625 0 0  0.5750000000000002 0 0  0.5875000000000004 0 0  0.5999999999999996 0 0  0.6124999999999998 0 0  0.625 0 0  0.6375000000000002 0 0  0.6500000000000004 0 0  0.6624999999999996 0 0  0.6749999999999998 0 0  0.6875 0 0  0.7000000000000002 0 0  0.7125000000000004 0 0  0.7249999999999996 0 0  0.7374999999999998 0 0  0.75 0 0  0.7625000000000002 0 0  0.7750000000000004 0 0  0.7874999999999996 0 0  0.7999999999999998 0 0  0.8125 0 0  0.8250000000000002 0 0  0.8375000000000004 0 0  0.8499999999999996 0 0  0.8624999999999998 0 0  0.875 0 0  0.8875000000000002 0 0  0.9000000000000004 0 0  0.9124999999999996 0 0  0.9249999999999998 0 0  0.9375 0 0  0.9500000000000002 0 0  0.9625000000000004 0 0  0.9749999999999996 0 0  0.9874999999999998 0 0  1 0 0  1.0125 0 0  1.025 0 0  1.0375 0 0  1.05 0 0  1.0625 0 0  1.075 0 0  1.0875 0 0  1.1 0 0  1.1125 0 0  1.125 0 0  1.1375 0 0  1.15 0 0  1.1625 0 0  1.175 0 0  1.1875 0 0  1.2 0 0  1.2125 0 0  1.225 0 0  1.2375 0 0  1.25 0 0  1.2625 0 0  1.275 0 0  1.2875 0 0  1.3 0 0  1.3125 0 0  1.325 0 0  1.3375 0 0  1.35 0 0  1.3625 0 0  1.375 0 0  1.3875 0 0  1.4 0 0  1.4125 0 0  1.425 0 0  1.4375 0 0  1.45 0 0  1.4625 0 0  1.475 0 0  1.4875 0 0  1.5 0 0  1.5125 0 0  1.525 0 0  1.5375 0 0  1.55 0 0  1.5625 0 0  1.575 0 0  1.5875 0 0  1.6 0 0  1.6125 0 0  1.625 0 0  1.6375 0 0  1.65 0 0  1.6625 0 0  1.675 0 0  1.6875 0 0  1.7 0 0  1.7125 0 0  1.725 0 0  1.7375 0 0  1.75 0 0  1.7625 0 0  1.775 0 0  1.7875 0 0  1.8 0 0  1.8125 0 0  1.825 0 0  1.8375 0 0  1.85 0 0  1.8625 0 0  1.875 0 0  1.8875 0 0  1.9 0 0  1.9125 0 0  1.925 0 0  1.9375 0 0  1.95 0 0  1.9625 0 0  1.975 0 0  1.9875 0 0  2 0 0  2.0125 0 0  2.025 0 0  2.0375 0 0  2.05 0 0  2.0625 0 0  2.075 0 0  2.0875 0 0  2.1 0 0  2.1125 0 0  2.125 0 0  2.1375 0 0  2.15 0 0  2.1625 0 0  2.175 0 0  2.1875 0 0  2.2 0 0  2.2125 0 0  2.225 0 0  2.2375 0 0  2.25 0 0  2.2625 0 0  2.275 0 0  2.2875 0 0  2.3 0 0  2.3125 0 0  2.325 0 0  2.3375 0 0  2.35 0 0  2.3625 0 0  2.375 0 0  2.3875 0 0  2.4 0 0  2.4125 0 0  2.425 0 0  2.4375 0 0  2.45 0 0  2.4625 0 0  2.475 0 0  2.4875 0 0  2.5 0 0  2.5125 0 0  2.525 0 0  2.5375 0 0  2.55 0 0  2.5625 0 0  2.575 0 0  2.5875 0 0  2.6 0 0  2.6125 0 0  2.625 0 0  2.6375 0 0  2.65 0 0  2.6625 0 0  2.675 0 0  2.6875 0 0  2.7 0 0  2.7125 0 0  2.725 0 0  2.7375 0 0  2.75 0 0  2.7625 0 0  2.775 0 0  2.7875 0 0  2.8 0 0  2.8125 0 0  2.825 0 0  2.8375 0 0  2.85 0 0  2.8625 0 0  2.875 0 0  2.8875 0 0  2.9 0 0  2.9125 0 0  2.925 0 0  2.9375 0 0  2.95 0 0  2.9625 0 0  2.975 0 0  2.9875 0 0  3 0 0  3.012499999999999 0 0  3.025 0 0  3.0375 0 0  3.050000000000001 0 0  3.0625 0 0  3.074999999999999 0 0  3.0875 0 0  3.1 0 0  3.112500000000001 0 0  3.125 0 0  3.137499999999999 0 0  3.15 0 0  3.1625 0 0  3.175000000000001 0 0  3.1875 0 0  3.199999999999999 0 0  3.2125 0 0  3.225 0 0  3.237500000000001 0 0  3.25 0 0  3.262499999999999 0 0  3.275 0 0  3.2875 0 0  3.300000000000001 0 0  3.3125 0 0  3.324999999999999 0 0  3.3375 0 0  3.35 0 0  3.362500000000001 0 0  3.375 0 0  3.387499999999999 0 0  3.4 0 0  3.4125 0 0  3.425000000000001 0 0  3.4375 0 0  3.449999999999999 0 0  3.4625 0 0  3.475 0 0  3.4875
[...]
<PointData  Vectors="(h, u)"> 
<DataArray  type="Float64"  Name="(h, u)"  NumberOfComponents="3" format="ascii">1.4732209692049955e-01 0.0000000000000000e+00 0.0000000000000000e+00  1.4686092487140984e-01 4.7520817114358868e-03 0.0000000000000000e+00  1.4732008012308759e-01 9.9922876591028598e-03 0.0000000000000000e+00  1.4685860025075045e-01 1.4260604575535853e-02 0.0000000000000000e+00  1.4731406739493813e-01 1.9976972996665079e-02 0.0000000000000000e+00  1.4685386792739435e-01 2.3781891150662905e-02 0.0000000000000000e+00  1.4730416583382597e-01 2.9947058675734006e-02 0.0000000000000000e+00  1.4684657621986877e-01 3.3323437968632255e-02 0.0000000000000000e+00  1.4729053524406341e-01 3.9896691208319041e-02 0.0000000000000000e+00  1.4683653018104242e-01 4.2891343804977659e-02 0.0000000000000000e+00  1.4727336336418215e-01 4.9821578118611633e-02 0.0000000000000000e+00  1.4682352166763021e-01 5.2489974592499579e-02 0.0000000000000000e+00  1.4725283738581071e-01 5.9719245926470918e-02 0.0000000000000000e+00  1.4680735741476977e-01 6.2121811553302847e-02 0.0000000000000000e+00  1.4722911707602396e-01 6.9589122775941953e-02 0.0000000000000000e+00  1.4678787966651669e-01 7.1787482652388129e-02 0.0000000000000000e+00  1.4720231485997851e-01 7.9432450381778610e-02 0.0000000000000000e+00  1.4676497643311290e-01 8.1485950562187340e-02 0.0000000000000000e+00  1.4717248703695063e-01 8.9252048568563780e-02 0.0000000000000000e+00  1.4673858116393221e-01 9.1214811382359220e-02 0.0000000000000000e+00  1.4713963787124204e-01 9.9051971540644060e-02 0.0000000000000000e+00  1.4670866360847273e-01 1.0097065209254273e-01 0.0000000000000000e+00  1.4710373507714722e-01 1.0883710714378148e-01 0.0000000000000000e+00  1.4667521451074231e-01 1.1074942113954490e-01 0.0000000000000000e+00  1.4706473215933535e-01 1.1861277579927242e-01 0.0000000000000000e+00  1.4663822687068467e-01 1.2054678034989427e-01 0.0000000000000000e+00  1.4702259133324019e-01 1.2838438027957871e-01 0.0000000000000000e+00  1.4659767653596623e-01 1.3035841951887028e-01 0.0000000000000000e+00  1.4697730111724855e-01 1.3815713876581626e-01 0.0000000000000000e+00  1.4655350537447059e-01 1.4018032188376583e-01 0.0000000000000000e+00  1.4692888500927051e-01 1.4793590510075522e-01 0.0000000000000000e+00  1.4650561101485232e-01 1.5000897001112909e-01 0.0000000000000000e+00  1.4687740072288297e-01 1.5772505197656214e-01 0.0000000000000000e+00  1.4645384720476706e-01 1.5984148450226096e-01 0.0000000000000000e+00  1.4682293153914222e-01 1.6752837794084824e-01 0.0000000000000000e+00  1.4639803724855452e-01 1.6967570023881751e-01 0.0000000000000000e+00  1.4676557128044940e-01 1.7734900529541148e-01 0.0000000000000000e+00  1.4633799972506334e-01 1.7951020707974477e-01 0.0000000000000000e+00  1.4670540265196461e-01 1.8718925829271557e-01 0.0000000000000000e+00  1.4627358221445375e-01 1.8934440250011014e-01 0.0000000000000000e+00  1.4664246719865995e-01 1.9705053247504789e-01 0.0000000000000000e+00  1.4620469731651525e-01 1.9917860495387765e-01 0.0000000000000000e+00  1.4657672603093544e-01 2.0693316880038548e-01 0.0000000000000000e+00  1.4613135709042205e-01 2.0901424902666399e-01 0.0000000000000000e+00  1.4650801419552104e-01 2.1683632705743580e-01 0.0000000000000000e+00  1.4605370603572476e-01 2.1885413679903265e-01 0.0000000000000000e+00  1.4643599592828974e-01 2.2675782993699195e-01 0.0000000000000000e+00  1.4597205544687625e-01 2.2870268298103266e-01 0.0000000000000000e+00  1.4636012935699472e-01 2.3669395168411833e-01 0.0000000000000000e+00  1.4588691999471073e-01 2.3856609319983277e-01 0.0000000000000000e+00  1.4627964546602143e-01 2.4663916942323444e-01 0.0000000000000000e+00  1.4579905080437536e-01 2.4845245595407997e-01 0.0000000000000000e+00  1.4619353979421693e-01 2.5658595890861186e-01 0.0000000000000000e+00  1.4570945306412206e-01 2.5837177040540443e-01 0.0000000000000000e+00  1.4610057241805105e-01 2.6652474818682237e-01 0.0000000000000000e+00  1.4561937644487435e-01 2.6833592625651698e-01 0.0000000000000000e+00  1.4599927634170337e-01 2.7644410658643481e-01 0.0000000000000000e+00  1.4553027483070169e-01 2.7835858845956513e-01 0.0000000000000000e+00  1.4588798408757261e-01 2.8633115956486299e-01 0.0000000000000000e+00  1.4544374256487541e-01 2.8845486546759558e-01 0.0000000000000000e+00  1.4576488843634502e-01 2.9617215082989040e-01 0.0000000000000000e+00  1.4536143779284677e-01 2.9864063716622224e-01 0.0000000000000000e+00  1.4562814655718892e-01 3.0595309749148925e-01 0.0000000000000000e+00  1.4528499392580965e-01 3.0893153397100215e-01 0.0000000000000000e+00  1.4547601813275529e-01 3.1566059484773878e-01 0.0000000000000000e+00  1.4521590671746590e-01 3.1934171708012543e-01 0.0000000000000000e+00  1.4530701357834802e-01 3.2528289580186009e-01 0.0000000000000000e+00  1.4515538498366204e-01 3.2988265994294946e-01 0.0000000000000000e+00  1.4512003285593125e-01 3.3481129907361273e-01 0.0000000000000000e+00  1.4510417289522923e-01 3.4056202348908193e-01 0.0000000000000000e+00  1.4491449421493269e-01 3.4424167265728156e-01 0.0000000000000000e+00  1.4506237727960050e-01 3.5138255847093086e-01 0.0000000000000000e+00  1.4469046739542740e-01 3.5357576909991550e-01 0.0000000000000000e+00  1.4502934306613899e-01 3.6234092570477705e-01 0.0000000000000000e+00  1.4444881619747438e-01 3.6282203857602485e-01 0.0000000000000000e+00  1.4500359515894620e-01 3.7342654569178491e-01 0.0000000000000000e+00  1.4419131508759578e-01 3.7199596960916059e-01 0.0000000000000000e+00  1.4498282176333910e-01 3.8462093387080826e-01 0.0000000000000000e+00  1.4392067781701959e-01 3.8112022920711203e-01 0.0000000000000000e+00  1.4496387207366709e-01 3.9589795315185972e-01 0.0000000000000000e+00  1.4364047204638991e-01 3.9022463102342653e-01 0.0000000000000000e+00  1.4494279064036450e-01 4.0722493678766780e-01 0.0000000000000000e+00  1.4335495396733774e-01 3.9934554695615287e-01 0.0000000000000000e+00  1.4491494421937165e-01 4.1856426209892700e-01 0.0000000000000000e+00  1.4306887922058720e-01 4.0852429688910102e-01 0.0000000000000000e+00  1.4487528449338949e-01 4.2987494365576256e-01 0.0000000000000000e+00  1.4278732434138777e-01 4.1780435230865870e-01 0.0000000000000000e+00  1.4481872371778745e-01 4.4111423969778429e-01 0.0000000000000000e+00  1.4251546796895062e-01 4.2722801777587133e-01 0.0000000000000000e+00  1.4474049018591809e-01 4.5224005703673220e-01 0.0000000000000000e+00  1.4225822722103240e-01 4.3683382025091183e-01 0.0000000000000000e+00  1.4463636609828076e-01 4.6321455084223456e-01 0.0000000000000000e+00  1.4201980679683415e-01 4.4665458830649452e-01 0.0000000000000000e+00  1.4450291876072319e-01 4.7400754024095054e-01 0.0000000000000000e+00  1.4180336756838993e-01 4.5671501410047044e-01 0.0000000000000000e+00  1.4433782948946014e-01 4.8459839647724334e-01 0.0000000000000000e+00  1.4161087482641932e-01 4.6702870292337284e-01 0.0000000000000000e+00  1.4414024588536217e-01 4.9497655914542793e-01 0.0000000000000000e+00  1.4144307930488631e-01 4.7759555068950860e-01 0.0000000000000000e+00  1.4391105426556949e-01 5.0514115071160270e-01 0.0000000000000000e+00  1.4129951896168286e-01 4.8840072394286554e-01 0.0000000000000000e+00  1.4365282248890240e-01 5.1510149671548311e-01 0.0000000000000000e+00  1.4117830247339627e-01 4.9941741649276966e-01 0.0000000000000000e+00  1.4336934257375225e-01 5.2487904914272232e-01 0.0000000000000000e+00  1.4107601201936987e-01 5.1061056770609958e-01 0.0000000000000000e+00  1.4306544611016866e-01 5.3450524599941684e-01 0.0000000000000000e+00  1.4098832646327936e-01 5.2193632514520638e-01 0.0000000000000000e+00  1.4274715717291817e-01 5.4401503769079695e-01 0.0000000000000000e+00  1.4091070570513126e-01 5.3334233480701554e-01 0.0000000000000000e+00  1.4242129159603240e-01 5.5344390510727270e-01 0.0000000000000000e+00  1.4083861534276979e-01 5.4477263799048070e-01 0.0000000000000000e+00  1.4209478596630210e-01 5.6282662376405967e-01 0.0000000000000000e+00  1.4076779504050507e-01 5.5617232796596561e-01 0.0000000000000000e+00  1.4177395986089084e-01 5.7219675189424690e-01 0.0000000000000000e+00  1.4069414812463699e-01 5.6749481440793470e-01 0.0000000000000000e+00  1.4146370097802030e-01 5.8158758404704503e-01 0.0000000000000000e+00  1.4061429588958543e-01 5.7870237677377656e-01 0.0000000000000000e+00  1.4116842638067056e-01 5.9101970329024356e-01 0.0000000000000000e+00  1.4052728820184174e-01 5.8975542983341522e-01 0.0000000000000000e+00  1.4089244035150017e-01 6.0049531626203789e-01 0.0000000000000000e+00  1.4043324596590573e-01 6.0062545755034591e-01 0.0000000000000000e+00  1.4063743703576781e-01 6.1001839781151956e-01 0.0000000000000000e+00  1.4033176239860232e-01 6.1130795435161223e-01 0.0000000000000000e+00  1.4040340276834160e-01 6.1958846300659298e-01 0.0000000000000000e+00  1.4022405012177427e-01 6.2180227224974782e-01 0.0000000000000000e+00  1.4019026662979658e-01 6.2918973570660897e-01 0.0000000000000000e+00  1.4011227538436524e-01 6.3211353751876531e-01 0.0000000000000000e+00  1.3999709003774516e-01 6.3880207437964232e-01 0.0000000000000000e+00  1.3999963889103481e-01 6.4224740925910007e-01 0.0000000000000000e+00  1.3982333908038350e-01 6.4839512516804154e-01 0.0000000000000000e+00  1.3988881385277205e-01 6.5221830235648215e-01 0.0000000000000000e+00  1.3966496302205969e-01 6.5796593291063932e-01 0.0000000000000000e+00  1.3977919222628871e-01 6.6206787606870421e-01 0.0000000000000000e+00  1.3951921743315951e-01 6.6750278850103084e-01 0.0000000000000000e+00  1.3967579614017409e-01 6.7178666208309101e-01 0.0000000000000000e+00  1.3938816512200905e-01 6.7695913234114247e-01 0.0000000000000000e+00  1.3958019951990325e-01 6.8138754933260859e-01 0.0000000000000000e+00  1.3926608122505341e-01 6.8636103782625169e-01 0.0000000000000000e+00  1.3948951469698159e-01 6.9091295305808165e-01 0.0000000000000000e+00  1.3915270830309592e-01 6.9569673126931286e-01 0.0000000000000000e+00  1.3940745468156787e-01 7.0034207773819634e-01 0.0000000000000000e+00  1.3904829966679427e-01 7.0495764171037256e-01 0.0000000000000000e+00  1.3933220953666237e-01 7.0969363299793287e-01 0.0000000000000000e+00  1.3895234960791836e-01 7.1414757984658606e-01 0.0000000000000000e+00  1.3926488972144749e-01 7.1895674199101545e-01 0.0000000000000000e+00  1.3886273142475733e-01 7.2328803674019160e-01 0.0000000000000000e+00  1.3919926252092410e-01 7.2817916150598316e-01 0.0000000000000000e+00  1.3877950971736638e-01 7.3238401025153821e-01 0.0000000000000000e+00  1.3914394804416180e-01 7.3728298264666425e-01 0.0000000000000000e+00  1.3870819754356209e-01 7.4139485562305885e-01 0.0000000000000000e+00  1.3908823694081074e-01 7.4635342969975338e-01 0.0000000000000000e+00  1.3863593182914358e-01 7.5043283198003230e-01 0.0000000000000000e+00  1.3903702956506322e-01 7.5534637481672562e-01 0.0000000000000000e+00  1.3857913351145540e-01 7.5936192234980471e-01 0.0000000000000000e+00  1.3899029875104110e-01 7.6426167725098959e-01 0.0000000000000000e+00  1.3852133213285708e-01 7.6832007309329842e-01 0.0000000000000000e+00  1.3894336531613305e-01 7.7314054857164816e-01 0.0000000000000000e+00  1.3847461138082537e-01 7.7720292459558382e-01 0.0000000000000000e+00  1.3889877735276557e-01 7.8196550156558053e-01 0.0000000000000000e+00  1.3842875160422249e-01 7.8609206192643843e-01 0.0000000000000000e+00  1.3886007054889726e-01 7.9071188511551727e-01 0.0000000000000000e+00  1.3839360956968100e-01 7.9489944071619623e-01 0.0000000000000000e+00  1.3881376281127547e-01 7.9949865621772120e-01 0.0000000000000000e+00  1.3835380470970338e-01 8.0374908175543214e-01 0.0000000000000000e+00  1.3878323312625673e-01 8.0813439868776638e-01 0.0000000000000000e+00  1.3833056294325874e-01 8.1245782640480513e-01 0.0000000000000000e+00  1.3873561004204663e-01 8.1690023493554409e-01 0.0000000000000000e+00  1.3829720376563104e-01 8.2124616463823641e-01 0.0000000000000000e+00  1.3871026161239280e-01 8.2546836449516647e-01 0.0000000000000000e+00  1.3827887423113677e-01 8.2989991096296434e-01 0.0000000000000000e+00  1.3866283238849325e-01 8.3421453965323378e-01 0.0000000000000000e+00  1.3826049526956258e-01 8.3854398153613863e-01 0.0000000000000000e+00  1.3863606114168750e-01 8.4278065162619842e-01 0.0000000000000000e+00  1.3823646813683071e-01 8.4722464629665839e-01 0.0000000000000000e+00  1.3859731360181032e-01 8.5144217679112677e-01 0.0000000000000000e+00  1.3823865709572605e-01 8.5567313425126301e-01 0.0000000000000000e+00  1.3855365779846424e-01 8.6014027461572484e-01 0.0000000000000000e+00  1.3821253055045982e-01 8.6434822217473428e-01 0.0000000000000000e+00  1.3853943226822182e-01 8.6858601415477332e-01 0.0000000000000000e+00  1.3821371538787808e-01 8.7278176594126955e-01 0.0000000000000000e+00  1.3847300415380492e-01 8.7746695756086202e-01 0.0000000000000000e+00  1.3821815239765717e-01 8.8117580672264983e-01 0.0000000000000000e+00  1.3846444336784047e-01 8.8585678756987718e-01 0.0000000000000000e+00  1.3818725671719356e-01 8.8985558945500232e-01 0.0000000000000000e+00  1.3842669905972974e-01 8.9448836514497365e-01 0.0000000000000000e+00  1.3821333088126550e-01 8.9804354515703533e-01 0.0000000000000000e+00  1.3836438471131182e-01 9.0332338659112699e-01 0.0000000000000000e+00  1.3821392070925118e-01 9.0643387476427273e-01 0.0000000000000000e+00  1.3836342159405482e-01 9.1163839046734763e-01 0.0000000000000000e+00  1.3816990350037534e-01 9.1518809874856222e-01 0.0000000000000000e+00  1.3833989875279551e-01 9.2013960059205102e-01 0.0000000000000000e+00  1.3821795552642413e-01 9.2315521180375892e-01 0.0000000000000000e+00  1.3824342500779005e-01 9.2925175181535691e-01 0.0000000000000000e+00  1.3823403193106790e-01 9.3137983086179466e-01 0.0000000000000000e+00  1.3826261086089575e-01 9.3738609984220811e-01 0.0000000000000000e+00  1.3815600918673077e-01 9.4038641210240503e-01 0.0000000000000000e+00  1.3827886106573350e-01 9.4554055547930083e-01 0.0000000000000000e+00  1.3816633764697586e-01 9.4863836950872782e-01 0.0000000000000000e+00  1.3818536205347132e-01 9.5461494825072835e-01 0.0000000000000000e+00  1.3825218907686879e-01 9.5624361158547300e-01 0.0000000000000000e+00  1.3810136573133577e-01 9.6360495884507524e-01 0.0000000000000000e+00  1.3822539174052081e-01 9.6478782625082038e-01 0.0000000000000000e+00  1.3819668326575349e-01 9.7107962575066931e-01 0.0000000000000000e+00  1.3805403467607028e-01 9.7454099171440212e-01 0.0000000000000000e+00  1.3830876500024306e-01 9.7840715868134054e-01 0.0000000000000000e+00  1.3801168884572584e-01 9.8319844121654687e-01 0.0000000000000000e+00  1.3820519501267362e-01 9.8754615078169616e-01 0.0000000000000000e+00  1.3819502185232782e-01 9.8994496117665753e-01 0.0000000000000000e+00  1.3791198386485681e-01 9.9827815870449776e-01 0.0000000000000000e+00  1.3850422985803690e-01 9.9562083994446426e-01 0.0000000000000000e+00  1.3757678894828154e-01 1.0093596022557185e+00 0.0000000000000000e+00  1.3875280758865532e-01 1.0017978267656373e+00 0.0000000000000000e+00  1.3738688318741527e-01 1.0192124318738001e+00 0.0000000000000000e+00  1.3882104956002117e-01 1.0094857416196357e+00 0.0000000000000000e+00  1.3736118588411950e-01 1.0276762068979535e+00 0.0000000000000000e+00  1.3876927086562524e-01 1.0181770880339849e+00 0.0000000000000000e+00  1.3742058043267250e-01 1.0354168510373387e+00 0.0000000000000000e+00  1.3865424011379518e-01 1.0273938474019313e+00 0.0000000000000000e+00  1.3752704529033316e-01 1.0427542316410705e+00 0.0000000000000000e+00  1.3851801656462992e-01 1.0367821034329374e+00 0.0000000000000000e+00  1.3762315615694037e-01 1.0501720793667688e+00 0.0000000000000000e+00  1.3841468980940308e-01 1.0458864084309143e+00 0.0000000000000000e+00  1.3767999226619668e-01 1.0579141890679700e+00 0.0000000000000000e+00  1.3833906015198369e-01 1.0547507284072450e+00 0.0000000000000000e+00  1.3772309087274412e-01 1.0657651833630923e+00 0.0000000000000000e+00  1.3826863642911866e-01 1.0635648261250523e+00 0.0000000000000000e+00  1.3775829415110769e-01 1.0736756357359118e+00 0.0000000000000000e+00  1.3821283777555909e-01 1.0722495131036223e+00 0.0000000000000000e+00  1.3777238752453466e-01 1.0817569966507010e+00 0.0000000000000000e+00  1.3817698800021339e-01 1.0807600626094216e+00 0.0000000000000000e+00  1.3777170066819483e-01 1.0899561247425233e+00 0.0000000000000000e+00  1.3814710284777068e-01 1.0892145639289867e+00 0.0000000000000000e+00  1.3777087417392342e-01 1.0981497637536357e+00 0.0000000000000000e+00  1.3811402455095914e-01 1.0976904257257196e+00 0.0000000000000000e+00  1.3777176063478752e-01 1.1063223121302204e+00 0.0000000000000000e+00  1.3808166626412843e-01 1.1061546783342244e+00 0.0000000000000000e+00  1.3776774264009098e-01 1.1145293873940536e+00 0.0000000000000000e+00  1.3805603285787466e-01 1.1145564702357560e+00 0.0000000000000000e+00  1.3775499197312710e-01 1.1228029093583709e+00 0.0000000000000000e+00  1.3803800583511014e-01 1.1228880356735857e+00 0.0000000000000000e+00  1.3773484967426211e-01 1.1311311258898193e+00 0.0000000000000000e+00  1.3802470346587636e-01 1.1311734445559691e+00 0.0000000000000000e+00  1.3771064365424904e-01 1.1394855898766370e+00 0.0000000000000000e+00  1.3801298248528726e-01 1.1394392415733656e+00 0.0000000000000000e+00  1.3768477058082593e-01 1.1478458753922758e+00 0.0000000000000000e+00  1.3800129921078885e-01 1.1476987968202788e+00 0.0000000000000000e+00  1.3765787423206685e-01 1.1562065279682920e+00 0.0000000000000000e+00  1.3799003948425453e-01 1.1559494491576718e+00 0.0000000000000000e+00  1.3762812670166508e-01 1.1645830713233396e+00 0.0000000000000000e+00  1.3798383703787762e-01 1.1641528041479567e+00 0.0000000000000000e+00  1.3758516024616413e-01 1.1730631407629661e+00 0.0000000000000000e+00  1.3800457644029837e-01 1.1721248797122845e+00 0.0000000000000000e+00  1.3748931636166173e-01 1.1819816838034347e+00 0.0000000000000000e+00  1.3811709118249546e-01 1.1793191732934298e+00 0.0000000000000000e+00  1.3725226837900778e-01 1.1920851844694593e+00 0.0000000000000000e+00  1.3842698285894536e-01 1.1848453304839681e+00 0.0000000000000000e+00  1.3678917193845155e-01 1.2040930395288134e+00 0.0000000000000000e+00  1.3895750029896922e-01 1.1885082873756907e+00 0.0000000000000000e+00  1.3619907646701290e-01 1.2171730754670071e+00 0.0000000000000000e+00  1.3944944382203245e-01 1.1924924840085500e+00 0.0000000000000000e+00  1.3585210851845023e-01 1.2281955413372303e+00 0.0000000000000000e+00  1.3947659382941696e-01 1.2003852906297234e+00 0.0000000000000000e+00  1.3602558634894490e-01 1.2348074368516462e+00 0.0000000000000000e+00  1.3905590872090115e-01 1.2120458038164428e+00 0.0000000000000000e+00  1.3639284228253304e-01 1.2397701683766371e+00 0.0000000000000000e+00  1.3873396188882242e-01 1.2228732843337953e+00 0.0000000000000000e+00  1.3652733687107424e-01 1.2466937546239156e+00 0.0000000000000000e+00  1.3861371520923119e-01 1.2319968790876523e+00 0.0000000000000000e+00  1.3663037139098708e-01 1.2538771631423238e+00 0.0000000000000000e+00  1.3838320653148820e-01 1.2420446171678512e+00 0.0000000000000000e+00  1.3686678252435749e-01 1.2599265612736901e+00 0.0000000000000000e+00  1.3806979677830009e-01 1.2527868440117671e+00 0.0000000000000000e+00  1.3715330039680379e-01 1.2655469338342904e+00 0.0000000000000000e+00  1.3765589883000717e-01 1.2643729125587251e+00 0.0000000000000000e+00  1.3765472456043801e-01 1.2693477379778342e+00 0.0000000000000000e+00  1.3689764662672144e-01 1.2788672703946102e+00 0.0000000000000000e+00  1.3862316548881207e-01 1.2692070769510153e+00 0.0000000000000000e+00  1.3557171099891671e-01 1.2981787580863984e+00 0.0000000000000000e+00  1.4030119562772275e-01 1.2631037968689403e+00 0.0000000000000000e+00  1.3347771933608263e-01 1.3240580913127631e+00 0.0000000000000000e+00  1.4285615635246862e-01 1.2496846986380803e+00 0.0000000000000000e+00  1.3065375035245305e-01 1.3562780062825719e+00 0.0000000000000000e+00  1.4604485621191982e-01 1.2310570360978692e+00 0.0000000000000000e+00  1.2765355133528347e-01 1.3901951794946701e+00 0.0000000000000000e+00  1.489250