<?xml version="1.0"?>
<VTKFile type="UnstructuredGrid"  version="0.1"  >
<UnstructuredGrid>
<Piece  NumberOfPoints="801" NumberOfCells="800">
<Points>
<DataArray  type="Float64"  NumberOfComponents="3"  format="ascii">-5 0 0  -4.9875 0 0  -4.975 0 0  -4.9625 0 0  -4.95 0 0  -4.9375 0 0  -4.925 0 0  -4.9125 0 0  -4.9 0 0  -4.8875 0 0  -4.875 0 0  -4.8625 0 0  -4.85 0 0  -4.8375 0 0  -4.825 0 0  -4.8125 0 0  -4.8 0 0  -4.7875 0 0  -4.775 0 0  -4.7625 0 0  -4.75 0 0  -4.7375 0 0  -4.725 0 0  -4.7125 0 0  -4.7 0 0  -4.6875 0 0  -4.675 0 0  -4.6625 0 0  -4.65 0 0  -4.6375 0 0  -4.625 0 0  -4.6125 0 0  -4.6 0 0  -4.5875 0 0  -4.575 0 0  -4.5625 0 0  -4.55 0 0  -4.5375 0 0  -4.525 0 0  -4.5125 0 0  -4.5 0 0  -4.4875 0 0  -4.475 0 0  -4.4625 0 0  -4.45 0 0  -4.4375 0 0  -4.425 0 0  -4.4125 0 0  -4.4 0 0  -4.3875 0 0  -4.375 0 0  -4.3625 0 0  -4.35 0 0  -4.3375 0 0  -4.325 0 0  -4.3125 0 0  -4.3 0 0  -4.2875 0 0  -4.275 0 0  -4.2625 0 0  -4.25 0 0  -4.2375 0 0  -4.225 0 0  -4.2125 0 0  -4.2 0 0  -4.1875 0 0  -4.175 0 0  -4.1625 0 0  -4.15 0 0  -4.1375 0 0  -4.125 0 0  -4.1125 0 0  -4.1 0 0  -4.0875 0 0  -4.075 0 0  -4.0625 0 0  -4.05 0 0  -4.0375 0 0  -4.025 0 0  -4.0125 0 0  -4 0 0  -3.9875 0 0  -3.975 0 0  -3.9625 0 0  -3.95 0 0  -3.9375 0 0  -3.925 0 0  -3.9125 0 0  -3.9 0 0  -3.8875 0 0  -3.875 0 0  -3.8625 0 0  -3.85 0 0  -3.8375 0 0  -3.825 0 0  -3.8125 0 0  -3.8 0 0  -3.7875 0 0  -3.775 0 0  -3.7625 0 0  -3.75 0 0  -3.7375 0 0  -3.725 0 0  -3.7125 0 0  -3.7 0 0  -3.6875 0 0  -3.675 0 0  -3.6625 0 0  -3.65 0 0  -3.6375 0 0  -3.625 0 0  -3.6125 0 0  -3.6 0 0  -3.5875 0 0  -3.575 0 0  -3.5625 0 0  -3.55 0 0  -3.5375 0 0  -3.525 0 0  -3.5125 0 0  -3.5 0 0  -3.4875 0 0  -3.475 0 0  -3.4625 0 0  -3.45 0 0  -3.4375 0 0  -3.425 0 0  -3.4125 0 0  -3.4 0 0  -3.3875 0 0  -3.375 0 0  -3.3625 0 0  -3.35 0 0  -3.3375 0 0  -3.325 0 0  -3.3125 0 0  -3.3 0 0  -3.2875 0 0  -3.275 0 0  -3.2625 0 0  -3.25 0 0  -3.2375 0 0  -3.225 0 0  -3.2125 0 0  -3.2 0 0  -3.1875 0 0  -3.175 0 0  -3.1625 0 0  -3.15 0 0  -3.1375 0 0  -3.125 0 0  -3.1125 0 0  -3.1 0 0  -3.0875 0 0  -3.075 0 0  -3.0625 0 0  -3.05 0 0  -3.0375 0 0  -3.025 0 0  -3.0125 0 0  -3 0 0  -2.9875 0 0  -2.975 0 0  -2.9625 0 0  -2.95 0 0  -2.9375 0 0  -2.925 0 0  -2.9125 0 0  -2.9 0 0  -2.8875 0 0  -2.875 0 0  -2.8625 0 0  -2.85 0 0  -2.8375 0 0  -2.825 0 0  -2.8125 0 0  -2.8 0 0  -2.7875 0 0  -2.775 0 0  -2.7625 0 0  -2.75 0 0  -2.7375 0 0  -2.725 0 0  -2.7125 0 0  -2.7 0 0  -2.6875 0 0  -2.675 0 0  -2.6625 0 0  -2.65 0 0  -2.6375 0 0  -2.625 0 0  -2.6125 0 0  -2.6 0 0  -2.5875 0 0  -2.575 0 0  -2.5625 0 0  -2.55 0 0  -2.5375 0 0  -2.525 0 0  -2.5125 0 0  -2.5 0 0  -2.4875 0 0  -2.475 0 0  -2.4625 0 0  -2.45 0 0  -2.4375 0 0  -2.425 0 0  -2.4125 0 0  -2.4 0 0  -2.3875 0 0  -2.375 0 0  -2.3625 0 0  -2.35 0 0  -2.3375 0 0  -2.325 0 0  -2.3125 0 0  -2.3 0 0  -2.2875 0 0  -2.275 0 0  -2.2625 0 0  -2.25 0 0  -2.2375 0 0  -2.225 0 0  -2.2125 0 0  -2.2 0 0  -2.1875 0 0  -2.175 0 0  -2.1625 0 0  -2.15 0 0  -2.1375 0 0  -2.125 0 0  -2.1125 0 0  -2.1 0 0  -2.0875 0 0  -2.075 0 0  -2.0625 0 0  -2.05 0 0  -2.0375 0 0  -2.025 0 0  -2.0125 0 0  -2 0 0  -1.9875 0 0  -1.975 0 0  -1.9625 0 0  -1.95 0 0  -1.9375 0 0  -1.925 0 0  -1.9125 0 0  -1.9 0 0  -1.8875 0 0  -1.875 0 0  -1.8625 0 0  -1.85 0 0  -1.8375 0 0  -1.825 0 0  -1.8125 0 0  -1.8 0 0  -1.7875 0 0  -1.775 0 0  -1.7625 0 0  -1.75 0 0  -1.7375 0 0  -1.725 0 0  -1.7125 0 0  -1.7 0 0  -1.6875 0 0  -1.675 0 0  -1.6625 0 0  -1.65 0 0  -1.6375 0 0  -1.625 0 0  -1.6125 0 0  -1.6 0 0  -1.5875 0 0  -1.575 0 0  -1.5625 0 0  -1.55 0 0  -1.5375 0 0  -1.525 0 0  -1.5125 0 0  -1.5 0 0  -1.4875 0 0  -1.475 0 0  -1.4625 0 0  -1.45 0 0  -1.4375 0 0  -1.425 0 0  -1.4125 0 0  -1.4 0 0  -1.3875 0 0  -1.375 0 0  -1.3625 0 0  -1.35 0 0  -1.3375 0 0  -1.325 0 0  -1.3125 0 0  -1.3 0 0  -1.2875 0 0  -1.275 0 0  -1.2625 0 0  -1.25 0 0  -1.2375 0 0  -1.225 0 0  -1.2125 0 0  -1.2 0 0  -1.1875 0 0  -1.175 0 0  -1.1625 0 0  -1.15 0 0  -1.1375 0 0  -1.125 0 0  -1.1125 0 0  -1.1 0 0  -1.0875 0 0  -1.075 0 0  -1.0625 0 0  -1.05 0 0  -1.0375 0 0  -1.025 0 0  -1.0125 0 0  -1 0 0  -0.9874999999999998 0 0  -0.9749999999999996 0 0  -0.9625000000000004 0 0  -0.9500000000000002 0 0  -0.9375 0 0  -0.9249999999999998 0 0  -0.9124999999999996 0 0  -0.9000000000000004 0 0  -0.8875000000000002 0 0  -0.875 0 0  -0.8624999999999998 0 0  -0.8499999999999996 0 0  -0.8375000000000004 0 0  -0.8250000000000002 0 0  -0.8125 0 0  -0.7999999999999998 0 0  -0.7874999999999996 0 0  -0.7750000000000004 0 0  -0.7625000000000002 0 0  -0.75 0 0  -0.7374999999999998 0 0  -0.7249999999999996 0 0  -0.7125000000000004 0 0  -0.7000000000000002 0 0  -0.6875 0 0  -0.6749999999999998 0 0  -0.6624999999999996 0 0  -0.6500000000000004 0 0  -0.6375000000000002 0 0  -0.625 0 0  -0.6124999999999998 0 0  -0.5999999999999996 0 0  -0.5875000000000004 0 0  -0.5750000000000002 0 0  -0.5625 0 0  -0.5499999999999998 0 0  -0.5374999999999996 0 0  -0.5250000000000004 0 0  -0.5125000000000002 0 0  -0.5 0 0  -0.4874999999999998 0 0  -0.4749999999999996 0 0  -0.4625000000000004 0 0  -0.4500000000000002 0 0  -0.4375 0 0  -0.4249999999999998 0 0  -0.4124999999999996 0 0  -0.4000000000000004 0 0  -0.3875000000000002 0 0  -0.375 0 0  -0.3624999999999998 0 0  -0.3499999999999996 0 0  -0.3375000000000004 0 0  -0.3250000000000002 0 0  -0.3125 0 0  -0.2999999999999998 0 0  -0.2874999999999996 0 0  -0.2750000000000004 0 0  -0.2625000000000002 0 0  -0.25 0 0  -0.2374999999999998 0 0  -0.2249999999999996 0 0  -0.2125000000000004 0 0  -0.2000000000000002 0 0  -0.1875 0 0  -0.1749999999999998 0 0  -0.1624999999999996 0 0  -0.1500000000000004 0 0  -0.1375000000000002 0 0  -0.125 0 0  -0.1124999999999998 0 0  -0.09999999999999964 0 0  -0.08750000000000036 0 0  -0.07500000000000018 0 0  -0.0625 0 0  -0.04999999999999982 0 0  -0.03749999999999964 0 0  -0.02500000000000036 0 0  -0.01250000000000018 0 0  0 0 0  0.01250000000000018 0 0  0.02500000000000036 0 0  0.03749999999999964 0 0  0.04999999999999982 0 0  0.0625 0 0  0.07500000000000018 0 0  0.08750000000000036 0 0  0.09999999999999964 0 0  0.1124999999999998 0 0  0.125 0 0  0.1375000000000002 0 0  0.1500000000000004 0 0  0.1624999999999996 0 0  0.1749999999999998 0 0  0.1875 0 0  0.2000000000000002 0 0  0.2125000000000004 0 0  0.2249999999999996 0 0  0.2374999999999998 0 0  0.25 0 0  0.2625000000000002 0 0  0.2750000000000004 0 0  0.2874999999999996 0 0  0.2999999999999998 0 0  0.3125 0 0  0.3250000000000002 0 0  0.3375000000000004 0 0  0.3499999999999996 0 0  0.3624999999999998 0 0  0.375 0 0  0.3875000000000002 0 0  0.4000000000000004 0 0  0.4124999999999996 0 0  0.4249999999999998 0 0  0.4375 0 0  0.4500000000000002 0 0  0.4625000000000004 0 0  0.4749999999999996 0 0  0.4874999999999998 0 0  0.5 0 0  0.5125000000000002 0 0  0.5250000000000004 0 0  0.5374999999999996 0 0  0.5499999999999998 0 0  0.5625 0 0  0.5750000000000002 0 0  0.5875000000000004 0 0  0.5999999999999996 0 0  0.6124999999999998 0 0  0.625 0 0  0.6375000000000002 0 0  0.6500000000000004 0 0  0.6624999999999996 0 0  0.6749999999999998 0 0  0.6875 0 0  0.7000000000000002 0 0  0.7125000000000004 0 0  0.7249999999999996 0 0  0.7374999999999998 0 0  0.75 0 0  0.7625000000000002 0 0  0.7750000000000004 0 0  0.7874999999999996 0 0  0.7999999999999998 0 0  0.8125 0 0  0.8250000000000002 0 0  0.8375000000000004 0 0  0.8499999999999996 0 0  0.8624999999999998 0 0  0.875 0 0  0.8875000000000002 0 0  0.9000000000000004 0 0  0.9124999999999996 0 0  0.9249999999999998 0 0  0.9375 0 0  0.9500000000000002 0 0  0.9625000000000004 0 0  0.9749999999999996 0 0  0.9874999999999998 0 0  1 0 0  1.0125 0 0  1.025 0 0  1.0375 0 0  1.05 0 0  1.0625 0 0  1.075 0 0  1.0875 0 0  1.1 0 0  1.1125 0 0  1.125 0 0  1.1375 0 0  1.15 0 0  1.1625 0 0  1.175 0 0  1.1875 0 0  1.2 0 0  1.2125 0 0  1.225 0 0  1.2375 0 0  1.25 0 0  1.2625 0 0  1.275 0 0  1.2875 0 0  1.3 0 0  1.3125 0 0  1.325 0 0  1.3375 0 0  1.35 0 0  1.3625 0 0  1.375 0 0  1.3875 0 0  1.4 0 0  1.4125 0 0  1.425 0 0  1.4375 0 0  1.45 0 0  1.4625 0 0  1.475 0 0  1.4875 0 0  1.5 0 0  1.5125 0 0  1.525 0 0  1.5375 0 0  1.55 0 0  1.5625 0 0  1.575 0 0  1.5875 0 0  1.6 0 0  1.6125 0 0  1.625 0 0  1.6375 0 0  1.65 0 0  1.6625 0 0  1.675 0 0  1.6875 0 0  1.7 0 0  1.7125 0 0  1.725 0 0  1.7375 0 0  1.75 0 0  1.7625 0 0  1.775 0 0  1.7875 0 0  1.8 0 0  1.8125 0 0  1.825 0 0  1.8375 0 0  1.85 0 0  1.8625 0 0  1.875 0 0  1.8875 0 0  1.9 0 0  1.9125 0 0  1.925 0 0  1.9375 0 0  1.95 0 0  1.9625 0 0  1.975 0 0  1.9875 0 0  2 0 0  2.0125 0 0  2.025 0 0  2.0375 0 0  2.05 0 0  2.0625 0 0  2.075 0 0  2.0875 0 0  2.1 0 0  2.1125 0 0  2.125 0 0  2.1375 0 0  2.15 0 0  2.1625 0 0  2.175 0 0  2.1875 0 0  2.2 0 0  2.2125 0 0  2.225 0 0  2.2375 0 0  2.25 0 0  2.2625 0 0  2.275 0 0  2.2875 0 0  2.3 0 0  2.3125 0 0  2.325 0 0  2.3375 0 0  2.35 0 0  2.3625 0 0  2.375 0 0  2.3875 0 0  2.4 0 0  2.4125 0 0  2.425 0 0  2.4375 0 0  2.45 0 0  2.4625 0 0  2.475 0 0  2.4875 0 0  2.5 0 0  2.5125 0 0  2.525 0 0  2.5375 0 0  2.55 0 0  2.5625 0 0  2.575 0 0  2.5875 0 0  2.6 0 0  2.6125 0 0  2.625 0 0  2.6375 0 0  2.65 0 0  2.6625 0 0  2.675 0 0  2.6875 0 0  2.7 0 0  2.7125 0 0  2.725 0 0  2.7375 0 0  2.75 0 0  2.7625 0 0  2.775 0 0  2.7875 0 0  2.8 0 0  2.8125 0 0  2.825 0 0  2.8375 0 0  2.85 0 0  2.8625 0 0  2.875 0 0  2.8875 0 0  2.9 0 0  2.9125 0 0  2.925 0 0  2.9375 0 0  2.95 0 0  2.9625 0 0  2.975 0 0  2.9875 0 0  3 0 0  3.012499999999999 0 0  3.025 0 0  3.0375 0 0  3.050000000000001 0 0  3.0625 0 0  3.074999999999999 0 0  3.0875 0 0  3.1 0 0  3.112500000000001 0 0  3.125 0 0  3.137499999999999 0 0  3.15 0 0  3.1625 0 0  3.175000000000001 0 0  3.1875 0 0  3.199999999999999 0 0  3.2125 0 0  3.225 0 0  3.237500000000001 0 0  3.25 0 0  3.262499999999999 0 0  3.275 0 0  3.2875 0 0  3.300000000000001 0 0  3.3125 0 0  3.324999999999999 0 0  3.3375 0 0  3.35 0 0  3.362500000000001 0 0  3.375 0 0  3.387499999999999 0 0  3.4 0 0  3.4125 0 0  3.425000000000001 0 0  3.4375 0 0  3.449999999999999 0 0  3.4625 0 0  3.475 0 0  3.4875
[...]
<PointData  Vectors="(h, u)"> 
<DataArray  type="Float64"  Name="(h, u)"  NumberOfComponents="3" format="ascii">1.6794589304626154e-01 0.0000000000000000e+00 0.0000000000000000e+00  1.6764225384805412e-01 5.3539002036739145e-03 0.0000000000000000e+00  1.6794425020601308e-01 1.0792517607413347e-02 0.0000000000000000e+00  1.6763766511845249e-01 1.6061930728433281e-02 0.0000000000000000e+00  1.6793933334785213e-01 2.1585791427864594e-02 0.0000000000000000e+00  1.6762850662627535e-01 2.6770681058611617e-02 0.0000000000000000e+00  1.6793114156610342e-01 3.2380578745440841e-02 0.0000000000000000e+00  1.6761477146288875e-01 3.7480738737693142e-02 0.0000000000000000e+00  1.6791964310618201e-01 4.3177622594140153e-02 0.0000000000000000e+00  1.6759644898535198e-01 4.8192733527093239e-02 0.0000000000000000e+00  1.6790482290118547e-01 5.3977530131411426e-02 0.0000000000000000e+00  1.6757356000356019e-01 5.8907249531313002e-02 0.0000000000000000e+00  1.6788667745305419e-01 6.4780842366619448e-02 0.0000000000000000e+00  1.6754611228539990e-01 6.9624988339327898e-02 0.0000000000000000e+00  1.6786516481927127e-01 7.5588253403759520e-02 0.0000000000000000e+00  1.6751408499356693e-01 8.0346767056063112e-02 0.0000000000000000e+00  1.6784023893550490e-01 8.6400431178664985e-02 0.0000000000000000e+00  1.6747748828127823e-01 9.1073188792904672e-02 0.0000000000000000e+00  1.6781188699845165e-01 9.7217871166111983e-02 0.0000000000000000e+00  1.6743634407642352e-01 1.0180480133538382e-01 0.0000000000000000e+00  1.6778006510867702e-01 1.0804129893454786e-01 0.0000000000000000e+00  1.6739062510517416e-01 1.1254245154603919e-01 0.0000000000000000e+00  1.6774469476662862e-01 1.1887160785622522e-01 0.0000000000000000e+00  1.6734031649997277e-01 1.2328685929678793e-01 0.0000000000000000e+00  1.6770574458172069e-01 1.2970929215706639e-01 0.0000000000000000e+00  1.6728544772926296e-01 1.3403848776100016e-01 0.0000000000000000e+00  1.6766317783738846e-01 1.4055484720962899e-01 0.0000000000000000e+00  1.6722599231912225e-01 1.4479829222477000e-01 0.0000000000000000e+00  1.6761688487195742e-01 1.5140919347359122e-01 0.0000000000000000e+00  1.6716190032065012e-01 1.5556742637158777e-01 0.0000000000000000e+00  1.6756679620541920e-01 1.6227280790342857e-01 0.0000000000000000e+00  1.6709320489735813e-01 1.6634646450152768e-01 0.0000000000000000e+00  1.6751288192185543e-01 1.7314580454462422e-01 0.0000000000000000e+00  1.6701990127979283e-01 1.7713633390732045e-01 0.0000000000000000e+00  1.6745500295786131e-01 1.8402909233127090e-01 0.0000000000000000e+00  1.6694189985349261e-01 1.8793859696931495e-01 0.0000000000000000e+00  1.6739302919003810e-01 1.9492346669817459e-01 0.0000000000000000e+00  1.6685921827407674e-01 1.9875393247956724e-01 0.0000000000000000e+00  1.6732694771679965e-01 2.0582883181263353e-01 0.0000000000000000e+00  1.6677188149646174e-01 2.0958291329553733e-01 0.0000000000000000e+00  1.6725662477502404e-01 2.1674607099489865e-01 0.0000000000000000e+00  1.6667973685904280e-01 2.2042741884975381e-01 0.0000000000000000e+00  1.6718186457485432e-01 2.2767657827138699e-01 0.0000000000000000e+00  1.6658273707836924e-01 2.3128844848127658e-01 0.0000000000000000e+00  1.6710268657750288e-01 2.3862010489373406e-01 0.0000000000000000e+00  1.6648094738200500e-01 2.4216608938679351e-01 0.0000000000000000e+00  1.6701900339552300e-01 2.4957722607828930e-01 0.0000000000000000e+00  1.6637415281148993e-01 2.5306257118415759e-01 0.0000000000000000e+00  1.6693051775166198e-01 2.6055011952242996e-01 0.0000000000000000e+00  1.6626220596820768e-01 2.6397961794608837e-01 0.0000000000000000e+00  1.6683725583984996e-01 2.7153844488162349e-01 0.0000000000000000e+00  1.6614526066947224e-01 2.7491666020743882e-01 0.0000000000000000e+00  1.6673920891825036e-01 2.8254207568592338e-01 0.0000000000000000e+00  1.6602306596242389e-01 2.8587626799638161e-01 0.0000000000000000e+00  1.6663592010337472e-01 2.9356426980712635e-01 0.0000000000000000e+00  1.6589531766168211e-01 2.9686147309717398e-01 0.0000000000000000e+00  1.6652739695362689e-01 3.0460466260180569e-01 0.0000000000000000e+00  1.6576231203758690e-01 3.0787075769816957e-01 0.0000000000000000e+00  1.6641378382006428e-01 3.1566177087302810e-01 0.0000000000000000e+00  1.6562377362206190e-01 3.1890705540608788e-01 0.0000000000000000e+00  1.6629438839264007e-01 3.2674045729479728e-01 0.0000000000000000e+00  1.6547913778339857e-01 3.2997559045461389e-01 0.0000000000000000e+00  1.6616918327162639e-01 3.3784038843639197e-01 0.0000000000000000e+00  1.6532894454003100e-01 3.4107319502099409e-01 0.0000000000000000e+00  1.6603858296719179e-01 3.4895772542607678e-01 0.0000000000000000e+00  1.6517289877902788e-01 3.5220327015963732e-01 0.0000000000000000e+00  1.6590149618544131e-01 3.6010001818352472e-01 0.0000000000000000e+00  1.6501002935987760e-01 3.6337465807243957e-01 0.0000000000000000e+00  1.6575785250103861e-01 3.7126662720194720e-01 0.0000000000000000e+00  1.6484136597912283e-01 3.7458122621606171e-01 0.0000000000000000e+00  1.6560848525655350e-01 3.8244942632524892e-01 0.0000000000000000e+00  1.6466659117401242e-01 3.8582788421386283e-01 0.0000000000000000e+00  1.6545151507719036e-01 3.9366039096783401e-01 0.0000000000000000e+00  1.6448417560109047e-01 3.9712978756578715e-01 0.0000000000000000e+00  1.6528685716559119e-01 4.0489664993864588e-01 0.0000000000000000e+00  1.6429619478443666e-01 4.0847538479475798e-01 0.0000000000000000e+00  1.6511593229768382e-01 4.1614265708231957e-01 0.0000000000000000e+00  1.6410215271001605e-01 4.1987396309338687e-01 0.0000000000000000e+00  1.6493537842907885e-01 4.2741892290118710e-01 0.0000000000000000e+00  1.6389970390085798e-01 4.3134963394141679e-01 0.0000000000000000e+00  1.6474559015695239e-01 4.3871679575965289e-01 0.0000000000000000e+00  1.6369273684504002e-01 4.4287804044385481e-01 0.0000000000000000e+00  1.6454904552994853e-01 4.5001253585923484e-01 0.0000000000000000e+00  1.6347951289456661e-01 4.5447656145230358e-01 0.0000000000000000e+00  1.6434019558280566e-01 4.6134698450371853e-01 0.0000000000000000e+00  1.6325622552964505e-01 4.6617511197599693e-01 0.0000000000000000e+00  1.6412184611868652e-01 4.7270069733516390e-01 0.0000000000000000e+00  1.6302931748513452e-01 4.7791918089877067e-01 0.0000000000000000e+00  1.6389823540343645e-01 4.8404910907150855e-01 0.0000000000000000e+00  1.6279303229489139e-01 4.8974206137912873e-01 0.0000000000000000e+00  1.6366083907950438e-01 4.9547353204337036e-01 0.0000000000000000e+00  1.6254205313163533e-01 5.0166636546096210e-01 0.0000000000000000e+00  1.6341859179975746e-01 5.0692719408141684e-01 0.0000000000000000e+00  1.6228672560109686e-01 5.1358651982793901e-01 0.0000000000000000e+00  1.6317630609330611e-01 5.1840148154045140e-01 0.0000000000000000e+00  1.6201311071745483e-01 5.2558003023199107e-01 0.0000000000000000e+00  1.6292083822035344e-01 5.3003108955621880e-01 0.0000000000000000e+00  1.6171824475835894e-01 5.3763692652082751e-01 0.0000000000000000e+00  1.6267212855283295e-01 5.4169420992368056e-01 0.0000000000000000e+00  1.6141855532564803e-01 5.4959813256030166e-01 0.0000000000000000e+00  1.6242870981168983e-01 5.5343195859441452e-01 0.0000000000000000e+00  1.6108704524783177e-01 5.6164760480605491e-01 0.0000000000000000e+00  1.6217207207445594e-01 5.6541043673630575e-01 0.0000000000000000e+00  1.6073460693395794e-01 5.7368427782315046e-01 0.0000000000000000e+00  1.6193879434933350e-01 5.7735532089998820e-01 0.0000000000000000e+00  1.6038199201520748e-01 5.8554282169165184e-01 0.0000000000000000e+00  1.6170589737636873e-01 5.8944306629617460e-01 0.0000000000000000e+00  1.5998452820181847e-01 5.9758185826965393e-01 0.0000000000000000e+00  1.6145829834263128e-01 6.0177413068522212e-01 0.0000000000000000e+00  1.5958731412933316e-01 6.0947402179495425e-01 0.0000000000000000e+00  1.6125209793642645e-01 6.1387984274280616e-01 0.0000000000000000e+00  1.5919691417424062e-01 6.2120415321434830e-01 0.0000000000000000e+00  1.6102031612408549e-01 6.2624374024503826e-01 0.0000000000000000e+00  1.5875581255979329e-01 6.3326638223902865e-01 0.0000000000000000e+00  1.6078488161875443e-01 6.3864766169324150e-01 0.0000000000000000e+00  1.5836560200771449e-01 6.4491326650799419e-01 0.0000000000000000e+00  1.6060121448296405e-01 6.5061073024691607e-01 0.0000000000000000e+00  1.5796751876640225e-01 6.5665075265554906e-01 0.0000000000000000e+00  1.6034629789849053e-01 6.6305508364909116e-01 0.0000000000000000e+00  1.5754017740441031e-01 6.6868601250469240e-01 0.0000000000000000e+00  1.6014315681083888e-01 6.7498070371687213e-01 0.0000000000000000e+00  1.5722278458792713e-01 6.7995495870413514e-01 0.0000000000000000e+00  1.5995365827516153e-01 6.8666476453304237e-01 0.0000000000000000e+00  1.5683056914085794e-01 6.9192713581919341e-01 0.0000000000000000e+00  1.5967977256845123e-01 6.9886636540425473e-01 0.0000000000000000e+00  1.5651496626402264e-01 7.0341699248235678e-01 0.0000000000000000e+00  1.5954652008184225e-01 7.0981449232166471e-01 0.0000000000000000e+00  1.5626487141745041e-01 7.1450835416412672e-01 0.0000000000000000e+00  1.5928360035325589e-01 7.2164555302595823e-01 0.0000000000000000e+00  1.5591602050549955e-01 7.2648567365125583e-01 0.0000000000000000e+00  1.5910325854866786e-01 7.3269752811150968e-01 0.0000000000000000e+00  1.5579237472029955e-01 7.3678197662561729e-01 0.0000000000000000e+00  1.5894794103186199e-01 7.4343701553116315e-01 0.0000000000000000e+00  1.5548771786416332e-01 7.4859382793749329e-01 0.0000000000000000e+00  1.5867104321954112e-01 7.5502753000436218e-01 0.0000000000000000e+00  1.5539684417983191e-01 7.5879751222957692e-01 0.0000000000000000e+00  1.5862152393691942e-01 7.6471564717653839e-01 0.0000000000000000e+00  1.5522158597756433e-01 7.6975440271466911e-01 0.0000000000000000e+00  1.5827768852176924e-01 7.7661511368815295e-01 0.0000000000000000e+00  1.5510809187673941e-01 7.8031845786569332e-01 0.0000000000000000e+00  1.5827567714458221e-01 7.8568139712277507e-01 0.0000000000000000e+00  1.5508803093808851e-01 7.9026314688007837e-01 0.0000000000000000e+00  1.5789636279489491e-01 7.9757692192642771e-01 0.0000000000000000e+00  1.5495848073451640e-01 8.0121961220358517e-01 0.0000000000000000e+00  1.5789943997670444e-01 8.0626008216137124e-01 0.0000000000000000e+00  1.5508003995636055e-01 8.1036983078675939e-01 0.0000000000000000e+00  1.5746960398714313e-01 8.1814966858869320e-01 0.0000000000000000e+00  1.5497407575105812e-01 8.2153480393964329e-01 0.0000000000000000e+00  1.5747861351928666e-01 8.2631171431158956e-01 0.0000000000000000e+00  1.5520054132635283e-01 8.3031161063740089e-01 0.0000000000000000e+00  1.5694518985389810e-01 8.3849377654447477e-01 0.0000000000000000e+00  1.5517904315566342e-01 8.4130955497074567e-01 0.0000000000000000e+00  1.5700083278610918e-01 8.4572770296693511e-01 0.0000000000000000e+00  1.5541739909157121e-01 8.5050430570250013e-01 0.0000000000000000e+00  1.5632261026246591e-01 8.5851595931855518e-01 0.0000000000000000e+00  1.5558834997102786e-01 8.6044151538392333e-01 0.0000000000000000e+00  1.5644767100236159e-01 8.6473468828961375e-01 0.0000000000000000e+00  1.5564655625601639e-01 8.7141612728382101e-01 0.0000000000000000e+00  1.5571282951894452e-01 8.7766622536302397e-01 0.0000000000000000e+00  1.5616155346093155e-01 8.7877706162283620e-01 0.0000000000000000e+00  1.5575004501610415e-01 8.8450916210715391e-01 0.0000000000000000e+00  1.5584957937807273e-01 8.9256533468386057e-01 0.0000000000000000e+00  1.5534755490629212e-01 8.9504439086770782e-01 0.0000000000000000e+00  1.5664644260532348e-01 8.9724043275424681e-01 0.0000000000000000e+00  1.5487185124523090e-01 9.0654361003359440e-01 0.0000000000000000e+00  1.5623781583222388e-01 9.1098528063628437e-01 0.0000000000000000e+00  1.5526582418602139e-01 9.1168825514450880e-01 0.0000000000000000e+00  1.5653900457034442e-01 9.1847460448765472e-01 0.0000000000000000e+00  1.5429216057106615e-01 9.2835605872599114e-01 0.0000000000000000e+00  1.5697852207555218e-01 9.2414465815512881e-01 0.0000000000000000e+00  1.5477407284369754e-01 9.3416601670778210e-01 0.0000000000000000e+00  1.5606725061418270e-01 9.3984030151758602e-01 0.0000000000000000e+00  1.5486189076936538e-01 9.4373868415619810e-01 0.0000000000000000e+00  1.5689923197004241e-01 9.4111387567625016e-01 0.0000000000000000e+00  1.5386627703623040e-01 9.6241379952217831e-01 0.0000000000000000e+00  1.5679888116162063e-01 9.4936794703827543e-01 0.0000000000000000e+00  1.5500597724481296e-01 9.6441900022518257e-01 0.0000000000000000e+00  1.5552517606306895e-01 9.6674803704774848e-01 0.0000000000000000e+00  1.5512100701606263e-01 9.7460242202637504e-01 0.0000000000000000e+00  1.5658708308374525e-01 9.6561931363381259e-01 0.0000000000000000e+00  1.5374644083974628e-01 9.9648505985497005e-01 0.0000000000000000e+00  1.5683026156941096e-01 9.7119321587429175e-01 0.0000000000000000e+00  1.5500437284939461e-01 9.9720261644305563e-01 0.0000000000000000e+00  1.5467131597065292e-01 9.9614926234668755e-01 0.0000000000000000e+00  1.5656401391412456e-01 9.9515224881477204e-01 0.0000000000000000e+00  1.5461849942580838e-01 1.0046689415623138e+00 0.0000000000000000e+00  1.5500370106219874e-01 1.0175858596504639e+00 0.0000000000000000e+00  1.5661520840137741e-01 9.9716387311686383e-01 0.0000000000000000e+00  1.5392795094004780e-01 1.0359458284018839e+00 0.0000000000000000e+00  1.5564629451189360e-01 1.0134551122550421e+00 0.0000000000000000e+00  1.5695945876600789e-01 1.0215275174436578e+00 0.0000000000000000e+00  1.5130420174647383e-01 1.0566861076823724e+00 0.0000000000000000e+00  1.6089294952668640e-01 9.9970667077810327e-01 0.0000000000000000e+00  1.4870866336248784e-01 1.0861228416142013e+00 0.0000000000000000e+00  1.6087560808866516e-01 1.0091793706029695e+00 0.0000000000000000e+00  1.5136743072150469e-01 1.0738884304416110e+00 0.0000000000000000e+00  1.5622563484070337e-01 1.0554001810234026e+00 0.0000000000000000e+00  1.5728022115707316e-01 1.0358630383372927e+00 0.0000000000000000e+00  1.5000068665714314e-01 1.1140319894220887e+00 0.0000000000000000e+00  1.6236920140473901e-01 1.0044082481073897e+00 0.0000000000000000e+00  1.4567702218854550e-01 1.1575911787451294e+00 0.0000000000000000e+00  1.6471671213958283e-01 9.9484074108903575e-01 0.0000000000000000e+00  1.4436822961430412e-01 1.1771208301997749e+00 0.0000000000000000e+00  1.6474655427481266e-01 1.0038150132783876e+00 0.0000000000000000e+00  1.4519350909347473e-01 1.1795479088520953e+00 0.0000000000000000e+00  1.6353123576394391e-01 1.0226956839634394e+00 0.0000000000000000e+00  1.4693273901582654e-01 1.1746456521705682e+00 0.0000000000000000e+00  1.6190865289341444e-01 1.0447353305131521e+00 0.0000000000000000e+00  1.4877227956403302e-01 1.1689661547209755e+00 0.0000000000000000e+00  1.6036178208174195e-01 1.0660661673316600e+00 0.0000000000000000e+00  1.5032920167068395e-01 1.1656102003913920e+00 0.0000000000000000e+00  1.5909902754723912e-01 1.0850221671723417e+00 0.0000000000000000e+00  1.5150349883031228e-01 1.1654178317785935e+00 0.0000000000000000e+00  1.5815271768456943e-01 1.1013294734891286e+00 0.0000000000000000e+00  1.5233921325353389e-01 1.1680807556444923e+00 0.0000000000000000e+00  1.5746818958192851e-01 1.1153954985865220e+00 0.0000000000000000e+00  1.5292683062402701e-01 1.1729141999373931e+00 0.0000000000000000e+00  1.5696928808941010e-01 1.1277970057126316e+00 0.0000000000000000e+00  1.5334978589328105e-01 1.1792739067742974e+00 0.0000000000000000e+00  1.5659285628446817e-01 1.1390168450813456e+00 0.0000000000000000e+00  1.5366559362790982e-01 1.1866997823797942e+00 0.0000000000000000e+00  1.5629866875561430e-01 1.1493750102880556e+00 0.0000000000000000e+00  1.5390601689899513e-01 1.1949106970113132e+00 0.0000000000000000e+00  1.5606687212611167e-01 1.1590585312411386e+00 0.0000000000000000e+00  1.5408390742436986e-01 1.2037457456782010e+00 0.0000000000000000e+00  1.5589237668187300e-01 1.1681757265689654e+00 0.0000000000000000e+00  1.5419950246888084e-01 1.2131075470851711e+00 0.0000000000000000e+00  1.5577992549323039e-01 1.1768036594972158e+00 0.0000000000000000e+00  1.5424505897749297e-01 1.2229187560547716e+00 0.0000000000000000e+00  1.5574090745030325e-01 1.1850168825958560e+00 0.0000000000000000e+00  1.5420767262941268e-01 1.2330977883778611e+00 0.0000000000000000e+00  1.5579012393975486e-01 1.1929085437159612e+00 0.0000000000000000e+00  1.5407237249876776e-01 1.2435410295254539e+00 0.0000000000000000e+00  1.5594331915609339e-01 1.2005958562746506e+00 0.0000000000000000e+00  1.5382481543450779e-01 1.2541188745627565e+00 0.0000000000000000e+00  1.5621276653884655e-01 1.2082304229877463e+00 0.0000000000000000e+00  1.5345539615234516e-01 1.2646725317003320e+00 0.0000000000000000e+00  1.5660472036581610e-01 1.2159814058692640e+00 0.0000000000000000e+00  1.5296227841383123e-01 1.2750328908664825e+00 0.0000000000000000e+00  1.5711390265892680e-01 1.2240289103117434e+00 0.0000000000000000e+00  1.5235591984703573e-01 1.2850401822882989e+00 0.0000000000000000e+00  1.5772314544246066e-01 1.2325061861938329e+00 0.0000000000000000e+00  1.5165988389845586e-01 1.2946003529438981e+00 0.0000000000000000e+00  1.5839840769936728e-01 1.2414771525664505e+00 0.0000000000000000e+00  1.5091440751099794e-01 1.3037158358241034e+00 0.0000000000000000e+00  1.5909360351475971e-01 1.2508480587492243e+00 0.0000000000000000e+00  1.5017121466911829e-01 1.3125680357806953e+00 0.0000000000000000e+00  1.5974729497767443e-01 1.2603717490977457e+00 0.0000000000000000e+00  1.4949743629246928e-01 1.3214902653553537e+00 0.0000000000000000e+00  1.6029305596854207e-01 1.2695910089164102e+00 0.0000000000000000e+00  1.4895874714175891e-01 1.3310474732688691e+00 0.0000000000000000e+00  1.6066282527769576e-01 1.2779052207224508e+00 0.0000000000000000e+00  1.4862517313764920e-01 1.3418524941995325e+00 0.0000000000000000e+00  1.6080111430373001e-01 1.2846342181956965e+00 0.0000000000000000e+00  1.4852701380164524e-01 1.3546921686526088e+00 0.0000000000000000e+00  1.6070587619954302e-01 1.2889491546650134e+00 0.0000000000000000e+00  1.4864963783058407e-01 1.3702756637015749e+00 0.0000000000000000e+00  1.6044059546782122e-01 1.2900697041288598e+00 0.0000000000000000e+00  1.4885120289617829e-01 1.3896065681032166e+00 0.0000000000000000e+00  1.6025871005140530e-01 1.2865310640491334e+00 0.0000000000000000e+00  1.4884900950880076e-01 1.4139226960025255e+00 0.0000000000000000e+00  1.6047329975350938e-01 1.2773127921197431e+00 0.0000000000000000e+00  1.4835751691279780e-01 1.4436455655408247e+00 0.0000000000000000e+00  1.6137043170201920e-01 1.2623728280215563e+00 0.0000000000000000e+00  1.4730444318040242e-01 1.4769691662275235e+00 0.0000000000000000e+00  1.6257576186631204e-01 1.2471997537213160e+00 0.0000000000000000e+00  1.4653964065069328e-01 1.5046044806107626e+00 0.0000000000000000e+00  1.6262287431770847e-01 1.2455555462231369e+00 0.0000000000000000e+00  1.4719975008039812e-01 1.5154474675361045e+00 0.0000000000000000e+00  1.6095408490182056e-01 1.2631488987153758e+00 0.0000000000000000e+00  1.4881129967482726e-01 1.5126206519653482e+00 0.0000000000000000e+00  1.5927830147036970e-01 1.2866179448664958e+00 0.0000000000000000e+00  1.4952710725596269e-01 1.5116632612021517e+00 0.0000000000000000e+00  1.5920504618564993e-01 1.3021899697367030e+00 0.0000000000000000e+00  1.4887386260758081e-01 1.5178716030598018e+00 0.0000000000000000e+00  1.5992330477017705e-01 1.3145176145401034e+00 0.0000000000000000e+00  1.4823736803921989e-01 1.5218957628585288e+00 0.0000000000000000e+00  1.6009535723517773e-01 1.3323193333521590e+00 0.0000000000000000e+00  1.4818051794756085e-01 1.5208853359706755e+00 0.0000000000000000e+00  1.5950924604290595e-01 1.3557209280514286e+00 0.0000000000000000e+00  1.4933686396987422e-01 1.5110318881548477e+00 0.0000000000000000e+00  1.5606774179710176e-01 1.4002513037862097e+00 0.0000000000000000e+00  1.5411166850625058e-01 1.4741373073806250e+00 0.0000000000000000e+00  1.4881913631802532e-01 1.4731380639954450e+00 0.0000000000000000e+00  1.609015