<?xml version="1.0"?>
<VTKFile type="UnstructuredGrid"  version="0.1"  >
<UnstructuredGrid>
<Piece  NumberOfPoints="801" NumberOfCells="800">
<Points>
<DataArray  type="Float64"  NumberOfComponents="3"  format="ascii">-5 0 0  -4.9875 0 0  -4.975 0 0  -4.9625 0 0  -4.95 0 0  -4.9375 0 0  -4.925 0 0  -4.9125 0 0  -4.9 0 0  -4.8875 0 0  -4.875 0 0  -4.8625 0 0  -4.85 0 0  -4.8375 0 0  -4.825 0 0  -4.8125 0 0  -4.8 0 0  -4.7875 0 0  -4.775 0 0  -4.7625 0 0  -4.75 0 0  -4.7375 0 0  -4.725 0 0  -4.7125 0 0  -4.7 0 0  -4.6875 0 0  -4.675 0 0  -4.6625 0 0  -4.65 0 0  -4.6375 0 0  -4.625 0 0  -4.6125 0 0  -4.6 0 0  -4.5875 0 0  -4.575 0 0  -4.5625 0 0  -4.55 0 0  -4.5375 0 0  -4.525 0 0  -4.5125 0 0  -4.5 0 0  -4.4875 0 0  -4.475 0 0  -4.4625 0 0  -4.45 0 0  -4.4375 0 0  -4.425 0 0  -4.4125 0 0  -4.4 0 0  -4.3875 0 0  -4.375 0 0  -4.3625 0 0  -4.35 0 0  -4.3375 0 0  -4.325 0 0  -4.3125 0 0  -4.3 0 0  -4.2875 0 0  -4.275 0 0  -4.2625 0 0  -4.25 0 0  -4.2375 0 0  -4.225 0 0  -4.2125 0 0  -4.2 0 0  -4.1875 0 0  -4.175 0 0  -4.1625 0 0  -4.15 0 0  -4.1375 0 0  -4.125 0 0  -4.1125 0 0  -4.1 0 0  -4.0875 0 0  -4.075 0 0  -4.0625 0 0  -4.05 0 0  -4.0375 0 0  -4.025 0 0  -4.0125 0 0  -4 0 0  -3.9875 0 0  -3.975 0 0  -3.9625 0 0  -3.95 0 0  -3.9375 0 0  -3.925 0 0  -3.9125 0 0  -3.9 0 0  -3.8875 0 0  -3.875 0 0  -3.8625 0 0  -3.85 0 0  -3.8375 0 0  -3.825 0 0  -3.8125 0 0  -3.8 0 0  -3.7875 0 0  -3.775 0 0  -3.7625 0 0  -3.75 0 0  -3.7375 0 0  -3.725 0 0  -3.7125 0 0  -3.7 0 0  -3.6875 0 0  -3.675 0 0  -3.6625 0 0  -3.65 0 0  -3.6375 0 0  -3.625 0 0  -3.6125 0 0  -3.6 0 0  -3.5875 0 0  -3.575 0 0  -3.5625 0 0  -3.55 0 0  -3.5375 0 0  -3.525 0 0  -3.5125 0 0  -3.5 0 0  -3.4875 0 0  -3.475 0 0  -3.4625 0 0  -3.45 0 0  -3.4375 0 0  -3.425 0 0  -3.4125 0 0  -3.4 0 0  -3.3875 0 0  -3.375 0 0  -3.3625 0 0  -3.35 0 0  -3.3375 0 0  -3.325 0 0  -3.3125 0 0  -3.3 0 0  -3.2875 0 0  -3.275 0 0  -3.2625 0 0  -3.25 0 0  -3.2375 0 0  -3.225 0 0  -3.2125 0 0  -3.2 0 0  -3.1875 0 0  -3.175 0 0  -3.1625 0 0  -3.15 0 0  -3.1375 0 0  -3.125 0 0  -3.1125 0 0  -3.1 0 0  -3.0875 0 0  -3.075 0 0  -3.0625 0 0  -3.05 0 0  -3.0375 0 0  -3.025 0 0  -3.0125 0 0  -3 0 0  -2.9875 0 0  -2.975 0 0  -2.9625 0 0  -2.95 0 0  -2.9375 0 0  -2.925 0 0  -2.9125 0 0  -2.9 0 0  -2.8875 0 0  -2.875 0 0  -2.8625 0 0  -2.85 0 0  -2.8375 0 0  -2.825 0 0  -2.8125 0 0  -2.8 0 0  -2.7875 0 0  -2.775 0 0  -2.7625 0 0  -2.75 0 0  -2.7375 0 0  -2.725 0 0  -2.7125 0 0  -2.7 0 0  -2.6875 0 0  -2.675 0 0  -2.6625 0 0  -2.65 0 0  -2.6375 0 0  -2.625 0 0  -2.6125 0 0  -2.6 0 0  -2.5875 0 0  -2.575 0 0  -2.5625 0 0  -2.55 0 0  -2.5375 0 0  -2.525 0 0  -2.5125 0 0  -2.5 0 0  -2.4875 0 0  -2.475 0 0  -2.4625 0 0  -2.45 0 0  -2.4375 0 0  -2.425 0 0  -2.4125 0 0  -2.4 0 0  -2.3875 0 0  -2.375 0 0  -2.3625 0 0  -2.35 0 0  -2.3375 0 0  -2.325 0 0  -2.3125 0 0  -2.3 0 0  -2.2875 0 0  -2.275 0 0  -2.2625 0 0  -2.25 0 0  -2.2375 0 0  -2.225 0 0  -2.2125 0 0  -2.2 0 0  -2.1875 0 0  -2.175 0 0  -2.1625 0 0  -2.15 0 0  -2.1375 0 0  -2.125 0 0  -2.1125 0 0  -2.1 0 0  -2.0875 0 0  -2.075 0 0  -2.0625 0 0  -2.05 0 0  -2.0375 0 0  -2.025 0 0  -2.0125 0 0  -2 0 0  -1.9875 0 0  -1.975 0 0  -1.9625 0 0  -1.95 0 0  -1.9375 0 0  -1.925 0 0  -1.9125 0 0  -1.9 0 0  -1.8875 0 0  -1.875 0 0  -1.8625 0 0  -1.85 0 0  -1.8375 0 0  -1.825 0 0  -1.8125 0 0  -1.8 0 0  -1.7875 0 0  -1.775 0 0  -1.7625 0 0  -1.75 0 0  -1.7375 0 0  -1.725 0 0  -1.7125 0 0  -1.7 0 0  -1.6875 0 0  -1.675 0 0  -1.6625 0 0  -1.65 0 0  -1.6375 0 0  -1.625 0 0  -1.6125 0 0  -1.6 0 0  -1.5875 0 0  -1.575 0 0  -1.5625 0 0  -1.55 0 0  -1.5375 0 0  -1.525 0 0  -1.5125 0 0  -1.5 0 0  -1.4875 0 0  -1.475 0 0  -1.4625 0 0  -1.45 0 0  -1.4375 0 0  -1.425 0 0  -1.4125 0 0  -1.4 0 0  -1.3875 0 0  -1.375 0 0  -1.3625 0 0  -1.35 0 0  -1.3375 0 0  -1.325 0 0  -1.3125 0 0  -1.3 0 0  -1.2875 0 0  -1.275 0 0  -1.2625 0 0  -1.25 0 0  -1.2375 0 0  -1.225 0 0  -1.2125 0 0  -1.2 0 0  -1.1875 0 0  -1.175 0 0  -1.1625 0 0  -1.15 0 0  -1.1375 0 0  -1.125 0 0  -1.1125 0 0  -1.1 0 0  -1.0875 0 0  -1.075 0 0  -1.0625 0 0  -1.05 0 0  -1.0375 0 0  -1.025 0 0  -1.0125 0 0  -1 0 0  -0.9874999999999998 0 0  -0.9749999999999996 0 0  -0.9625000000000004 0 0  -0.9500000000000002 0 0  -0.9375 0 0  -0.9249999999999998 0 0  -0.9124999999999996 0 0  -0.9000000000000004 0 0  -0.8875000000000002 0 0  -0.875 0 0  -0.8624999999999998 0 0  -0.8499999999999996 0 0  -0.8375000000000004 0 0  -0.8250000000000002 0 0  -0.8125 0 0  -0.7999999999999998 0 0  -0.7874999999999996 0 0  -0.7750000000000004 0 0  -0.7625000000000002 0 0  -0.75 0 0  -0.7374999999999998 0 0  -0.7249999999999996 0 0  -0.7125000000000004 0 0  -0.7000000000000002 0 0  -0.6875 0 0  -0.6749999999999998 0 0  -0.6624999999999996 0 0  -0.6500000000000004 0 0  -0.6375000000000002 0 0  -0.625 0 0  -0.6124999999999998 0 0  -0.5999999999999996 0 0  -0.5875000000000004 0 0  -0.5750000000000002 0 0  -0.5625 0 0  -0.5499999999999998 0 0  -0.5374999999999996 0 0  -0.5250000000000004 0 0  -0.5125000000000002 0 0  -0.5 0 0  -0.4874999999999998 0 0  -0.4749999999999996 0 0  -0.4625000000000004 0 0  -0.4500000000000002 0 0  -0.4375 0 0  -0.4249999999999998 0 0  -0.4124999999999996 0 0  -0.4000000000000004 0 0  -0.3875000000000002 0 0  -0.375 0 0  -0.3624999999999998 0 0  -0.3499999999999996 0 0  -0.3375000000000004 0 0  -0.3250000000000002 0 0  -0.3125 0 0  -0.2999999999999998 0 0  -0.2874999999999996 0 0  -0.2750000000000004 0 0  -0.2625000000000002 0 0  -0.25 0 0  -0.2374999999999998 0 0  -0.2249999999999996 0 0  -0.2125000000000004 0 0  -0.2000000000000002 0 0  -0.1875 0 0  -0.1749999999999998 0 0  -0.1624999999999996 0 0  -0.1500000000000004 0 0  -0.1375000000000002 0 0  -0.125 0 0  -0.1124999999999998 0 0  -0.09999999999999964 0 0  -0.08750000000000036 0 0  -0.07500000000000018 0 0  -0.0625 0 0  -0.04999999999999982 0 0  -0.03749999999999964 0 0  -0.02500000000000036 0 0  -0.01250000000000018 0 0  0 0 0  0.01250000000000018 0 0  0.02500000000000036 0 0  0.03749999999999964 0 0  0.04999999999999982 0 0  0.0625 0 0  0.07500000000000018 0 0  0.08750000000000036 0 0  0.09999999999999964 0 0  0.1124999999999998 0 0  0.125 0 0  0.1375000000000002 0 0  0.1500000000000004 0 0  0.1624999999999996 0 0  0.1749999999999998 0 0  0.1875 0 0  0.2000000000000002 0 0  0.2125000000000004 0 0  0.2249999999999996 0 0  0.2374999999999998 0 0  0.25 0 0  0.2625000000000002 0 0  0.2750000000000004 0 0  0.2874999999999996 0 0  0.2999999999999998 0 0  0.3125 0 0  0.3250000000000002 0 0  0.3375000000000004 0 0  0.3499999999999996 0 0  0.3624999999999998 0 0  0.375 0 0  0.3875000000000002 0 0  0.4000000000000004 0 0  0.4124999999999996 0 0  0.4249999999999998 0 0  0.4375 0 0  0.4500000000000002 0 0  0.4625000000000004 0 0  0.4749999999999996 0 0  0.4874999999999998 0 0  0.5 0 0  0.5125000000000002 0 0  0.5250000000000004 0 0  0.5374999999999996 0 0  0.5499999999999998 0 0  0.5625 0 0  0.5750000000000002 0 0  0.5875000000000004 0 0  0.5999999999999996 0 0  0.6124999999999998 0 0  0.625 0 0  0.6375000000000002 0 0  0.6500000000000004 0 0  0.6624999999999996 0 0  0.6749999999999998 0 0  0.6875 0 0  0.7000000000000002 0 0  0.7125000000000004 0 0  0.7249999999999996 0 0  0.7374999999999998 0 0  0.75 0 0  0.7625000000000002 0 0  0.7750000000000004 0 0  0.7874999999999996 0 0  0.7999999999999998 0 0  0.8125 0 0  0.8250000000000002 0 0  0.8375000000000004 0 0  0.8499999999999996 0 0  0.8624999999999998 0 0  0.875 0 0  0.8875000000000002 0 0  0.9000000000000004 0 0  0.9124999999999996 0 0  0.9249999999999998 0 0  0.9375 0 0  0.9500000000000002 0 0  0.9625000000000004 0 0  0.9749999999999996 0 0  0.9874999999999998 0 0  1 0 0  1.0125 0 0  1.025 0 0  1.0375 0 0  1.05 0 0  1.0625 0 0  1.075 0 0  1.0875 0 0  1.1 0 0  1.1125 0 0  1.125 0 0  1.1375 0 0  1.15 0 0  1.1625 0 0  1.175 0 0  1.1875 0 0  1.2 0 0  1.2125 0 0  1.225 0 0  1.2375 0 0  1.25 0 0  1.2625 0 0  1.275 0 0  1.2875 0 0  1.3 0 0  1.3125 0 0  1.325 0 0  1.3375 0 0  1.35 0 0  1.3625 0 0  1.375 0 0  1.3875 0 0  1.4 0 0  1.4125 0 0  1.425 0 0  1.4375 0 0  1.45 0 0  1.4625 0 0  1.475 0 0  1.4875 0 0  1.5 0 0  1.5125 0 0  1.525 0 0  1.5375 0 0  1.55 0 0  1.5625 0 0  1.575 0 0  1.5875 0 0  1.6 0 0  1.6125 0 0  1.625 0 0  1.6375 0 0  1.65 0 0  1.6625 0 0  1.675 0 0  1.6875 0 0  1.7 0 0  1.7125 0 0  1.725 0 0  1.7375 0 0  1.75 0 0  1.7625 0 0  1.775 0 0  1.7875 0 0  1.8 0 0  1.8125 0 0  1.825 0 0  1.8375 0 0  1.85 0 0  1.8625 0 0  1.875 0 0  1.8875 0 0  1.9 0 0  1.9125 0 0  1.925 0 0  1.9375 0 0  1.95 0 0  1.9625 0 0  1.975 0 0  1.9875 0 0  2 0 0  2.0125 0 0  2.025 0 0  2.0375 0 0  2.05 0 0  2.0625 0 0  2.075 0 0  2.0875 0 0  2.1 0 0  2.1125 0 0  2.125 0 0  2.1375 0 0  2.15 0 0  2.1625 0 0  2.175 0 0  2.1875 0 0  2.2 0 0  2.2125 0 0  2.225 0 0  2.2375 0 0  2.25 0 0  2.2625 0 0  2.275 0 0  2.2875 0 0  2.3 0 0  2.3125 0 0  2.325 0 0  2.3375 0 0  2.35 0 0  2.3625 0 0  2.375 0 0  2.3875 0 0  2.4 0 0  2.4125 0 0  2.425 0 0  2.4375 0 0  2.45 0 0  2.4625 0 0  2.475 0 0  2.4875 0 0  2.5 0 0  2.5125 0 0  2.525 0 0  2.5375 0 0  2.55 0 0  2.5625 0 0  2.575 0 0  2.5875 0 0  2.6 0 0  2.6125 0 0  2.625 0 0  2.6375 0 0  2.65 0 0  2.6625 0 0  2.675 0 0  2.6875 0 0  2.7 0 0  2.7125 0 0  2.725 0 0  2.7375 0 0  2.75 0 0  2.7625 0 0  2.775 0 0  2.7875 0 0  2.8 0 0  2.8125 0 0  2.825 0 0  2.8375 0 0  2.85 0 0  2.8625 0 0  2.875 0 0  2.8875 0 0  2.9 0 0  2.9125 0 0  2.925 0 0  2.9375 0 0  2.95 0 0  2.9625 0 0  2.975 0 0  2.9875 0 0  3 0 0  3.012499999999999 0 0  3.025 0 0  3.0375 0 0  3.050000000000001 0 0  3.0625 0 0  3.074999999999999 0 0  3.0875 0 0  3.1 0 0  3.112500000000001 0 0  3.125 0 0  3.137499999999999 0 0  3.15 0 0  3.1625 0 0  3.175000000000001 0 0  3.1875 0 0  3.199999999999999 0 0  3.2125 0 0  3.225 0 0  3.237500000000001 0 0  3.25 0 0  3.262499999999999 0 0  3.275 0 0  3.2875 0 0  3.300000000000001 0 0  3.3125 0 0  3.324999999999999 0 0  3.3375 0 0  3.35 0 0  3.362500000000001 0 0  3.375 0 0  3.387499999999999 0 0  3.4 0 0  3.4125 0 0  3.425000000000001 0 0  3.4375 0 0  3.449999999999999 0 0  3.4625 0 0  3.475 0 0  3.4875
[...]
<PointData  Vectors="(h, u)"> 
<DataArray  type="Float64"  Name="(h, u)"  NumberOfComponents="3" format="ascii">1.3765573617189317e-01 0.0000000000000000e+00 0.0000000000000000e+00  1.3703990136718916e-01 4.8949553264759360e-03 0.0000000000000000e+00  1.3764362278314787e-01 8.8374267938801810e-03 0.0000000000000000e+00  1.3705800956513470e-01 1.4703749584345834e-02 0.0000000000000000e+00  1.3760738709664255e-01 1.7638406181482436e-02 0.0000000000000000e+00  1.3709400095914898e-01 2.4567463015015389e-02 0.0000000000000000e+00  1.3754738168211142e-01 2.6369853092083288e-02 0.0000000000000000e+00  1.3714735154690469e-01 3.4517039990865493e-02 0.0000000000000000e+00  1.3746431678512264e-01 3.5005224997931857e-02 0.0000000000000000e+00  1.3721710390860184e-01 4.4575286423251322e-02 0.0000000000000000e+00  1.3735941822348446e-01 4.3527331991023738e-02 0.0000000000000000e+00  1.3730169813769838e-01 5.4754343949834382e-02 0.0000000000000000e+00  1.3723460066854026e-01 5.1930580856328588e-02 0.0000000000000000e+00  1.3739880315390363e-01 6.5053888065810625e-02 0.0000000000000000e+00  1.3709261775355813e-01 6.0222454983921252e-02 0.0000000000000000e+00  1.3750518816342017e-01 7.5460230919022750e-02 0.0000000000000000e+00  1.3693715065378845e-01 6.8424045521265769e-02 0.0000000000000000e+00  1.3761667278861270e-01 8.5946467030446339e-02 0.0000000000000000e+00  1.3677280265937994e-01 7.6569488930348345e-02 0.0000000000000000e+00  1.3772818640848394e-01 9.6473735518617057e-02 0.0000000000000000e+00  1.3660497806603050e-01 8.4704238559214537e-02 0.0000000000000000e+00  1.3783395295271636e-01 1.0699358787502364e-01 0.0000000000000000e+00  1.3643963838487755e-01 9.2882201533687703e-02 0.0000000000000000e+00  1.3792779865048604e-01 1.1745135105929609e-01 0.0000000000000000e+00  1.3628294614936490e-01 1.0116189609007251e-01 0.0000000000000000e+00  1.3800356016138246e-01 1.2779026895221215e-01 0.0000000000000000e+00  1.3614082478486775e-01 1.0960190968342640e-01 0.0000000000000000e+00  1.3805555271691447e-01 1.3795610146787840e-01 0.0000000000000000e+00  1.3601847969793079e-01 1.1825604402700658e-01 0.0000000000000000e+00  1.3807904550215003e-01 1.4790177479979380e-01 0.0000000000000000e+00  1.3591993776764510e-01 1.2716860287557558e-01 0.0000000000000000e+00  1.3807068638898948e-01 1.5759162703101892e-01 0.0000000000000000e+00  1.3584766641301324e-01 1.3637030237186012e-01 0.0000000000000000e+00  1.3802882076473214e-01 1.6700479855256234e-01 0.0000000000000000e+00  1.3580232698854805e-01 1.4587525846667548e-01 0.0000000000000000e+00  1.3795365912522900e-01 1.7613738551171693e-01 0.0000000000000000e+00  1.3578270043405846e-01 1.5567942870872728e-01 0.0000000000000000e+00  1.3784726462497876e-01 1.8500309992759517e-01 0.0000000000000000e+00  1.3578579896526208e-01 1.6576075265568663e-01 0.0000000000000000e+00  1.3771335402653342e-01 1.9363233947940903e-01 0.0000000000000000e+00  1.3580715147257569e-01 1.7608104668951366e-01 0.0000000000000000e+00  1.3755693152487514e-01 2.0206973540373252e-01 0.0000000000000000e+00  1.3584122760748890e-01 1.8658948137639675e-01 0.0000000000000000e+00  1.3738380070537037e-01 2.1037039913764272e-01 0.0000000000000000e+00  1.3588194963663006e-01 1.9722724162434299e-01 0.0000000000000000e+00  1.3720001945205396e-01 2.1859522281049759e-01 0.0000000000000000e+00  1.3592323253514285e-01 2.0793279693362865e-01 0.0000000000000000e+00  1.3701136988988938e-01 2.2680570898627375e-01 0.0000000000000000e+00  1.3595949023384901e-01 2.1864714120932280e-01 0.0000000000000000e+00  1.3682290750941495e-01 2.3505890411876298e-01 0.0000000000000000e+00  1.3598604913858142e-01 2.2931841408248374e-01 0.0000000000000000e+00  1.3663863369946591e-01 2.4340305182875765e-01 0.0000000000000000e+00  1.3599942139967180e-01 2.3990545256082321e-01 0.0000000000000000e+00  1.3646131247606028e-01 2.5187451151891921e-01 0.0000000000000000e+00  1.3599741242079288e-01 2.5037998187675686e-01 0.0000000000000000e+00  1.3629243313024500e-01 2.6049627987319418e-01 0.0000000000000000e+00  1.3597906724846417e-01 2.6072730164253954e-01 0.0000000000000000e+00  1.3613230779270866e-01 2.6927815142441430e-01 0.0000000000000000e+00  1.3594449001332040e-01 2.7094546713355888e-01 0.0000000000000000e+00  1.3598028283099589e-01 2.7821826000915384e-01 0.0000000000000000e+00  1.3589458829349477e-01 2.8104313891166777e-01 0.0000000000000000e+00  1.3583503001493241e-01 2.8730556606087509e-01 0.0000000000000000e+00  1.3583079238907136e-01 2.9103649508739848e-01 0.0000000000000000e+00  1.3569486657838212e-01 2.9652284758700059e-01 0.0000000000000000e+00  1.3575478217562684e-01 3.0094580899460638e-01 0.0000000000000000e+00  1.3555804385177558e-01 3.0584983659756043e-01 0.0000000000000000e+00  1.3566823975424830e-01 3.1079233675203338e-01 0.0000000000000000e+00  1.3542295809769356e-01 3.1526616718363065e-01 0.0000000000000000e+00  1.3557264803188948e-01 3.2059594570917338e-01 0.0000000000000000e+00  1.3528827178820108e-01 3.2475375035412402e-01 0.0000000000000000e+00  1.3546916314800816e-01 3.3037358039639936e-01 0.0000000000000000e+00  1.3515296519342834e-01 3.3429821021882178e-01 0.0000000000000000e+00  1.3535858359199668e-01 3.4013842105440711e-01 0.0000000000000000e+00  1.3501634893479816e-01 3.4388920072230417e-01 0.0000000000000000e+00  1.3524141473218809e-01 3.4989954679239904e-01 0.0000000000000000e+00  1.3487805264189795e-01 3.5351977023380116e-01 0.0000000000000000e+00  1.3511798622093604e-01 3.5966209494931001e-01 0.0000000000000000e+00  1.3473797173348873e-01 3.6318534907881245e-01 0.0000000000000000e+00  1.3498854961187301e-01 3.6942808997581517e-01 0.0000000000000000e+00  1.3459615201897374e-01 3.7288298230436956e-01 0.0000000000000000e+00  1.3485331944849968e-01 3.7919782898343574e-01 0.0000000000000000e+00  1.3445265274203999e-01 3.8261085160611286e-01 0.0000000000000000e+00  1.3471249919560277e-01 3.8897113833183899e-01 0.0000000000000000e+00  1.3430747115262479e-01 3.9236764942380553e-01 0.0000000000000000e+00  1.3456634238500723e-01 3.9874787212224977e-01 0.0000000000000000e+00  1.3416056068990900e-01 4.0215166007203312e-01 0.0000000000000000e+00  1.3441524051911755e-01 4.0852766480541663e-01 0.0000000000000000e+00  1.3401190920597275e-01 4.1195983013948118e-01 0.0000000000000000e+00  1.3425979376705410e-01 4.1830937058613460e-01 0.0000000000000000e+00  1.3386160529289648e-01 4.2178734031299608e-01 0.0000000000000000e+00  1.3410078496804054e-01 4.2809100247684378e-01 0.0000000000000000e+00  1.3370978997355504e-01 4.3162840341474012e-01 0.0000000000000000e+00  1.3393901061101052e-01 4.3787073054210662e-01 0.0000000000000000e+00  1.3355653187130870e-01 4.4147780408783871e-01 0.0000000000000000e+00  1.3377515384105754e-01 4.4764750706490630e-01 0.0000000000000000e+00  1.3340187651858640e-01 4.5133090458877906e-01 0.0000000000000000e+00  1.3360991071582651e-01 4.5741961695297650e-01 0.0000000000000000e+00  1.3324608218657491e-01 4.6118192594504703e-01 0.0000000000000000e+00  1.3344415679722912e-01 4.6718302746287732e-01 0.0000000000000000e+00  1.3308970319258345e-01 4.7102337758072416e-01 0.0000000000000000e+00  1.3327889214222013e-01 4.7693178748839676e-01 0.0000000000000000e+00  1.3293347582880455e-01 4.8084703626175079e-01 0.0000000000000000e+00  1.3311509901707946e-01 4.8665929953308107e-01 0.0000000000000000e+00  1.3277815363674164e-01 4.9064525975459672e-01 0.0000000000000000e+00  1.3295353590247727e-01 4.9636021768218519e-01 0.0000000000000000e+00  1.3262428210280700e-01 5.0041277055049538e-01 0.0000000000000000e+00  1.3279465783041011e-01 5.0603129233268951e-01 0.0000000000000000e+00  1.3247242038266074e-01 5.1014459238141752e-01 0.0000000000000000e+00  1.3263919513318831e-01 5.1566654962011416e-01 0.0000000000000000e+00  1.3232376885294028e-01 5.1983051693687976e-01 0.0000000000000000e+00  1.3248839572462776e-01 5.2525532799903485e-01 0.0000000000000000e+00  1.3217965201624940e-01 5.2945944489967078e-01 0.0000000000000000e+00  1.3234298190044347e-01 5.3479133536738255e-01 0.0000000000000000e+00  1.3204054797887085e-01 5.3902766948791614e-01 0.0000000000000000e+00  1.3220300914750679e-01 5.4427392123846363e-01 0.0000000000000000e+00  1.3190679123551943e-01 5.4853279000669353e-01 0.0000000000000000e+00  1.3206889666201382e-01 5.5369923850092895e-01 0.0000000000000000e+00  1.3177906298695383e-01 5.5796946787160207e-01 0.0000000000000000e+00  1.3194128327150087e-01 5.6306150352674367e-01 0.0000000000000000e+00  1.3165804687200516e-01 5.6733237790818680e-01 0.0000000000000000e+00  1.3182105410368811e-01 5.7235277970871956e-01 0.0000000000000000e+00  1.3154447665931832e-01 5.7661578784376266e-01 0.0000000000000000e+00  1.3170856361866026e-01 5.8156969438026984e-01 0.0000000000000000e+00  1.3143750044356120e-01 5.8582766090281702e-01 0.0000000000000000e+00  1.3160258746536491e-01 5.9072249300343815e-01 0.0000000000000000e+00  1.3133627137639087e-01 5.9497591375258296e-01 0.0000000000000000e+00  1.3150409258967377e-01 5.9980250882918928e-01 0.0000000000000000e+00  1.3124277205559778e-01 6.0404403086708314e-01 0.0000000000000000e+00  1.3141437628118985e-01 6.0879824864080201e-01 0.0000000000000000e+00  1.3115611169961430e-01 6.1304031273726611e-01 0.0000000000000000e+00  1.3133079817840984e-01 6.1773225035106971e-01 0.0000000000000000e+00  1.3107457306063719e-01 6.2198017069622291e-01 0.0000000000000000e+00  1.3125355166898109e-01 6.2660257150447018e-01 0.0000000000000000e+00  1.3099982243748390e-01 6.3084975697604762e-01 0.0000000000000000e+00  1.3118314188626209e-01 6.3540460447911107e-01 0.0000000000000000e+00  1.3093120225444191e-01 6.3965530416067351e-01 0.0000000000000000e+00  1.3111879589568262e-01 6.4414480433883992e-01 0.0000000000000000e+00  1.3086861399041205e-01 6.4839818918668946e-01 0.0000000000000000e+00  1.3105960990874385e-01 6.5283077587537142e-01 0.0000000000000000e+00  1.3080953873827625e-01 6.5710070435110712e-01 0.0000000000000000e+00  1.3100425350745018e-01 6.6147381351138534e-01 0.0000000000000000e+00  1.3075661124874541e-01 6.6574051643836107e-01 0.0000000000000000e+00  1.3095697177040486e-01 6.7003700791181886e-01 0.0000000000000000e+00  1.3070897284919747e-01 6.7432554528707955e-01 0.0000000000000000e+00  1.3091070891742396e-01 6.7858128160517095e-01 0.0000000000000000e+00  1.3066171041887079e-01 6.8289872091912096e-01 0.0000000000000000e+00  1.3086990367611429e-01 6.8706802706840364e-01 0.0000000000000000e+00  1.3062288311419432e-01 6.9139067248277652e-01 0.0000000000000000e+00  1.3083422262864994e-01 6.9550005831916029e-01 0.0000000000000000e+00  1.3058376382991096e-01 6.9987736284041113e-01 0.0000000000000000e+00  1.3079924720082095e-01 7.0391551023328092e-01 0.0000000000000000e+00  1.3054956420532701e-01 7.0831396063692165e-01 0.0000000000000000e+00  1.3076949646142236e-01 7.1227517780103156e-01 0.0000000000000000e+00  1.3051690162592047e-01 7.1673009011524191e-01 0.0000000000000000e+00  1.3074219507689824e-01 7.2060304625793481e-01 0.0000000000000000e+00  1.3048949441743057e-01 7.2509380119891043e-01 0.0000000000000000e+00  1.3071716096518779e-01 7.2890069643220468e-01 0.0000000000000000e+00  1.3045858949766267e-01 7.3348114663871744e-01 0.0000000000000000e+00  1.3069398293006579e-01 7.3717165913233729e-01 0.0000000000000000e+00  1.3043873730939243e-01 7.4176620573355212e-01 0.0000000000000000e+00  1.3067643654749722e-01 7.4538337587289016e-01 0.0000000000000000e+00  1.3040980434857138e-01 7.5012359115913663e-01 0.0000000000000000e+00  1.3065432479556177e-01 7.5362425472089301e-01 0.0000000000000000e+00  1.3039395956069397e-01 7.5836112482274431e-01 0.0000000000000000e+00  1.3064273459878389e-01 7.6176385283520698e-01 0.0000000000000000e+00  1.3036888031316898e-01 7.6667230777508555e-01 0.0000000000000000e+00  1.3062421523013054e-01 7.6995364468199956e-01 0.0000000000000000e+00  1.3035523520034240e-01 7.7487773440174113e-01 0.0000000000000000e+00  1.3061230472730676e-01 7.7807674946000427e-01 0.0000000000000000e+00  1.3033327867501210e-01 7.8314835745219447e-01 0.0000000000000000e+00  1.3060247804188690e-01 7.8617281557604146e-01 0.0000000000000000e+00  1.3032262446346063e-01 7.9131379483091047e-01 0.0000000000000000e+00  1.3058387561331736e-01 7.9433663582150993e-01 0.0000000000000000e+00  1.3030429439253680e-01 7.9953804966274844e-01 0.0000000000000000e+00  1.3058560058235910e-01 8.0231645630841231e-01 0.0000000000000000e+00  1.3029336911328079e-01 8.0769005053159415e-01 0.0000000000000000e+00  1.3055838790907623e-01 8.1054016487198710e-01 0.0000000000000000e+00  1.3028616334953569e-01 8.1580096220858789e-01 0.0000000000000000e+00  1.3056560563565614e-01 8.1845900024015295e-01 0.0000000000000000e+00  1.3026709200503414e-01 8.2400568180283440e-01 0.0000000000000000e+00  1.3054084056172324e-01 8.2664944274078134e-01 0.0000000000000000e+00  1.3027699575308818e-01 8.3194931425757834e-01 0.0000000000000000e+00  1.3052957739585194e-01 8.3471785306334889e-01 0.0000000000000000e+00  1.3025637220920658e-01 8.4014752035119900e-01 0.0000000000000000e+00  1.3052818775199232e-01 8.4269601556689411e-01 0.0000000000000000e+00  1.3026168754225684e-01 8.4811036909071191e-01 0.0000000000000000e+00  1.3048880691790182e-01 8.5099961222769327e-01 0.0000000000000000e+00  1.3028021463300568e-01 8.5594774268278262e-01 0.0000000000000000e+00  1.3048751654349314e-01 8.5896920369690299e-01 0.0000000000000000e+00  1.3024790993715846e-01 8.6421521325062634e-01 0.0000000000000000e+00  1.3047654819369012e-01 8.6701888992025999e-01 0.0000000000000000e+00  1.3028930128547367e-01 8.7183275597492516e-01 0.0000000000000000e+00  1.3041309037844312e-01 8.7552049494007145e-01 0.0000000000000000e+00  1.3029690735220001e-01 8.7973230362018129e-01 0.0000000000000000e+00  1.3043191933138454e-01 8.8330480744644513e-01 0.0000000000000000e+00  1.3026469844959010e-01 8.8796693333028764e-01 0.0000000000000000e+00  1.3041457405039325e-01 8.9139894390250429e-01 0.0000000000000000e+00  1.3031345936915312e-01 8.9548905601166795e-01 0.0000000000000000e+00  1.3033390489004423e-01 9.0003860662911250e-01 0.0000000000000000e+00  1.3035960017058054e-01 9.0302367316080812e-01 0.0000000000000000e+00  1.3033640415557554e-01 9.0795300174787996e-01 0.0000000000000000e+00  1.3029180883947283e-01 9.1153714236035466e-01 0.0000000000000000e+00  1.3038856457430936e-01 9.1543190364382598e-01 0.0000000000000000e+00  1.3029767133331555e-01 9.1940284425929630e-01 0.0000000000000000e+00  1.3028806672312970e-01 9.2423045471290388e-01 0.0000000000000000e+00  1.3041876128521712e-01 9.2625956325872028e-01 0.0000000000000000e+00  1.3019354411526879e-01 9.3297299002109435e-01 0.0000000000000000e+00  1.3041538339420480e-01 9.3418699905146740e-01 0.0000000000000000e+00  1.3027661651074660e-01 9.4017029710126609e-01 0.0000000000000000e+00  1.3025670087200056e-01 9.4345359112359850e-01 0.0000000000000000e+00  1.3043035839448439e-01 9.4674900377077220e-01 0.0000000000000000e+00  1.3015373711595252e-01 9.5222902010789878e-01 0.0000000000000000e+00  1.3039605365160811e-01 9.5495364811728101e-01 0.0000000000000000e+00  1.3031795560337570e-01 9.5867832841593448e-01 0.0000000000000000e+00  1.3010694992388103e-01 9.6536430464852940e-01 0.0000000000000000e+00  1.3064319299174337e-01 9.6372136514024209e-01 0.0000000000000000e+00  1.2977556109244417e-01 9.7613774133472853e-01 0.0000000000000000e+00  1.3091014244430038e-01 9.6926104172066097e-01 0.0000000000000000e+00  1.2956304290005968e-01 9.8587587507785479e-01 0.0000000000000000e+00  1.3102402265103841e-01 9.7612057639411021e-01 0.0000000000000000e+00  1.2951987614178700e-01 9.9414014873661882e-01 0.0000000000000000e+00  1.3097701043059873e-01 9.8436849231205947e-01 0.0000000000000000e+00  1.2960613853503553e-01 1.0012759692036224e+00 0.0000000000000000e+00  1.3085314009192636e-01 9.9327617946038915e-01 0.0000000000000000e+00  1.2971888045123195e-01 1.0081761125233024e+00 0.0000000000000000e+00  1.3073448575493402e-01 1.0021318487169131e+00 0.0000000000000000e+00  1.2981456508442910e-01 1.0152181832593430e+00 0.0000000000000000e+00  1.3063056778661120e-01 1.0108531985887850e+00 0.0000000000000000e+00  1.2989599792303008e-01 1.0223775558804118e+00 0.0000000000000000e+00  1.3054416117693354e-01 1.0194165919106439e+00 0.0000000000000000e+00  1.2995171608802614e-01 1.0297534290372150e+00 0.0000000000000000e+00  1.3048698075765383e-01 1.0277207680816740e+00 0.0000000000000000e+00  1.2997928372961171e-01 1.0373667250278475e+00 0.0000000000000000e+00  1.3044937346317456e-01 1.0358498110407208e+00 0.0000000000000000e+00  1.2999593328456946e-01 1.0450676256172753e+00 0.0000000000000000e+00  1.3041485529822613e-01 1.0439471247957068e+00 0.0000000000000000e+00  1.3001152746000849e-01 1.0527702285529232e+00 0.0000000000000000e+00  1.3038192357257611e-01 1.0520261030613098e+00 0.0000000000000000e+00  1.3002141641736698e-01 1.0605146554635978e+00 0.0000000000000000e+00  1.3035724332318843e-01 1.0600291516352665e+00 0.0000000000000000e+00  1.3002017008362279e-01 1.0683479223506940e+00 0.0000000000000000e+00  1.3034297585388921e-01 1.0679376365891111e+00 0.0000000000000000e+00  1.3000894994151832e-01 1.0762599336806911e+00 0.0000000000000000e+00  1.3033553070342913e-01 1.0757827524448154e+00 0.0000000000000000e+00  1.2999233288644757e-01 1.0842110185349143e+00 0.0000000000000000e+00  1.3033056210206045e-01 1.0836021876695241e+00 0.0000000000000000e+00  1.2997371162417135e-01 1.0921718476989180e+00 0.0000000000000000e+00  1.3032608923960762e-01 1.0914130554615653e+00 0.0000000000000000e+00  1.2995322859010702e-01 1.1001413700695255e+00 0.0000000000000000e+00  1.3032553880507283e-01 1.0991854971954846e+00 0.0000000000000000e+00  1.2991994887345160e-01 1.1082147745463893e+00 0.0000000000000000e+00  1.3035740362310835e-01 1.1066720570688755e+00 0.0000000000000000e+00  1.2981807123110908e-01 1.1168770568263846e+00 0.0000000000000000e+00  1.3052010617639123e-01 1.1130183074616189e+00 0.0000000000000000e+00  1.2951883750832111e-01 1.1272480428997971e+00 0.0000000000000000e+00  1.3096071563226167e-01 1.1169484308771866e+00 0.0000000000000000e+00  1.2894121127698230e-01 1.1400363407154435e+00 0.0000000000000000e+00  1.3161802844961776e-01 1.1189951030780538e+00 0.0000000000000000e+00  1.2833740640700148e-01 1.1530541157494714e+00 0.0000000000000000e+00  1.3198514413796061e-01 1.1235514746038753e+00 0.0000000000000000e+00  1.2823642482824424e-01 1.1616946272393660e+00 0.0000000000000000e+00  1.3166389057415320e-01 1.1340664988858273e+00 0.0000000000000000e+00  1.2867527760677230e-01 1.1656280353563733e+00 0.0000000000000000e+00  1.3115786317863296e-01 1.1461818604643781e+00 0.0000000000000000e+00  1.2898725163065741e-01 1.1706570543678994e+00 0.0000000000000000e+00  1.3097222230442443e-01 1.1555179102027868e+00 0.0000000000000000e+00  1.2911989235861041e-01 1.1772394847704337e+00 0.0000000000000000e+00  1.3070557817122139e-01 1.1655534740993270e+00 0.0000000000000000e+00  1.2949424681118810e-01 1.1817124258315017e+00 0.0000000000000000e+00  1.3017945776011816e-01 1.1778406812703837e+00 0.0000000000000000e+00  1.3009391213520788e-01 1.1842197682623952e+00 0.0000000000000000e+00  1.2937386626088546e-01 1.1925610291208455e+00 0.0000000000000000e+00  1.3118153726680828e-01 1.1824889440434823e+00 0.0000000000000000e+00  1.2788947732894948e-01 1.2132095099882807e+00 0.0000000000000000e+00  1.3315678702248512e-01 1.1730842203564606e+00 0.0000000000000000e+00  1.2556559586882796e-01 1.2412504055698943e+00 0.0000000000000000e+00  1.3605735556481022e-01 1.1557474964121373e+00 0.0000000000000000e+00  1.2264634583617227e-01 1.2746484081671727e+00 0.0000000000000000e+00  1.3939436830721214e-01 1.1347548992818746e+00 0.0000000000000000e+00  1.1992020751549001e-01 1.3065240770620044e+00 0.0000000000000000e+00  1.4175709784781779e-01 1.1221790974467651e+00 0.0000000000000000e+00  1.1887831465773190e-01 1.3235711216540018e+00 0.0000000000000000e+00  1.4071068747061577e-01 1.1387457642644234e+00 0.0000000000000000e+00  1.2179352075107620e-01 1.3055179716136092e+00 0.0000000000000000e+00  1.343798