<?xml version="1.0"?>
<VTKFile type="UnstructuredGrid"  version="0.1"  >
<UnstructuredGrid>
<Piece  NumberOfPoints="801" NumberOfCells="800">
<Points>
<DataArray  type="Float64"  NumberOfComponents="3"  format="ascii">-5 0 0  -4.9875 0 0  -4.975 0 0  -4.9625 0 0  -4.95 0 0  -4.9375 0 0  -4.925 0 0  -4.9125 0 0  -4.9 0 0  -4.8875 0 0  -4.875 0 0  -4.8625 0 0  -4.85 0 0  -4.8375 0 0  -4.825 0 0  -4.8125 0 0  -4.8 0 0  -4.7875 0 0  -4.775 0 0  -4.7625 0 0  -4.75 0 0  -4.7375 0 0  -4.725 0 0  -4.7125 0 0  -4.7 0 0  -4.6875 0 0  -4.675 0 0  -4.6625 0 0  -4.65 0 0  -4.6375 0 0  -4.625 0 0  -4.6125 0 0  -4.6 0 0  -4.5875 0 0  -4.575 0 0  -4.5625 0 0  -4.55 0 0  -4.5375 0 0  -4.525 0 0  -4.5125 0 0  -4.5 0 0  -4.4875 0 0  -4.475 0 0  -4.4625 0 0  -4.45 0 0  -4.4375 0 0  -4.425 0 0  -4.4125 0 0  -4.4 0 0  -4.3875 0 0  -4.375 0 0  -4.3625 0 0  -4.35 0 0  -4.3375 0 0  -4.325 0 0  -4.3125 0 0  -4.3 0 0  -4.2875 0 0  -4.275 0 0  -4.2625 0 0  -4.25 0 0  -4.2375 0 0  -4.225 0 0  -4.2125 0 0  -4.2 0 0  -4.1875 0 0  -4.175 0 0  -4.1625 0 0  -4.15 0 0  -4.1375 0 0  -4.125 0 0  -4.1125 0 0  -4.1 0 0  -4.0875 0 0  -4.075 0 0  -4.0625 0 0  -4.05 0 0  -4.0375 0 0  -4.025 0 0  -4.0125 0 0  -4 0 0  -3.9875 0 0  -3.975 0 0  -3.9625 0 0  -3.95 0 0  -3.9375 0 0  -3.925 0 0  -3.9125 0 0  -3.9 0 0  -3.8875 0 0  -3.875 0 0  -3.8625 0 0  -3.85 0 0  -3.8375 0 0  -3.825 0 0  -3.8125 0 0  -3.8 0 0  -3.7875 0 0  -3.775 0 0  -3.7625 0 0  -3.75 0 0  -3.7375 0 0  -3.725 0 0  -3.7125 0 0  -3.7 0 0  -3.6875 0 0  -3.675 0 0  -3.6625 0 0  -3.65 0 0  -3.6375 0 0  -3.625 0 0  -3.6125 0 0  -3.6 0 0  -3.5875 0 0  -3.575 0 0  -3.5625 0 0  -3.55 0 0  -3.5375 0 0  -3.525 0 0  -3.5125 0 0  -3.5 0 0  -3.4875 0 0  -3.475 0 0  -3.4625 0 0  -3.45 0 0  -3.4375 0 0  -3.425 0 0  -3.4125 0 0  -3.4 0 0  -3.3875 0 0  -3.375 0 0  -3.3625 0 0  -3.35 0 0  -3.3375 0 0  -3.325 0 0  -3.3125 0 0  -3.3 0 0  -3.2875 0 0  -3.275 0 0  -3.2625 0 0  -3.25 0 0  -3.2375 0 0  -3.225 0 0  -3.2125 0 0  -3.2 0 0  -3.1875 0 0  -3.175 0 0  -3.1625 0 0  -3.15 0 0  -3.1375 0 0  -3.125 0 0  -3.1125 0 0  -3.1 0 0  -3.0875 0 0  -3.075 0 0  -3.0625 0 0  -3.05 0 0  -3.0375 0 0  -3.025 0 0  -3.0125 0 0  -3 0 0  -2.9875 0 0  -2.975 0 0  -2.9625 0 0  -2.95 0 0  -2.9375 0 0  -2.925 0 0  -2.9125 0 0  -2.9 0 0  -2.8875 0 0  -2.875 0 0  -2.8625 0 0  -2.85 0 0  -2.8375 0 0  -2.825 0 0  -2.8125 0 0  -2.8 0 0  -2.7875 0 0  -2.775 0 0  -2.7625 0 0  -2.75 0 0  -2.7375 0 0  -2.725 0 0  -2.7125 0 0  -2.7 0 0  -2.6875 0 0  -2.675 0 0  -2.6625 0 0  -2.65 0 0  -2.6375 0 0  -2.625 0 0  -2.6125 0 0  -2.6 0 0  -2.5875 0 0  -2.575 0 0  -2.5625 0 0  -2.55 0 0  -2.5375 0 0  -2.525 0 0  -2.5125 0 0  -2.5 0 0  -2.4875 0 0  -2.475 0 0  -2.4625 0 0  -2.45 0 0  -2.4375 0 0  -2.425 0 0  -2.4125 0 0  -2.4 0 0  -2.3875 0 0  -2.375 0 0  -2.3625 0 0  -2.35 0 0  -2.3375 0 0  -2.325 0 0  -2.3125 0 0  -2.3 0 0  -2.2875 0 0  -2.275 0 0  -2.2625 0 0  -2.25 0 0  -2.2375 0 0  -2.225 0 0  -2.2125 0 0  -2.2 0 0  -2.1875 0 0  -2.175 0 0  -2.1625 0 0  -2.15 0 0  -2.1375 0 0  -2.125 0 0  -2.1125 0 0  -2.1 0 0  -2.0875 0 0  -2.075 0 0  -2.0625 0 0  -2.05 0 0  -2.0375 0 0  -2.025 0 0  -2.0125 0 0  -2 0 0  -1.9875 0 0  -1.975 0 0  -1.9625 0 0  -1.95 0 0  -1.9375 0 0  -1.925 0 0  -1.9125 0 0  -1.9 0 0  -1.8875 0 0  -1.875 0 0  -1.8625 0 0  -1.85 0 0  -1.8375 0 0  -1.825 0 0  -1.8125 0 0  -1.8 0 0  -1.7875 0 0  -1.775 0 0  -1.7625 0 0  -1.75 0 0  -1.7375 0 0  -1.725 0 0  -1.7125 0 0  -1.7 0 0  -1.6875 0 0  -1.675 0 0  -1.6625 0 0  -1.65 0 0  -1.6375 0 0  -1.625 0 0  -1.6125 0 0  -1.6 0 0  -1.5875 0 0  -1.575 0 0  -1.5625 0 0  -1.55 0 0  -1.5375 0 0  -1.525 0 0  -1.5125 0 0  -1.5 0 0  -1.4875 0 0  -1.475 0 0  -1.4625 0 0  -1.45 0 0  -1.4375 0 0  -1.425 0 0  -1.4125 0 0  -1.4 0 0  -1.3875 0 0  -1.375 0 0  -1.3625 0 0  -1.35 0 0  -1.3375 0 0  -1.325 0 0  -1.3125 0 0  -1.3 0 0  -1.2875 0 0  -1.275 0 0  -1.2625 0 0  -1.25 0 0  -1.2375 0 0  -1.225 0 0  -1.2125 0 0  -1.2 0 0  -1.1875 0 0  -1.175 0 0  -1.1625 0 0  -1.15 0 0  -1.1375 0 0  -1.125 0 0  -1.1125 0 0  -1.1 0 0  -1.0875 0 0  -1.075 0 0  -1.0625 0 0  -1.05 0 0  -1.0375 0 0  -1.025 0 0  -1.0125 0 0  -1 0 0  -0.9874999999999998 0 0  -0.9749999999999996 0 0  -0.9625000000000004 0 0  -0.9500000000000002 0 0  -0.9375 0 0  -0.9249999999999998 0 0  -0.9124999999999996 0 0  -0.9000000000000004 0 0  -0.8875000000000002 0 0  -0.875 0 0  -0.8624999999999998 0 0  -0.8499999999999996 0 0  -0.8375000000000004 0 0  -0.8250000000000002 0 0  -0.8125 0 0  -0.7999999999999998 0 0  -0.7874999999999996 0 0  -0.7750000000000004 0 0  -0.7625000000000002 0 0  -0.75 0 0  -0.7374999999999998 0 0  -0.7249999999999996 0 0  -0.7125000000000004 0 0  -0.7000000000000002 0 0  -0.6875 0 0  -0.6749999999999998 0 0  -0.6624999999999996 0 0  -0.6500000000000004 0 0  -0.6375000000000002 0 0  -0.625 0 0  -0.6124999999999998 0 0  -0.5999999999999996 0 0  -0.5875000000000004 0 0  -0.5750000000000002 0 0  -0.5625 0 0  -0.5499999999999998 0 0  -0.5374999999999996 0 0  -0.5250000000000004 0 0  -0.5125000000000002 0 0  -0.5 0 0  -0.4874999999999998 0 0  -0.4749999999999996 0 0  -0.4625000000000004 0 0  -0.4500000000000002 0 0  -0.4375 0 0  -0.4249999999999998 0 0  -0.4124999999999996 0 0  -0.4000000000000004 0 0  -0.3875000000000002 0 0  -0.375 0 0  -0.3624999999999998 0 0  -0.3499999999999996 0 0  -0.3375000000000004 0 0  -0.3250000000000002 0 0  -0.3125 0 0  -0.2999999999999998 0 0  -0.2874999999999996 0 0  -0.2750000000000004 0 0  -0.2625000000000002 0 0  -0.25 0 0  -0.2374999999999998 0 0  -0.2249999999999996 0 0  -0.2125000000000004 0 0  -0.2000000000000002 0 0  -0.1875 0 0  -0.1749999999999998 0 0  -0.1624999999999996 0 0  -0.1500000000000004 0 0  -0.1375000000000002 0 0  -0.125 0 0  -0.1124999999999998 0 0  -0.09999999999999964 0 0  -0.08750000000000036 0 0  -0.07500000000000018 0 0  -0.0625 0 0  -0.04999999999999982 0 0  -0.03749999999999964 0 0  -0.02500000000000036 0 0  -0.01250000000000018 0 0  0 0 0  0.01250000000000018 0 0  0.02500000000000036 0 0  0.03749999999999964 0 0  0.04999999999999982 0 0  0.0625 0 0  0.07500000000000018 0 0  0.08750000000000036 0 0  0.09999999999999964 0 0  0.1124999999999998 0 0  0.125 0 0  0.1375000000000002 0 0  0.1500000000000004 0 0  0.1624999999999996 0 0  0.1749999999999998 0 0  0.1875 0 0  0.2000000000000002 0 0  0.2125000000000004 0 0  0.2249999999999996 0 0  0.2374999999999998 0 0  0.25 0 0  0.2625000000000002 0 0  0.2750000000000004 0 0  0.2874999999999996 0 0  0.2999999999999998 0 0  0.3125 0 0  0.3250000000000002 0 0  0.3375000000000004 0 0  0.3499999999999996 0 0  0.3624999999999998 0 0  0.375 0 0  0.3875000000000002 0 0  0.4000000000000004 0 0  0.4124999999999996 0 0  0.4249999999999998 0 0  0.4375 0 0  0.4500000000000002 0 0  0.4625000000000004 0 0  0.4749999999999996 0 0  0.4874999999999998 0 0  0.5 0 0  0.5125000000000002 0 0  0.5250000000000004 0 0  0.5374999999999996 0 0  0.5499999999999998 0 0  0.5625 0 0  0.5750000000000002 0 0  0.5875000000000004 0 0  0.5999999999999996 0 0  0.6124999999999998 0 0  0.625 0 0  0.6375000000000002 0 0  0.6500000000000004 0 0  0.6624999999999996 0 0  0.6749999999999998 0 0  0.6875 0 0  0.7000000000000002 0 0  0.7125000000000004 0 0  0.7249999999999996 0 0  0.7374999999999998 0 0  0.75 0 0  0.7625000000000002 0 0  0.7750000000000004 0 0  0.7874999999999996 0 0  0.7999999999999998 0 0  0.8125 0 0  0.8250000000000002 0 0  0.8375000000000004 0 0  0.8499999999999996 0 0  0.8624999999999998 0 0  0.875 0 0  0.8875000000000002 0 0  0.9000000000000004 0 0  0.9124999999999996 0 0  0.9249999999999998 0 0  0.9375 0 0  0.9500000000000002 0 0  0.9625000000000004 0 0  0.9749999999999996 0 0  0.9874999999999998 0 0  1 0 0  1.0125 0 0  1.025 0 0  1.0375 0 0  1.05 0 0  1.0625 0 0  1.075 0 0  1.0875 0 0  1.1 0 0  1.1125 0 0  1.125 0 0  1.1375 0 0  1.15 0 0  1.1625 0 0  1.175 0 0  1.1875 0 0  1.2 0 0  1.2125 0 0  1.225 0 0  1.2375 0 0  1.25 0 0  1.2625 0 0  1.275 0 0  1.2875 0 0  1.3 0 0  1.3125 0 0  1.325 0 0  1.3375 0 0  1.35 0 0  1.3625 0 0  1.375 0 0  1.3875 0 0  1.4 0 0  1.4125 0 0  1.425 0 0  1.4375 0 0  1.45 0 0  1.4625 0 0  1.475 0 0  1.4875 0 0  1.5 0 0  1.5125 0 0  1.525 0 0  1.5375 0 0  1.55 0 0  1.5625 0 0  1.575 0 0  1.5875 0 0  1.6 0 0  1.6125 0 0  1.625 0 0  1.6375 0 0  1.65 0 0  1.6625 0 0  1.675 0 0  1.6875 0 0  1.7 0 0  1.7125 0 0  1.725 0 0  1.7375 0 0  1.75 0 0  1.7625 0 0  1.775 0 0  1.7875 0 0  1.8 0 0  1.8125 0 0  1.825 0 0  1.8375 0 0  1.85 0 0  1.8625 0 0  1.875 0 0  1.8875 0 0  1.9 0 0  1.9125 0 0  1.925 0 0  1.9375 0 0  1.95 0 0  1.9625 0 0  1.975 0 0  1.9875 0 0  2 0 0  2.0125 0 0  2.025 0 0  2.0375 0 0  2.05 0 0  2.0625 0 0  2.075 0 0  2.0875 0 0  2.1 0 0  2.1125 0 0  2.125 0 0  2.1375 0 0  2.15 0 0  2.1625 0 0  2.175 0 0  2.1875 0 0  2.2 0 0  2.2125 0 0  2.225 0 0  2.2375 0 0  2.25 0 0  2.2625 0 0  2.275 0 0  2.2875 0 0  2.3 0 0  2.3125 0 0  2.325 0 0  2.3375 0 0  2.35 0 0  2.3625 0 0  2.375 0 0  2.3875 0 0  2.4 0 0  2.4125 0 0  2.425 0 0  2.4375 0 0  2.45 0 0  2.4625 0 0  2.475 0 0  2.4875 0 0  2.5 0 0  2.5125 0 0  2.525 0 0  2.5375 0 0  2.55 0 0  2.5625 0 0  2.575 0 0  2.5875 0 0  2.6 0 0  2.6125 0 0  2.625 0 0  2.6375 0 0  2.65 0 0  2.6625 0 0  2.675 0 0  2.6875 0 0  2.7 0 0  2.7125 0 0  2.725 0 0  2.7375 0 0  2.75 0 0  2.7625 0 0  2.775 0 0  2.7875 0 0  2.8 0 0  2.8125 0 0  2.825 0 0  2.8375 0 0  2.85 0 0  2.8625 0 0  2.875 0 0  2.8875 0 0  2.9 0 0  2.9125 0 0  2.925 0 0  2.9375 0 0  2.95 0 0  2.9625 0 0  2.975 0 0  2.9875 0 0  3 0 0  3.012499999999999 0 0  3.025 0 0  3.0375 0 0  3.050000000000001 0 0  3.0625 0 0  3.074999999999999 0 0  3.0875 0 0  3.1 0 0  3.112500000000001 0 0  3.125 0 0  3.137499999999999 0 0  3.15 0 0  3.1625 0 0  3.175000000000001 0 0  3.1875 0 0  3.199999999999999 0 0  3.2125 0 0  3.225 0 0  3.237500000000001 0 0  3.25 0 0  3.262499999999999 0 0  3.275 0 0  3.2875 0 0  3.300000000000001 0 0  3.3125 0 0  3.324999999999999 0 0  3.3375 0 0  3.35 0 0  3.362500000000001 0 0  3.375 0 0  3.387499999999999 0 0  3.4 0 0  3.4125 0 0  3.425000000000001 0 0  3.4375 0 0  3.449999999999999 0 0  3.4625 0 0  3.475 0 0  3.4875
[...]
<PointData  Vectors="(h, u)"> 
<DataArray  type="Float64"  Name="(h, u)"  NumberOfComponents="3" format="ascii">1.0666336639989284e-01 0.0000000000000000e+00 0.0000000000000000e+00  1.0470765987105819e-01 2.6839394768609745e-03 0.0000000000000000e+00  1.0669687178123097e-01 1.0463175800449667e-02 0.0000000000000000e+00  1.0463559968628243e-01 7.9884186677648284e-03 0.0000000000000000e+00  1.0679750318415128e-01 2.1046378895494221e-02 0.0000000000000000e+00  1.0449132103852081e-01 1.3106692946121290e-02 0.0000000000000000e+00  1.0696544920893057e-01 3.1860872020406175e-02 0.0000000000000000e+00  1.0427481579691042e-01 1.7928045798357897e-02 0.0000000000000000e+00  1.0720051819774963e-01 4.3000399410843777e-02 0.0000000000000000e+00  1.0398680558521012e-01 2.2362191680713621e-02 0.0000000000000000e+00  1.0750144180754821e-01 5.4532587382084413e-02 0.0000000000000000e+00  1.0362951952321796e-01 2.6347814192290899e-02 0.0000000000000000e+00  1.0786502387023784e-01 6.6490876434032870e-02 0.0000000000000000e+00  1.0320756467477754e-01 2.9860957270939379e-02 0.0000000000000000e+00  1.0828525363384604e-01 7.8867632425285744e-02 0.0000000000000000e+00  1.0272875779029023e-01 3.2922588132817773e-02 0.0000000000000000e+00  1.0875252580815375e-01 9.1609311343236757e-02 0.0000000000000000e+00  1.0220477145037045e-01 3.5604326711492773e-02 0.0000000000000000e+00  1.0925312015427736e-01 1.0461465288737297e-01 0.0000000000000000e+00  1.0165144761642995e-01 3.8031101190756138e-02 0.0000000000000000e+00  1.0976908512470185e-01 1.1773678891103445e-01 0.0000000000000000e+00  1.0108865155750671e-01 4.0379425190103339e-02 0.0000000000000000e+00  1.1027863908716727e-01 1.3078984849145439e-01 0.0000000000000000e+00  1.0053958216763904e-01 4.2870180699975988e-02 0.0000000000000000e+00  1.1075714768896119e-01 1.4356014590017604e-01 0.0000000000000000e+00  1.0002952038282513e-01 4.5755294866956148e-02 0.0000000000000000e+00  1.1117865983928787e-01 1.5582142249863554e-01 0.0000000000000000e+00  9.9584080220018134e-02 4.9298533951389396e-02 0.0000000000000000e+00  1.1151789534593938e-01 1.6735298328226633e-01 0.0000000000000000e+00  9.9227115580884429e-02 5.3751735917184330e-02 0.0000000000000000e+00  1.1175248715510913e-01 1.7795903677655350e-01 0.0000000000000000e+00  9.8978514479053703e-02 5.9328980207228835e-02 0.0000000000000000e+00  1.1186520743820123e-01 1.8748720780261718e-01 0.0000000000000000e+00  9.8852163406813215e-02 6.6182152315056003e-02 0.0000000000000000e+00  1.1184586830885598e-01 1.9584410376585029e-01 0.0000000000000000e+00  9.8854373536799767e-02 7.4381759102017775e-02 0.0000000000000000e+00  1.1169260039675903e-01 2.0300599566286381e-01 0.0000000000000000e+00  9.8983019525225729e-02 8.3906430283568367e-02 0.0000000000000000e+00  1.1141228208084733e-01 2.0902311429942086e-01 0.0000000000000000e+00  9.9227553045563327e-02 9.4643265320382114e-02 0.0000000000000000e+00  1.1102001156579713e-01 2.1401672382725279e-01 0.0000000000000000e+00  9.9569930405542753e-02 1.0639929913764078e-01 0.0000000000000000e+00  1.1053766248271908e-01 2.1816895515924914e-01 0.0000000000000000e+00  9.9986359021745450e-02 1.1892233521469313e-01 0.0000000000000000e+00  1.0999171120446045e-01 2.2170627846341528e-01 0.0000000000000000e+00  1.0044964541363569e-01 1.3192776932060957e-01 0.0000000000000000e+00  1.0941063792383457e-01 2.2487837759736631e-01 0.0000000000000000e+00  1.0093183734576217e-01 1.4512721372169862e-01 0.0000000000000000e+00  1.0882225862170272e-01 2.2793495046406423e-01 0.0000000000000000e+00  1.0140680875328695e-01 1.5825485644401976e-01 0.0000000000000000e+00  1.0825133397937320e-01 2.3110343157269728e-01 0.0000000000000000e+00  1.0185244857442344e-01 1.7108835908089925e-01 0.0000000000000000e+00  1.0771773590728907e-01 2.3457061435324345e-01 0.0000000000000000e+00  1.0225218701273942e-01 1.8346233774628551e-01 0.0000000000000000e+00  1.0723535266109303e-01 2.3847053011763281e-01 0.0000000000000000e+00  1.0259571276355514e-01 1.9527375962413654e-01 0.0000000000000000e+00  1.0681179626868036e-01 2.4287981980580672e-01 0.0000000000000000e+00  1.0287887452064269e-01 2.0647974309688802e-01 0.0000000000000000e+00  1.0644885685237919e-01 2.4782048703939563e-01 0.0000000000000000e+00  1.0310288995091667e-01 2.1708916352524563e-01 0.0000000000000000e+00  1.0614354776757987e-01 2.5326865334917925e-01 0.0000000000000000e+00  1.0327308205676539e-01 2.2715005607774566e-01 0.0000000000000000e+00  1.0588951843941999e-01 2.5916705414738472e-01 0.0000000000000000e+00  1.0339740385396302e-01 2.3673510303595896e-01 0.0000000000000000e+00  1.0567857694074968e-01 2.6543880143942400e-01 0.0000000000000000e+00  1.0348498425933632e-01 2.4592758683894325e-01 0.0000000000000000e+00  1.0550206383109839e-01 2.7200039247952151e-01 0.0000000000000000e+00  1.0354485896038018e-01 2.5480993370500837e-01 0.0000000000000000e+00  1.0535188155213947e-01 2.7877255696448805e-01 0.0000000000000000e+00  1.0358500024509994e-01 2.6345604134030171e-01 0.0000000000000000e+00  1.0522112084283788e-01 2.8568782289785499e-01 0.0000000000000000e+00  1.0361174057300930e-01 2.7192720720722330e-01 0.0000000000000000e+00  1.0510436060075851e-01 2.9269397444166279e-01 0.0000000000000000e+00  1.0362962747214260e-01 2.8027064871376944e-01 0.0000000000000000e+00  1.0499774536305845e-01 2.9975355994673109e-01 0.0000000000000000e+00  1.0364162548811545e-01 2.8851983612261822e-01 0.0000000000000000e+00  1.0489888612943338e-01 3.0684089834623773e-01 0.0000000000000000e+00  1.0364949651663616e-01 2.9669625495003854e-01 0.0000000000000000e+00  1.0480660670829725e-01 3.1393843067948596e-01 0.0000000000000000e+00  1.0365421803826837e-01 3.0481200834662087e-01 0.0000000000000000e+00  1.0472058370181206e-01 3.2103373193086615e-01 0.0000000000000000e+00  1.0365635413535898e-01 3.1287254900392408e-01 0.0000000000000000e+00  1.0464093220316850e-01 3.2811790741002916e-01 0.0000000000000000e+00  1.0365632542154750e-01 3.2087910817621956e-01 0.0000000000000000e+00  1.0456782517075013e-01 3.3518512630431146e-01 0.0000000000000000e+00  1.0365460682673137e-01 3.2883016464630266e-01 0.0000000000000000e+00  1.0450130968383137e-01 3.4223178863079662e-01 0.0000000000000000e+00  1.0365190322074815e-01 3.3672155858896946e-01 0.0000000000000000e+00  1.0444133538809286e-01 3.4925492170005112e-01 0.0000000000000000e+00  1.0364914697875718e-01 3.4454715404444392e-01 0.0000000000000000e+00  1.0438769636288753e-01 3.5625232442175292e-01 0.0000000000000000e+00  1.0364716768552354e-01 3.5230201373451425e-01 0.0000000000000000e+00  1.0433974064924545e-01 3.6322552871263558e-01 0.0000000000000000e+00  1.0364648148480372e-01 3.5998421289704657e-01 0.0000000000000000e+00  1.0429616514788267e-01 3.7018224883393797e-01 0.0000000000000000e+00  1.0364786156937568e-01 3.6758920058313466e-01 0.0000000000000000e+00  1.0425488965468305e-01 3.7713820682068949e-01 0.0000000000000000e+00  1.0365344798314985e-01 3.7509919149311771e-01 0.0000000000000000e+00  1.0421239878159745e-01 3.8412411509951044e-01 0.0000000000000000e+00  1.0366762513004643e-01 3.8247500906467857e-01 0.0000000000000000e+00  1.0416267250904383e-01 3.9119649538244178e-01 0.0000000000000000e+00  1.0369748379696403e-01 3.8965196773481015e-01 0.0000000000000000e+00  1.0409681909470488e-01 3.9844142607443128e-01 0.0000000000000000e+00  1.0375264566577633e-01 3.9654181841537101e-01 0.0000000000000000e+00  1.0400409314850982e-01 4.0596463899084645e-01 0.0000000000000000e+00  1.0384378331127483e-01 4.0304728673062856e-01 0.0000000000000000e+00  1.0387444269470485e-01 4.1386677649003023e-01 0.0000000000000000e+00  1.0397977565525368e-01 4.0908993506494462e-01 0.0000000000000000e+00  1.0370215295392431e-01 4.2220813721382316e-01 0.0000000000000000e+00  1.0416375998952296e-01 4.1464871628054623e-01 0.0000000000000000e+00  1.0348900941773426e-01 4.3097786764672541e-01 0.0000000000000000e+00  1.0438925315170949e-01 4.1979714998415008e-01 0.0000000000000000e+00  1.0324643626869698e-01 4.4007197274516591e-01 0.0000000000000000e+00  1.0463935313127966e-01 4.2470887672371560e-01 0.0000000000000000e+00  1.0299636032706358e-01 4.4928186187508568e-01 0.0000000000000000e+00  1.0488911231158167e-01 4.2963058359442891e-01 0.0000000000000000e+00  1.0276767318976521e-01 4.5832439500923805e-01 0.0000000000000000e+00  1.0510867083797489e-01 4.3484745873250180e-01 0.0000000000000000e+00  1.0258903960706703e-01 4.6690862901983232e-01 0.0000000000000000e+00  1.0526918617378793e-01 4.4062426250302550e-01 0.0000000000000000e+00  1.0248353983998808e-01 4.7478902824642566e-01 0.0000000000000000e+00  1.0535064614376319e-01 4.4713305112084228e-01 0.0000000000000000e+00  1.0246414979693877e-01 4.8181548851674139e-01 0.0000000000000000e+00  1.0534543093168450e-01 4.5442650409045815e-01 0.0000000000000000e+00  1.0252996353447930e-01 4.8797839842150381e-01 0.0000000000000000e+00  1.0525891843204235e-01 4.6244018763560724e-01 0.0000000000000000e+00  1.0266767208246320e-01 4.9340059477877718e-01 0.0000000000000000e+00  1.0510825160362879e-01 4.7100851947586525e-01 0.0000000000000000e+00  1.0285565308769720e-01 4.9829853802190271e-01 0.0000000000000000e+00  1.0491785500667002e-01 4.7990651683259933e-01 0.0000000000000000e+00  1.0306933112581529e-01 5.0292585663479739e-01 0.0000000000000000e+00  1.0471423927043860e-01 4.8889427205264091e-01 0.0000000000000000e+00  1.0328536014255808e-01 5.0752600641219459e-01 0.0000000000000000e+00  1.0451917587477892e-01 4.9777677309487411e-01 0.0000000000000000e+00  1.0348420364873370e-01 5.1230163684430763e-01 0.0000000000000000e+00  1.0434827743234711e-01 5.0641351216658104e-01 0.0000000000000000e+00  1.0365571742756027e-01 5.1735810777560809e-01 0.0000000000000000e+00  1.0421135028725130e-01 5.1471421434387254e-01 0.0000000000000000e+00  1.0379552765608355e-01 5.2273923127318800e-01 0.0000000000000000e+00  1.0410811403530562e-01 5.2268198279408440e-01 0.0000000000000000e+00  1.0390295510741109e-01 5.2844946231759027e-01 0.0000000000000000e+00  1.0403596453976129e-01 5.3034006442997683e-01 0.0000000000000000e+00  1.0398414368362241e-01 5.3442573972891050e-01 0.0000000000000000e+00  1.0399099813597097e-01 5.3772375624021274e-01 0.0000000000000000e+00  1.0404286480094216e-01 5.4062815798439934e-01 0.0000000000000000e+00  1.0396666430266374e-01 5.4489444115542141e-01 0.0000000000000000e+00  1.0408294635415571e-01 5.4701691994872659e-01 0.0000000000000000e+00  1.0396051852005039e-01 5.5187430446736041e-01 0.0000000000000000e+00  1.0410741933982801e-01 5.5356071840670040e-01 0.0000000000000000e+00  1.0396998866552440e-01 5.5868738960446718e-01 0.0000000000000000e+00  1.0411791509846213e-01 5.6024242054939488e-01 0.0000000000000000e+00  1.0399435861273519e-01 5.6534018451681312e-01 0.0000000000000000e+00  1.0411529800877808e-01 5.6705278214759947e-01 0.0000000000000000e+00  1.0402974976254847e-01 5.7187019931174121e-01 0.0000000000000000e+00  1.0410146095201357e-01 5.7397291399748751e-01 0.0000000000000000e+00  1.0407658837145335e-01 5.7827344663585811e-01 0.0000000000000000e+00  1.0408212157858046e-01 5.8094717193897105e-01 0.0000000000000000e+00  1.0412797131132238e-01 5.8461735285772753e-01 0.0000000000000000e+00  1.0405616844323860e-01 5.8798648160292610e-01 0.0000000000000000e+00  1.0418043270798003e-01 5.9093607139096938e-01 0.0000000000000000e+00  1.0403427258952980e-01 5.9498762322040066e-01 0.0000000000000000e+00  1.0423250039622542e-01 5.9724451811879420e-01 0.0000000000000000e+00  1.0401412171904088e-01 6.0197346419288811e-01 0.0000000000000000e+00  1.0427679637265240e-01 6.0361470944074647e-01 0.0000000000000000e+00  1.0400193225923969e-01 6.0888397226769753e-01 0.0000000000000000e+00  1.0431750368657910e-01 6.1000624459975694e-01 0.0000000000000000e+00  1.0399589700333674e-01 6.1573684302789877e-01 0.0000000000000000e+00  1.0434922584463298e-01 6.1647139718263300e-01 0.0000000000000000e+00  1.0399694801215863e-01 6.2252298224455416e-01 0.0000000000000000e+00  1.0437647691961816e-01 6.2296603624846070e-01 0.0000000000000000e+00  1.0400098196413084e-01 6.2928206380717544e-01 0.0000000000000000e+00  1.0439758510352110e-01 6.2950593604470728e-01 0.0000000000000000e+00  1.0401230012479808e-01 6.3597222240797113e-01 0.0000000000000000e+00  1.0441796256158789e-01 6.3603816837977567e-01 0.0000000000000000e+00  1.0402083938281728e-01 6.4269099482580327e-01 0.0000000000000000e+00  1.0443268695042510e-01 6.4261007762057076e-01 0.0000000000000000e+00  1.0403791406151663e-01 6.4932865729381306e-01 0.0000000000000000e+00  1.0445163704987083e-01 6.4912561666370172e-01 0.0000000000000000e+00  1.0404909407347943e-01 6.5602531787888407e-01 0.0000000000000000e+00  1.0446250541225487e-01 6.5570398083214321e-01 0.0000000000000000e+00  1.0406960814124246e-01 6.6263344792532419e-01 0.0000000000000000e+00  1.0447897561925071e-01 6.6221243693715370e-01 0.0000000000000000e+00  1.0408285338783184e-01 6.6931430856182306e-01 0.0000000000000000e+00  1.0448831146919879e-01 6.6877449785358267e-01 0.0000000000000000e+00  1.0410615130309847e-01 6.7590013708211860e-01 0.0000000000000000e+00  1.0449986159421663e-01 6.7529963378135260e-01 0.0000000000000000e+00  1.0411996294422557e-01 6.8258054082404451e-01 0.0000000000000000e+00  1.0451174660606480e-01 6.8180613103921772e-01 0.0000000000000000e+00  1.0414412798251257e-01 6.8916335760233527e-01 0.0000000000000000e+00  1.0451606824586857e-01 6.8837082668339800e-01 0.0000000000000000e+00  1.0415993393124025e-01 6.9582993765032419e-01 0.0000000000000000e+00  1.0453387141278961e-01 6.9478974896671586e-01 0.0000000000000000e+00  1.0418062820558066e-01 7.0245203798993383e-01 0.0000000000000000e+00  1.0452943141029962e-01 7.0140957465407561e-01 0.0000000000000000e+00  1.0420418186503143e-01 7.0904904640588795e-01 0.0000000000000000e+00  1.0455045568960432e-01 7.0776791809627415e-01 0.0000000000000000e+00  1.0421638850293279e-01 7.1575877029245094e-01 0.0000000000000000e+00  1.0454606944075458e-01 7.1435823816184230e-01 0.0000000000000000e+00  1.0425182536795352e-01 7.2224580455010057e-01 0.0000000000000000e+00  1.0455373945818244e-01 7.2081763127349807e-01 0.0000000000000000e+00  1.0425543832660882e-01 7.2904348798506424e-01 0.0000000000000000e+00  1.0456576386742621e-01 7.2722082120624909e-01 0.0000000000000000e+00  1.0429251219687184e-01 7.3551919832876622e-01 0.0000000000000000e+00  1.0455324213201304e-01 7.3384850075509822e-01 0.0000000000000000e+00  1.0431691245728111e-01 7.4211948887203305e-01 0.0000000000000000e+00  1.0457572509975067e-01 7.4012355453602718e-01 0.0000000000000000e+00  1.0431960523152081e-01 7.4893192938984721e-01 0.0000000000000000e+00  1.0456421303803991e-01 7.4671502729937855e-01 0.0000000000000000e+00  1.0437276347929390e-01 7.5525699158946069e-01 0.0000000000000000e+00  1.0454628372196291e-01 7.5335616995071786e-01 0.0000000000000000e+00  1.0437568425095231e-01 7.6206974921802728e-01 0.0000000000000000e+00  1.0458808536822245e-01 7.5940596583657038e-01 0.0000000000000000e+00  1.0439852434136382e-01 7.6869102863213545e-01 0.0000000000000000e+00  1.0455126176277284e-01 7.6620593152442518e-01 0.0000000000000000e+00  1.0447726071177663e-01 7.7477161624912649e-01 0.0000000000000000e+00  1.0454592913263429e-01 7.7268942791477269e-01 0.0000000000000000e+00  1.0445896220409610e-01 7.8179231354017487e-01 0.0000000000000000e+00  1.0459130689448941e-01 7.7867014714324367e-01 0.0000000000000000e+00  1.0447904084091891e-01 7.8844189705831869e-01 0.0000000000000000e+00  1.0452749814368302e-01 7.8569826247445973e-01 0.0000000000000000e+00  1.0457806499123252e-01 7.9432642667499131e-01 0.0000000000000000e+00  1.0448615936655871e-01 7.9249868215497621e-01 0.0000000000000000e+00  1.0455795696854107e-01 8.0136325467436220e-01 0.0000000000000000e+00  1.0457523649283192e-01 7.9802565193348196e-01 0.0000000000000000e+00  1.0450374399791723e-01 8.0872938735152211e-01 0.0000000000000000e+00  1.0456466069748151e-01 8.0450905555169971e-01 0.0000000000000000e+00  1.0462104990979036e-01 8.1443324929227179e-01 0.0000000000000000e+00  1.0444535407848705e-01 8.1203817421969560e-01 0.0000000000000000e+00  1.0469186981851748e-01 8.2058356681215650e-01 0.0000000000000000e+00  1.0451778524433084e-01 8.1770252332811943e-01 0.0000000000000000e+00  1.0453508743653363e-01 8.2893370180481263e-01 0.0000000000000000e+00  1.0471733374000257e-01 8.2212817715657394e-01 0.0000000000000000e+00  1.0442083730106111e-01 8.3686852498300102e-01 0.0000000000000000e+00  1.0472439624321368e-01 8.2841333542722240e-01 0.0000000000000000e+00  1.0455659935783758e-01 8.4237874508815536e-01 0.0000000000000000e+00  1.0453829188436298e-01 8.3656625429707177e-01 0.0000000000000000e+00  1.0474914973002022e-01 8.4733188119379899e-01 0.0000000000000000e+00  1.0445633598320395e-01 8.4370736094720578e-01 0.0000000000000000e+00  1.0470917115608395e-01 8.5452713009758530e-01 0.0000000000000000e+00  1.0465629020042419e-01 8.4811552270840984e-01 0.0000000000000000e+00  1.0441875912779593e-01 8.6413745683644927e-01 0.0000000000000000e+00  1.0500253991711120e-01 8.5110475387678475e-01 0.0000000000000000e+00  1.0410440653538705e-01 8.7397053336929953e-01 0.0000000000000000e+00  1.0525844897983214e-01 8.5496906701746400e-01 0.0000000000000000e+00  1.0394987597996411e-01 8.8224742655785815e-01 0.0000000000000000e+00  1.0533387191936540e-01 8.6058389045355321e-01 0.0000000000000000e+00  1.0396562642238745e-01 8.8886526033601931e-01 0.0000000000000000e+00  1.0527795776963615e-01 8.6747426059537591e-01 0.0000000000000000e+00  1.0408126526592455e-01 8.9450333950482286e-01 0.0000000000000000e+00  1.0517635874817260e-01 8.7481135559332857e-01 0.0000000000000000e+00  1.0423093011892491e-01 8.9979763007141877e-01 0.0000000000000000e+00  1.0509722815785963e-01 8.8193638530584317e-01 0.0000000000000000e+00  1.0439905737360919e-01 9.0489782960093934e-01 0.0000000000000000e+00  1.0504442875477822e-01 8.8881376700420744e-01 0.0000000000000000e+00  1.0453701891785377e-01 9.1027289991526428e-01 0.0000000000000000e+00  1.0505305159474662e-01 8.9510614639658115e-01 0.0000000000000000e+00  1.0443966460535276e-01 9.1790468650654433e-01 0.0000000000000000e+00  1.0507389766886525e-01 9.0129097885140363e-01 0.0000000000000000e+00  1.0449286927917228e-01 9.2405769456796938e-01 0.0000000000000000e+00  1.0455447121215067e-01 9.1272084114047769e-01 0.0000000000000000e+00  1.0485877693762546e-01 9.2715276443049666e-01 0.0000000000000000e+00  1.0474319706057912e-01 9.1731495381963457e-01 0.0000000000000000e+00  1.0394249040857047e-01 9.4263054785416578e-01 0.0000000000000000e+00  1.0594754219571681e-01 9.1209557220126047e-01 0.0000000000000000e+00  1.0299281953384359e-01 9.5841140014904391e-01 0.0000000000000000e+00  1.0631864941117049e-01 9.1496066997607062e-01 0.0000000000000000e+00  1.0289098397329439e-01 9.6595202504927724e-01 0.0000000000000000e+00  1.0625720126004855e-01 9.2203252737850205e-01 0.0000000000000000e+00  1.0315071704259773e-01 9.6996334135830897e-01 0.0000000000000000e+00  1.0604567667939285e-01 9.3056886155177410e-01 0.0000000000000000e+00  1.0411669368517559e-01 9.6712748746069876e-01 0.0000000000000000e+00  1.0585391795618661e-01 9.3891535277356863e-01 0.0000000000000000e+00  1.0613301158700046e-01 9.5421197142034786e-01 0.0000000000000000e+00  1.0553496052096641e-01 9.4846887049496187e-01 0.0000000000000000e+00  1.0917351365162022e-01 9.3165631348314548e-01 0.0000000000000000e+00  1.0789974338662014e-01 9.3235531993535925e-01 0.0000000000000000e+00  1.1209068652794360e-01 9.1070807935451592e-01 0.0000000000000000e+00  9.2308736764400032e-02 1.0902606536175627e+00 0.0000000000000000e+00  1.1048835142274518e-01 9.3274929194899725e-01 0.0000000000000000e+00  9.9241720563548796e-02 1.0279815715460883e+00 0.0000000000000000e+00  1.0428640728101264e-01 9.9950157623482905e-01 0.0000000000000000e+00  1.1143968946224399e-01 9.1619806728264708e-01 0.0000000000000000e+00  9.7369703504571400e-02 1.0733615000167207e+00 0.0000000000000000e+00  1.1138273838810901e-01 9.2290615886164429e-01 0.0000000000000000e+00  1.011613