<?xml version="1.0"?>
<VTKFile type="UnstructuredGrid"  version="0.1"  >
<UnstructuredGrid>
<Piece  NumberOfPoints="801" NumberOfCells="800">
<Points>
<DataArray  type="Float64"  NumberOfComponents="3"  format="ascii">-5 0 0  -4.9875 0 0  -4.975 0 0  -4.9625 0 0  -4.95 0 0  -4.9375 0 0  -4.925 0 0  -4.9125 0 0  -4.9 0 0  -4.8875 0 0  -4.875 0 0  -4.8625 0 0  -4.85 0 0  -4.8375 0 0  -4.825 0 0  -4.8125 0 0  -4.8 0 0  -4.7875 0 0  -4.775 0 0  -4.7625 0 0  -4.75 0 0  -4.7375 0 0  -4.725 0 0  -4.7125 0 0  -4.7 0 0  -4.6875 0 0  -4.675 0 0  -4.6625 0 0  -4.65 0 0  -4.6375 0 0  -4.625 0 0  -4.6125 0 0  -4.6 0 0  -4.5875 0 0  -4.575 0 0  -4.5625 0 0  -4.55 0 0  -4.5375 0 0  -4.525 0 0  -4.5125 0 0  -4.5 0 0  -4.4875 0 0  -4.475 0 0  -4.4625 0 0  -4.45 0 0  -4.4375 0 0  -4.425 0 0  -4.4125 0 0  -4.4 0 0  -4.3875 0 0  -4.375 0 0  -4.3625 0 0  -4.35 0 0  -4.3375 0 0  -4.325 0 0  -4.3125 0 0  -4.3 0 0  -4.2875 0 0  -4.275 0 0  -4.2625 0 0  -4.25 0 0  -4.2375 0 0  -4.225 0 0  -4.2125 0 0  -4.2 0 0  -4.1875 0 0  -4.175 0 0  -4.1625 0 0  -4.15 0 0  -4.1375 0 0  -4.125 0 0  -4.1125 0 0  -4.1 0 0  -4.0875 0 0  -4.075 0 0  -4.0625 0 0  -4.05 0 0  -4.0375 0 0  -4.025 0 0  -4.0125 0 0  -4 0 0  -3.9875 0 0  -3.975 0 0  -3.9625 0 0  -3.95 0 0  -3.9375 0 0  -3.925 0 0  -3.9125 0 0  -3.9 0 0  -3.8875 0 0  -3.875 0 0  -3.8625 0 0  -3.85 0 0  -3.8375 0 0  -3.825 0 0  -3.8125 0 0  -3.8 0 0  -3.7875 0 0  -3.775 0 0  -3.7625 0 0  -3.75 0 0  -3.7375 0 0  -3.725 0 0  -3.7125 0 0  -3.7 0 0  -3.6875 0 0  -3.675 0 0  -3.6625 0 0  -3.65 0 0  -3.6375 0 0  -3.625 0 0  -3.6125 0 0  -3.6 0 0  -3.5875 0 0  -3.575 0 0  -3.5625 0 0  -3.55 0 0  -3.5375 0 0  -3.525 0 0  -3.5125 0 0  -3.5 0 0  -3.4875 0 0  -3.475 0 0  -3.4625 0 0  -3.45 0 0  -3.4375 0 0  -3.425 0 0  -3.4125 0 0  -3.4 0 0  -3.3875 0 0  -3.375 0 0  -3.3625 0 0  -3.35 0 0  -3.3375 0 0  -3.325 0 0  -3.3125 0 0  -3.3 0 0  -3.2875 0 0  -3.275 0 0  -3.2625 0 0  -3.25 0 0  -3.2375 0 0  -3.225 0 0  -3.2125 0 0  -3.2 0 0  -3.1875 0 0  -3.175 0 0  -3.1625 0 0  -3.15 0 0  -3.1375 0 0  -3.125 0 0  -3.1125 0 0  -3.1 0 0  -3.0875 0 0  -3.075 0 0  -3.0625 0 0  -3.05 0 0  -3.0375 0 0  -3.025 0 0  -3.0125 0 0  -3 0 0  -2.9875 0 0  -2.975 0 0  -2.9625 0 0  -2.95 0 0  -2.9375 0 0  -2.925 0 0  -2.9125 0 0  -2.9 0 0  -2.8875 0 0  -2.875 0 0  -2.8625 0 0  -2.85 0 0  -2.8375 0 0  -2.825 0 0  -2.8125 0 0  -2.8 0 0  -2.7875 0 0  -2.775 0 0  -2.7625 0 0  -2.75 0 0  -2.7375 0 0  -2.725 0 0  -2.7125 0 0  -2.7 0 0  -2.6875 0 0  -2.675 0 0  -2.6625 0 0  -2.65 0 0  -2.6375 0 0  -2.625 0 0  -2.6125 0 0  -2.6 0 0  -2.5875 0 0  -2.575 0 0  -2.5625 0 0  -2.55 0 0  -2.5375 0 0  -2.525 0 0  -2.5125 0 0  -2.5 0 0  -2.4875 0 0  -2.475 0 0  -2.4625 0 0  -2.45 0 0  -2.4375 0 0  -2.425 0 0  -2.4125 0 0  -2.4 0 0  -2.3875 0 0  -2.375 0 0  -2.3625 0 0  -2.35 0 0  -2.3375 0 0  -2.325 0 0  -2.3125 0 0  -2.3 0 0  -2.2875 0 0  -2.275 0 0  -2.2625 0 0  -2.25 0 0  -2.2375 0 0  -2.225 0 0  -2.2125 0 0  -2.2 0 0  -2.1875 0 0  -2.175 0 0  -2.1625 0 0  -2.15 0 0  -2.1375 0 0  -2.125 0 0  -2.1125 0 0  -2.1 0 0  -2.0875 0 0  -2.075 0 0  -2.0625 0 0  -2.05 0 0  -2.0375 0 0  -2.025 0 0  -2.0125 0 0  -2 0 0  -1.9875 0 0  -1.975 0 0  -1.9625 0 0  -1.95 0 0  -1.9375 0 0  -1.925 0 0  -1.9125 0 0  -1.9 0 0  -1.8875 0 0  -1.875 0 0  -1.8625 0 0  -1.85 0 0  -1.8375 0 0  -1.825 0 0  -1.8125 0 0  -1.8 0 0  -1.7875 0 0  -1.775 0 0  -1.7625 0 0  -1.75 0 0  -1.7375 0 0  -1.725 0 0  -1.7125 0 0  -1.7 0 0  -1.6875 0 0  -1.675 0 0  -1.6625 0 0  -1.65 0 0  -1.6375 0 0  -1.625 0 0  -1.6125 0 0  -1.6 0 0  -1.5875 0 0  -1.575 0 0  -1.5625 0 0  -1.55 0 0  -1.5375 0 0  -1.525 0 0  -1.5125 0 0  -1.5 0 0  -1.4875 0 0  -1.475 0 0  -1.4625 0 0  -1.45 0 0  -1.4375 0 0  -1.425 0 0  -1.4125 0 0  -1.4 0 0  -1.3875 0 0  -1.375 0 0  -1.3625 0 0  -1.35 0 0  -1.3375 0 0  -1.325 0 0  -1.3125 0 0  -1.3 0 0  -1.2875 0 0  -1.275 0 0  -1.2625 0 0  -1.25 0 0  -1.2375 0 0  -1.225 0 0  -1.2125 0 0  -1.2 0 0  -1.1875 0 0  -1.175 0 0  -1.1625 0 0  -1.15 0 0  -1.1375 0 0  -1.125 0 0  -1.1125 0 0  -1.1 0 0  -1.0875 0 0  -1.075 0 0  -1.0625 0 0  -1.05 0 0  -1.0375 0 0  -1.025 0 0  -1.0125 0 0  -1 0 0  -0.9874999999999998 0 0  -0.9749999999999996 0 0  -0.9625000000000004 0 0  -0.9500000000000002 0 0  -0.9375 0 0  -0.9249999999999998 0 0  -0.9124999999999996 0 0  -0.9000000000000004 0 0  -0.8875000000000002 0 0  -0.875 0 0  -0.8624999999999998 0 0  -0.8499999999999996 0 0  -0.8375000000000004 0 0  -0.8250000000000002 0 0  -0.8125 0 0  -0.7999999999999998 0 0  -0.7874999999999996 0 0  -0.7750000000000004 0 0  -0.7625000000000002 0 0  -0.75 0 0  -0.7374999999999998 0 0  -0.7249999999999996 0 0  -0.7125000000000004 0 0  -0.7000000000000002 0 0  -0.6875 0 0  -0.6749999999999998 0 0  -0.6624999999999996 0 0  -0.6500000000000004 0 0  -0.6375000000000002 0 0  -0.625 0 0  -0.6124999999999998 0 0  -0.5999999999999996 0 0  -0.5875000000000004 0 0  -0.5750000000000002 0 0  -0.5625 0 0  -0.5499999999999998 0 0  -0.5374999999999996 0 0  -0.5250000000000004 0 0  -0.5125000000000002 0 0  -0.5 0 0  -0.4874999999999998 0 0  -0.4749999999999996 0 0  -0.4625000000000004 0 0  -0.4500000000000002 0 0  -0.4375 0 0  -0.4249999999999998 0 0  -0.4124999999999996 0 0  -0.4000000000000004 0 0  -0.3875000000000002 0 0  -0.375 0 0  -0.3624999999999998 0 0  -0.3499999999999996 0 0  -0.3375000000000004 0 0  -0.3250000000000002 0 0  -0.3125 0 0  -0.2999999999999998 0 0  -0.2874999999999996 0 0  -0.2750000000000004 0 0  -0.2625000000000002 0 0  -0.25 0 0  -0.2374999999999998 0 0  -0.2249999999999996 0 0  -0.2125000000000004 0 0  -0.2000000000000002 0 0  -0.1875 0 0  -0.1749999999999998 0 0  -0.1624999999999996 0 0  -0.1500000000000004 0 0  -0.1375000000000002 0 0  -0.125 0 0  -0.1124999999999998 0 0  -0.09999999999999964 0 0  -0.08750000000000036 0 0  -0.07500000000000018 0 0  -0.0625 0 0  -0.04999999999999982 0 0  -0.03749999999999964 0 0  -0.02500000000000036 0 0  -0.01250000000000018 0 0  0 0 0  0.01250000000000018 0 0  0.02500000000000036 0 0  0.03749999999999964 0 0  0.04999999999999982 0 0  0.0625 0 0  0.07500000000000018 0 0  0.08750000000000036 0 0  0.09999999999999964 0 0  0.1124999999999998 0 0  0.125 0 0  0.1375000000000002 0 0  0.1500000000000004 0 0  0.1624999999999996 0 0  0.1749999999999998 0 0  0.1875 0 0  0.2000000000000002 0 0  0.2125000000000004 0 0  0.2249999999999996 0 0  0.2374999999999998 0 0  0.25 0 0  0.2625000000000002 0 0  0.2750000000000004 0 0  0.2874999999999996 0 0  0.2999999999999998 0 0  0.3125 0 0  0.3250000000000002 0 0  0.3375000000000004 0 0  0.3499999999999996 0 0  0.3624999999999998 0 0  0.375 0 0  0.3875000000000002 0 0  0.4000000000000004 0 0  0.4124999999999996 0 0  0.4249999999999998 0 0  0.4375 0 0  0.4500000000000002 0 0  0.4625000000000004 0 0  0.4749999999999996 0 0  0.4874999999999998 0 0  0.5 0 0  0.5125000000000002 0 0  0.5250000000000004 0 0  0.5374999999999996 0 0  0.5499999999999998 0 0  0.5625 0 0  0.5750000000000002 0 0  0.5875000000000004 0 0  0.5999999999999996 0 0  0.6124999999999998 0 0  0.625 0 0  0.6375000000000002 0 0  0.6500000000000004 0 0  0.6624999999999996 0 0  0.6749999999999998 0 0  0.6875 0 0  0.7000000000000002 0 0  0.7125000000000004 0 0  0.7249999999999996 0 0  0.7374999999999998 0 0  0.75 0 0  0.7625000000000002 0 0  0.7750000000000004 0 0  0.7874999999999996 0 0  0.7999999999999998 0 0  0.8125 0 0  0.8250000000000002 0 0  0.8375000000000004 0 0  0.8499999999999996 0 0  0.8624999999999998 0 0  0.875 0 0  0.8875000000000002 0 0  0.9000000000000004 0 0  0.9124999999999996 0 0  0.9249999999999998 0 0  0.9375 0 0  0.9500000000000002 0 0  0.9625000000000004 0 0  0.9749999999999996 0 0  0.9874999999999998 0 0  1 0 0  1.0125 0 0  1.025 0 0  1.0375 0 0  1.05 0 0  1.0625 0 0  1.075 0 0  1.0875 0 0  1.1 0 0  1.1125 0 0  1.125 0 0  1.1375 0 0  1.15 0 0  1.1625 0 0  1.175 0 0  1.1875 0 0  1.2 0 0  1.2125 0 0  1.225 0 0  1.2375 0 0  1.25 0 0  1.2625 0 0  1.275 0 0  1.2875 0 0  1.3 0 0  1.3125 0 0  1.325 0 0  1.3375 0 0  1.35 0 0  1.3625 0 0  1.375 0 0  1.3875 0 0  1.4 0 0  1.4125 0 0  1.425 0 0  1.4375 0 0  1.45 0 0  1.4625 0 0  1.475 0 0  1.4875 0 0  1.5 0 0  1.5125 0 0  1.525 0 0  1.5375 0 0  1.55 0 0  1.5625 0 0  1.575 0 0  1.5875 0 0  1.6 0 0  1.6125 0 0  1.625 0 0  1.6375 0 0  1.65 0 0  1.6625 0 0  1.675 0 0  1.6875 0 0  1.7 0 0  1.7125 0 0  1.725 0 0  1.7375 0 0  1.75 0 0  1.7625 0 0  1.775 0 0  1.7875 0 0  1.8 0 0  1.8125 0 0  1.825 0 0  1.8375 0 0  1.85 0 0  1.8625 0 0  1.875 0 0  1.8875 0 0  1.9 0 0  1.9125 0 0  1.925 0 0  1.9375 0 0  1.95 0 0  1.9625 0 0  1.975 0 0  1.9875 0 0  2 0 0  2.0125 0 0  2.025 0 0  2.0375 0 0  2.05 0 0  2.0625 0 0  2.075 0 0  2.0875 0 0  2.1 0 0  2.1125 0 0  2.125 0 0  2.1375 0 0  2.15 0 0  2.1625 0 0  2.175 0 0  2.1875 0 0  2.2 0 0  2.2125 0 0  2.225 0 0  2.2375 0 0  2.25 0 0  2.2625 0 0  2.275 0 0  2.2875 0 0  2.3 0 0  2.3125 0 0  2.325 0 0  2.3375 0 0  2.35 0 0  2.3625 0 0  2.375 0 0  2.3875 0 0  2.4 0 0  2.4125 0 0  2.425 0 0  2.4375 0 0  2.45 0 0  2.4625 0 0  2.475 0 0  2.4875 0 0  2.5 0 0  2.5125 0 0  2.525 0 0  2.5375 0 0  2.55 0 0  2.5625 0 0  2.575 0 0  2.5875 0 0  2.6 0 0  2.6125 0 0  2.625 0 0  2.6375 0 0  2.65 0 0  2.6625 0 0  2.675 0 0  2.6875 0 0  2.7 0 0  2.7125 0 0  2.725 0 0  2.7375 0 0  2.75 0 0  2.7625 0 0  2.775 0 0  2.7875 0 0  2.8 0 0  2.8125 0 0  2.825 0 0  2.8375 0 0  2.85 0 0  2.8625 0 0  2.875 0 0  2.8875 0 0  2.9 0 0  2.9125 0 0  2.925 0 0  2.9375 0 0  2.95 0 0  2.9625 0 0  2.975 0 0  2.9875 0 0  3 0 0  3.012499999999999 0 0  3.025 0 0  3.0375 0 0  3.050000000000001 0 0  3.0625 0 0  3.074999999999999 0 0  3.0875 0 0  3.1 0 0  3.112500000000001 0 0  3.125 0 0  3.137499999999999 0 0  3.15 0 0  3.1625 0 0  3.175000000000001 0 0  3.1875 0 0  3.199999999999999 0 0  3.2125 0 0  3.225 0 0  3.237500000000001 0 0  3.25 0 0  3.262499999999999 0 0  3.275 0 0  3.2875 0 0  3.300000000000001 0 0  3.3125 0 0  3.324999999999999 0 0  3.3375 0 0  3.35 0 0  3.362500000000001 0 0  3.375 0 0  3.387499999999999 0 0  3.4 0 0  3.4125 0 0  3.425000000000001 0 0  3.4375 0 0  3.449999999999999 0 0  3.4625 0 0  3.475 0 0  3.4875
[...]
<PointData  Vectors="(h, u)"> 
<DataArray  type="Float64"  Name="(h, u)"  NumberOfComponents="3" format="ascii">5.5000000000000021e-02 0.0000000000000000e+00 0.0000000000000000e+00  5.5000000000000007e-02 -9.6457587565738056e-17 0.0000000000000000e+00  5.5000000000000021e-02 -2.3691403136160622e-16 0.0000000000000000e+00  5.5000000000000007e-02 -2.4052632173514646e-16 0.0000000000000000e+00  5.5000000000000021e-02 -3.7413485807092979e-16 0.0000000000000000e+00  5.5000000000000007e-02 4.6908628263595023e-17 0.0000000000000000e+00  5.5000000000000014e-02 -3.0903144052493334e-16 0.0000000000000000e+00  5.5000000000000007e-02 1.7041490472484536e-16 0.0000000000000000e+00  5.5000000000000014e-02 -6.8135620504468669e-17 0.0000000000000000e+00  5.5000000000000007e-02 -1.2947721024462715e-17 0.0000000000000000e+00  5.5000000000000028e-02 -4.6936386644551946e-16 0.0000000000000000e+00  5.5000000000000021e-02 -1.5851857961780685e-16 0.0000000000000000e+00  5.5000000000000028e-02 -2.4807217904734712e-16 0.0000000000000000e+00  5.5000000000000035e-02 2.4938789934884234e-16 0.0000000000000000e+00  5.5000000000000049e-02 -3.8585547411519601e-16 0.0000000000000000e+00  5.5000000000000028e-02 3.0528898253907555e-16 0.0000000000000000e+00  5.5000000000000035e-02 -5.4680150563229081e-16 0.0000000000000000e+00  5.5000000000000021e-02 -5.0842533313567120e-17 0.0000000000000000e+00  5.5000000000000028e-02 -5.3949215675799519e-16 0.0000000000000000e+00  5.5000000000000021e-02 -7.0749499723376643e-18 0.0000000000000000e+00  5.5000000000000028e-02 -3.9561117635701418e-16 0.0000000000000000e+00  5.5000000000000021e-02 8.2386171240666758e-17 0.0000000000000000e+00  5.5000000000000028e-02 -2.9181719056320679e-16 0.0000000000000000e+00  5.5000000000000021e-02 1.4482193963856533e-16 0.0000000000000000e+00  5.5000000000000028e-02 -2.5510728225543563e-16 0.0000000000000000e+00  5.5000000000000021e-02 1.1910310831136068e-16 0.0000000000000000e+00  5.5000000000000028e-02 -2.4293139478216181e-16 0.0000000000000000e+00  5.5000000000000021e-02 1.2765664156701776e-16 0.0000000000000000e+00  5.5000000000000028e-02 -9.8319120003278875e-17 0.0000000000000000e+00  5.5000000000000021e-02 2.2607251339517025e-16 0.0000000000000000e+00  5.5000000000000028e-02 8.1388628222932573e-17 0.0000000000000000e+00  5.5000000000000021e-02 2.2505356268804105e-16 0.0000000000000000e+00  5.5000000000000028e-02 7.9372166736099615e-17 0.0000000000000000e+00  5.5000000000000021e-02 2.7295315777603186e-17 0.0000000000000000e+00  5.5000000000000028e-02 -3.1189412902961653e-17 0.0000000000000000e+00  5.5000000000000021e-02 -1.5981554292885843e-16 0.0000000000000000e+00  5.5000000000000028e-02 -2.9760218136340880e-17 0.0000000000000000e+00  5.5000000000000021e-02 -1.3755268193798904e-16 0.0000000000000000e+00  5.5000000000000028e-02 1.1783536515450854e-16 0.0000000000000000e+00  5.5000000000000021e-02 -9.1426538034254281e-17 0.0000000000000000e+00  5.5000000000000028e-02 1.7909029593533106e-16 0.0000000000000000e+00  5.5000000000000021e-02 -1.3861660816394768e-16 0.0000000000000000e+00  5.5000000000000028e-02 2.3178308760586151e-16 0.0000000000000000e+00  5.5000000000000021e-02 -1.9571005049139363e-16 0.0000000000000000e+00  5.5000000000000028e-02 4.7199268081724828e-16 0.0000000000000000e+00  5.5000000000000014e-02 -1.4903758865710935e-16 0.0000000000000000e+00  5.5000000000000028e-02 4.5847892067362569e-16 0.0000000000000000e+00  5.5000000000000014e-02 -1.6269540334372087e-17 0.0000000000000000e+00  5.5000000000000028e-02 3.1549038641712211e-16 0.0000000000000000e+00  5.5000000000000021e-02 1.0465403263348465e-17 0.0000000000000000e+00  5.5000000000000028e-02 3.0244191976321678e-16 0.0000000000000000e+00  5.5000000000000021e-02 -1.4477189413341898e-17 0.0000000000000000e+00  5.5000000000000028e-02 6.7345830600111018e-17 0.0000000000000000e+00  5.5000000000000021e-02 1.0825970545910092e-16 0.0000000000000000e+00  5.5000000000000021e-02 -2.1460690117683060e-16 0.0000000000000000e+00  5.5000000000000028e-02 -2.1425646324112760e-16 0.0000000000000000e+00  5.5000000000000028e-02 -8.8347723922615325e-17 0.0000000000000000e+00  5.5000000000000014e-02 -1.0454193569598165e-16 0.0000000000000000e+00  5.5000000000000028e-02 -2.2555509513965092e-16 0.0000000000000000e+00  5.5000000000000014e-02 2.5623291932487742e-17 0.0000000000000000e+00  5.5000000000000028e-02 -1.5158864351697338e-16 0.0000000000000000e+00  5.5000000000000014e-02 9.9214881451022957e-17 0.0000000000000000e+00  5.5000000000000028e-02 -1.3393490033214561e-16 0.0000000000000000e+00  5.5000000000000014e-02 4.2180513029464941e-17 0.0000000000000000e+00  5.5000000000000028e-02 -3.7828347185474355e-16 0.0000000000000000e+00  5.5000000000000021e-02 -5.7006846513837696e-18 0.0000000000000000e+00  5.5000000000000028e-02 -4.5805435632374290e-18 0.0000000000000000e+00  5.5000000000000021e-02 9.9232950619056006e-17 0.0000000000000000e+00  5.5000000000000028e-02 2.3675389778959354e-16 0.0000000000000000e+00  5.5000000000000021e-02 4.2256689715538575e-17 0.0000000000000000e+00  5.5000000000000028e-02 1.1138039871530900e-16 0.0000000000000000e+00  5.5000000000000021e-02 -1.1858266482271360e-16 0.0000000000000000e+00  5.5000000000000028e-02 1.6446698421801433e-16 0.0000000000000000e+00  5.5000000000000021e-02 -4.2004897458448808e-17 0.0000000000000000e+00  5.5000000000000028e-02 4.4413350141756346e-16 0.0000000000000000e+00  5.5000000000000014e-02 2.1464203082740500e-16 0.0000000000000000e+00  5.5000000000000021e-02 1.4779068746912446e-16 0.0000000000000000e+00  5.5000000000000014e-02 -1.7139857266246430e-16 0.0000000000000000e+00  5.5000000000000028e-02 -1.7524942263445811e-16 0.0000000000000000e+00  5.5000000000000021e-02 5.9714036152843497e-17 0.0000000000000000e+00  5.5000000000000028e-02 -2.0550227600853564e-16 0.0000000000000000e+00  5.5000000000000028e-02 -1.9690553746562377e-17 0.0000000000000000e+00  5.5000000000000028e-02 2.5516637918394920e-17 0.0000000000000000e+00  5.5000000000000028e-02 -1.3545329865932809e-16 0.0000000000000000e+00  5.5000000000000028e-02 3.3651727127459559e-16 0.0000000000000000e+00  5.5000000000000021e-02 -1.8580919573541243e-16 0.0000000000000000e+00  5.5000000000000028e-02 2.3464658634939347e-16 0.0000000000000000e+00  5.5000000000000014e-02 -1.3359904632407926e-16 0.0000000000000000e+00  5.5000000000000028e-02 -3.3997538057661056e-17 0.0000000000000000e+00  5.5000000000000014e-02 2.8948501429800141e-17 0.0000000000000000e+00  5.5000000000000028e-02 -1.2437155808401629e-16 0.0000000000000000e+00  5.5000000000000014e-02 1.1796143016978043e-16 0.0000000000000000e+00  5.5000000000000028e-02 -3.7721275807408600e-16 0.0000000000000000e+00  5.5000000000000021e-02 6.6788623676776536e-17 0.0000000000000000e+00  5.5000000000000028e-02 -1.9007477905161692e-17 0.0000000000000000e+00  5.5000000000000014e-02 1.1801974409243162e-16 0.0000000000000000e+00  5.5000000000000028e-02 8.5650203762568708e-17 0.0000000000000000e+00  5.5000000000000014e-02 5.0936327222038161e-16 0.0000000000000000e+00  5.5000000000000021e-02 2.9334066726001104e-16 0.0000000000000000e+00  5.5000000000000014e-02 3.6349434427887466e-16 0.0000000000000000e+00  5.5000000000000007e-02 -1.5638412246905682e-16 0.0000000000000000e+00  5.5000000000000035e-02 1.7679507475258584e-16 0.0000000000000000e+00  5.5000000000000007e-02 -3.5589917924462996e-16 0.0000000000000000e+00  5.5000000000000028e-02 1.4013704827094863e-17 0.0000000000000000e+00  5.5000000000000014e-02 -4.0183438625432948e-16 0.0000000000000000e+00  5.5000000000000021e-02 -5.6502750343962316e-17 0.0000000000000000e+00  5.5000000000000021e-02 -3.6447966365737742e-17 0.0000000000000000e+00  5.5000000000000014e-02 2.6141018776926708e-16 0.0000000000000000e+00  5.5000000000000028e-02 -2.0341889849086031e-16 0.0000000000000000e+00  5.5000000000000028e-02 2.6162181695865635e-16 0.0000000000000000e+00  5.5000000000000028e-02 -1.4944038759264372e-16 0.0000000000000000e+00  5.5000000000000028e-02 2.2065557246399597e-16 0.0000000000000000e+00  5.5000000000000014e-02 -2.8027170381621497e-16 0.0000000000000000e+00  5.5000000000000028e-02 -1.0533041471255978e-16 0.0000000000000000e+00  5.5000000000000014e-02 -1.7923947892389588e-16 0.0000000000000000e+00  5.5000000000000028e-02 -1.7788428045642354e-16 0.0000000000000000e+00  5.5000000000000021e-02 -9.3998303706435227e-17 0.0000000000000000e+00  5.5000000000000021e-02 -1.7761394620852294e-17 0.0000000000000000e+00  5.5000000000000028e-02 -1.2050312023166768e-16 0.0000000000000000e+00  5.5000000000000021e-02 1.5903682452162681e-16 0.0000000000000000e+00  5.5000000000000028e-02 -1.8324714482952786e-16 0.0000000000000000e+00  5.5000000000000021e-02 1.9253506000622946e-16 0.0000000000000000e+00  5.5000000000000028e-02 -1.7210535993350701e-16 0.0000000000000000e+00  5.5000000000000021e-02 1.5500889478698969e-16 0.0000000000000000e+00  5.5000000000000028e-02 -4.5069142447083454e-16 0.0000000000000000e+00  5.5000000000000028e-02 2.5473991391976933e-17 0.0000000000000000e+00  5.5000000000000028e-02 -1.6875881526328070e-16 0.0000000000000000e+00  5.5000000000000028e-02 1.6068335416384916e-17 0.0000000000000000e+00  5.5000000000000028e-02 1.0151462877085488e-17 0.0000000000000000e+00  5.5000000000000028e-02 7.1991337998538798e-17 0.0000000000000000e+00  5.5000000000000028e-02 2.6580787167256406e-16 0.0000000000000000e+00  5.5000000000000028e-02 1.1745003299341589e-16 0.0000000000000000e+00  5.5000000000000028e-02 -2.6923499962667635e-17 0.0000000000000000e+00  5.5000000000000028e-02 -1.2783736151088294e-16 0.0000000000000000e+00  5.5000000000000028e-02 -2.5770766739777504e-16 0.0000000000000000e+00  5.5000000000000028e-02 -4.2089781564285746e-17 0.0000000000000000e+00  5.5000000000000028e-02 -4.6863775615960382e-19 0.0000000000000000e+00  5.5000000000000028e-02 2.5171281552728744e-16 0.0000000000000000e+00  5.5000000000000028e-02 2.4823594472343642e-16 0.0000000000000000e+00  5.5000000000000028e-02 4.2071705077083972e-16 0.0000000000000000e+00  5.5000000000000028e-02 3.2903239798486957e-16 0.0000000000000000e+00  5.5000000000000021e-02 1.9773896472632800e-16 0.0000000000000000e+00  5.5000000000000028e-02 -1.0235966312250615e-16 0.0000000000000000e+00  5.5000000000000014e-02 1.0659899529912583e-16 0.0000000000000000e+00  5.5000000000000021e-02 -2.9191061650237140e-17 0.0000000000000000e+00  5.5000000000000007e-02 8.2942874634993342e-17 0.0000000000000000e+00  5.5000000000000028e-02 -1.6860228300507559e-16 0.0000000000000000e+00  5.5000000000000021e-02 -3.4444891537050495e-16 0.0000000000000000e+00  5.5000000000000035e-02 -2.5538246987191716e-16 0.0000000000000000e+00  5.5000000000000028e-02 1.4607539487474199e-16 0.0000000000000000e+00  5.5000000000000028e-02 1.4561125479782048e-16 0.0000000000000000e+00  5.5000000000000014e-02 -8.7377626175302426e-17 0.0000000000000000e+00  5.5000000000000035e-02 3.0929659954603420e-16 0.0000000000000000e+00  5.5000000000000014e-02 1.4996788314266189e-16 0.0000000000000000e+00  5.5000000000000028e-02 -1.5756890781630732e-17 0.0000000000000000e+00  5.5000000000000007e-02 1.0362617343454312e-16 0.0000000000000000e+00  5.5000000000000028e-02 -1.2043470403485231e-16 0.0000000000000000e+00  5.5000000000000000e-02 7.0200094806660503e-18 0.0000000000000000e+00  5.5000000000000028e-02 -5.7138030559602186e-17 0.0000000000000000e+00  5.5000000000000014e-02 1.1579301357392502e-16 0.0000000000000000e+00  5.5000000000000028e-02 -3.5563803233289506e-16 0.0000000000000000e+00  5.5000000000000007e-02 1.1696158636612328e-16 0.0000000000000000e+00  5.5000000000000028e-02 -1.5484804318723657e-17 0.0000000000000000e+00  5.5000000000000014e-02 1.1903115190758096e-17 0.0000000000000000e+00  5.5000000000000021e-02 -2.1084333063030364e-16 0.0000000000000000e+00  5.5000000000000021e-02 -2.8856367342639168e-16 0.0000000000000000e+00  5.5000000000000021e-02 7.7155014564075109e-17 0.0000000000000000e+00  5.5000000000000028e-02 -5.7768151816161441e-17 0.0000000000000000e+00  5.5000000000000021e-02 2.0789404611871417e-16 0.0000000000000000e+00  5.5000000000000028e-02 -3.6743305414791493e-16 0.0000000000000000e+00  5.5000000000000028e-02 2.9323287286519454e-16 0.0000000000000000e+00  5.5000000000000021e-02 -1.0268019343639706e-16 0.0000000000000000e+00  5.5000000000000028e-02 1.2655224581466688e-16 0.0000000000000000e+00  5.5000000000000021e-02 4.2045703804754845e-17 0.0000000000000000e+00  5.5000000000000028e-02 -8.9244932885722718e-17 0.0000000000000000e+00  5.5000000000000021e-02 1.9981402320304487e-16 0.0000000000000000e+00  5.5000000000000021e-02 -2.8016330343975565e-16 0.0000000000000000e+00  5.5000000000000028e-02 -1.0612874518122239e-16 0.0000000000000000e+00  5.5000000000000021e-02 -4.9529892101760627e-17 0.0000000000000000e+00  5.5000000000000028e-02 1.0483128836781332e-16 0.0000000000000000e+00  5.5000000000000021e-02 -1.3881314818662121e-16 0.0000000000000000e+00  5.5000000000000042e-02 4.4967499814247435e-17 0.0000000000000000e+00  5.5000000000000021e-02 7.5328485710650188e-17 0.0000000000000000e+00  5.5000000000000014e-02 2.4270122985305346e-16 0.0000000000000000e+00  5.4999999999999986e-02 -4.3369735563553140e-16 0.0000000000000000e+00  5.5000000000000111e-02 1.4911977608205351e-15 0.0000000000000000e+00  5.4999999999999744e-02 -3.9391436547893328e-15 0.0000000000000000e+00  5.5000000000000819e-02 1.0352990623768972e-14 0.0000000000000000e+00  5.4999999999997891e-02 -2.8364844806374546e-14 0.0000000000000000e+00  5.5000000000005829e-02 7.7459694200262726e-14 0.0000000000000000e+00  5.4999999999984166e-02 -2.1182186506442963e-13 0.0000000000000000e+00  5.5000000000043126e-02 5.7569356971369216e-13 0.0000000000000000e+00  5.4999999999883406e-02 -1.5576014085477381e-12 0.0000000000000000e+00  5.5000000000314256e-02 4.1961298934792433e-12 0.0000000000000000e+00  5.4999999999157848e-02 -1.1245668713515251e-11 0.0000000000000000e+00  5.5000000002243823e-02 2.9961632833662372e-11 0.0000000000000000e+00  5.4999999994062757e-02 -7.9279619114213173e-11 0.0000000000000000e+00  5.5000000015585228e-02 2.0810492587116938e-10 0.0000000000000000e+00  5.4999999959476679e-02 -5.4108143960650404e-10 0.0000000000000000e+00  5.5000000104160431e-02 1.3906822032116169e-09 0.0000000000000000e+00  5.4999999736048619e-02 -3.5234698767696193e-09 0.0000000000000000e+00  5.5000000656904142e-02 8.7649807857010332e-09 0.0000000000000000e+00  5.4999998403463680e-02 -2.1277558926776581e-08 0.0000000000000000e+00  5.5000003756068429e-02 4.9904310153917647e-08 0.0000000000000000e+00  5.4999991570711747e-02 -1.1103626541421744e-07 0.0000000000000000e+00  5.5000017562371391e-02 2.2534435568729987e-07 0.0000000000000000e+00  5.4999967971606362e-02 -3.7275157134162960e-07 0.0000000000000000e+00  5.5000042819047246e-02 2.4460193469501815e-07 0.0000000000000000e+00  5.4999997599355567e-02 1.9045901481629600e-06 0.0000000000000000e+00  5.4999776938687905e-02 -1.4377244203011030e-05 0.0000000000000000e+00  5.5000642369381507e-02 7.5220758360303660e-05 0.0000000000000000e+00  5.5001898115885448e-02 -3.6220905867686139e-04 0.0000000000000000e+00  5.4962707264016246e-02 1.7364308964214730e-03 0.0000000000000000e+00  5.5319806804288427e-02 -8.5941814952719669e-03 0.0000000000000000e+00  5.2854071898035489e-02 4.3427146927769160e-02 0.0000000000000000e+00  7.0365782340395241e-02 -2.4528415490827551e-01 0.0000000000000000e+00  1.6810019379961522e-01 -1.7941336677622259e+00 0.0000000000000000e+00  2.6752615607944275e-01 -2.6721869726746883e+00 0.0000000000000000e+00  3.2632969842395249e-01 -3.0609069239073512e+00 0.0000000000000000e+00  3.6051702232986371e-01 -3.2583848041541836e+00 0.0000000000000000e+00  3.7551842611803271e-01 -3.3424697930445215e+00 0.0000000000000000e+00  3.8279219098277295e-01 -3.3841931631751390e+00 0.0000000000000000e+00  3.8445011228170506e-01 -3.3971492024617658e+00 0.0000000000000000e+00  3.8412485321636375e-01 -3.4002782115750758e+00 0.0000000000000000e+00  3.8228359564646403e-01 -3.3956533628919390e+00 0.0000000000000000e+00  3.7992999107347203e-01 -3.3885321874439618e+00 0.0000000000000000e+00  3.7715383759077670e-01 -3.3793645527008218e+00 0.0000000000000000e+00  3.7424731475554357e-01 -3.3694228743783827e+00 0.0000000000000000e+00  3.7122881353699211e-01 -3.3589209282095278e+00 0.0000000000000000e+00  3.6816414743995862e-01 -3.3482184154825365e+00 0.0000000000000000e+00  3.6507984271014943e-01 -3.3373289196633711e+00 0.0000000000000000e+00  3.6198567052231861e-01 -3.3263661686063117e+00 0.0000000000000000e+00  3.5888531908157140e-01 -3.3153852527245937e+00 0.0000000000000000e+00  3.5578949923116165e-01 -3.3043683611256380e+00 0.0000000000000000e+00  3.5269936224663279e-01 -3.2933428407831764e+00 0.0000000000000000e+00  3.4961248309385989e-01 -3.2823321845908437e+00 0.0000000000000000e+00  3.4653378435618098e-01 -3.2713252816371958e+00 0.0000000000000000e+00  3.4346420977124403e-01 -3.2603218584286657e+00 0.0000000000000000e+00  3.4040177914990294e-01 -3.2493395623984198e+00 0.0000000000000000e+00  3.3734783687446895e-01 -3.2383745816539760e+00 0.0000000000000000e+00  3.3430416010215336e-01 -3.2274215876436974e+00 0.0000000000000000e+00  3.3126971321104609e-01 -3.2164885928234503e+00 0.0000000000000000e+00  3.2824439165008695e-01 -3.2055795004900132e+00 0.0000000000000000e+00  3.2522942460048754e-01 -3.1946896260781212e+00 0.0000000000000000e+00  3.2222510025497719e-01 -3.1838201588777419e+00 0.0000000000000000e+00  3.1923084073372399e-01 -3.1729760384670387e+00 0.0000000000000000e+00  3.1624713739860139e-01 -3.1621570831781720e+00 0.0000000000000000e+00  3.1327461139985546e-01 -3.1513614886915460e+00 0.0000000000000000e+00  3.1031333091801949e-01 -3.1405910865959177e+00 0.0000000000000000e+00  3.0736310216996660e-01 -3.1298485655970723e+00 0.0000000000000000e+00  3.0442439796420717e-01 -3.1191333176969955e+00 0.0000000000000000e+00  3.0149759334518622e-01 -3.1084447341946198e+00 0.0000000000000000e+00  2.9858281721449981e-01 -3.0977839593605681e+00 0.0000000000000000e+00  2.9568003072067489e-01 -3.0871526524334310e+00 0.0000000000000000e+00  2.9278960206461280e-01 -3.0765505039189436e+00 0.0000000000000000e+00  2.8991186695133947e-01 -3.0659768971475159e+00 0.0000000000000000e+00  2.8704703767857270e-01 -3.0554323000108110e+00 0.0000000000000000e+00  2.8419517177378778e-01 -3.0449175962354680e+00 0.0000000000000000e+00  2.8135653230582985e-01 -3.0344328859382328e+00 0.0000000000000000e+00  2.7853148483091328e-01 -3.0239771405574833e+00 0.0000000000000000e+00  2.7572033591893019e-01 -3.0135500765509837e+00 0.0000000000000000e+00  2.7292327761165125e-01 -3.0031515783166221e+00 0.0000000000000000e+00  2.7014050592437167e-01 -2.9927819123049080e+00 0.0000000000000000e+00  2.6737238417507897e-01 -2.9824398537682186e+00 0.0000000000000000e+00  2.6461932227246621e-01 -2.9721242392157210e+00 0.0000000000000000e+00  2.6188171693517642e-01 -2.9618335141750798e+00 0.0000000000000000e+00  2.5915986044076206e-01 -2.9515670644313334e+00 0.0000000000000000e+00  2.5645408326504116e-01 -2.9413236314281237e+00 0.0000000000000000e+00  2.5376482679898416e-01 -2.9311015265362310e+00 0.0000000000000000e+00  2.5109264628403899e-01 -2.9208979615792598e+00 0.0000000000000000e+00  2.4843815584998941e-01 -2.9107099520814459e+00 0.0000000000000000e+00  2.4580190305036165e-01 -2.9005345631550901e+00 0.0000000000000000e+00  2.4318445407032024e-01 -2.8903688668439051e+00 0.0000000000000000e+00  2.4058638111948424e-01 -2.8802095782235813e+00 0.0000000000000000e+00  2.3800844526081391e-01 -2.8700522673650979e+00 0.0000000000000000e+00  2.3545153013348272e-01 -2.8598914072618036e+00 0.0000000000000000e+00  2.3291670226169950e-01 -2.8497202405614614e+00 0.0000000000000000e+00  2.3040509084847577e-01 -2.8395312916794051e+00 0.0000000000000000e+00  2.2791791522182650e-01 -2.8293163450738268e+00 0.0000000000000000e+00  2.2545648388581388e-01 -2.8190663128684905e+00 0.0000000000000000e+00  2.2302227506715611e-01 -2.8087707336315906e+00 0.0000000000000000e+00  2.2061703984607850e-01 -2.79841704978747