<?xml version="1.0"?>
<VTKFile type="UnstructuredGrid"  version="0.1"  >
<UnstructuredGrid>
<Piece  NumberOfPoints="801" NumberOfCells="800">
<Points>
<DataArray  type="Float64"  NumberOfComponents="3"  format="ascii">-5 0 0  -4.9875 0 0  -4.975 0 0  -4.9625 0 0  -4.95 0 0  -4.9375 0 0  -4.925 0 0  -4.9125 0 0  -4.9 0 0  -4.8875 0 0  -4.875 0 0  -4.8625 0 0  -4.85 0 0  -4.8375 0 0  -4.825 0 0  -4.8125 0 0  -4.8 0 0  -4.7875 0 0  -4.775 0 0  -4.7625 0 0  -4.75 0 0  -4.7375 0 0  -4.725 0 0  -4.7125 0 0  -4.7 0 0  -4.6875 0 0  -4.675 0 0  -4.6625 0 0  -4.65 0 0  -4.6375 0 0  -4.625 0 0  -4.6125 0 0  -4.6 0 0  -4.5875 0 0  -4.575 0 0  -4.5625 0 0  -4.55 0 0  -4.5375 0 0  -4.525 0 0  -4.5125 0 0  -4.5 0 0  -4.4875 0 0  -4.475 0 0  -4.4625 0 0  -4.45 0 0  -4.4375 0 0  -4.425 0 0  -4.4125 0 0  -4.4 0 0  -4.3875 0 0  -4.375 0 0  -4.3625 0 0  -4.35 0 0  -4.3375 0 0  -4.325 0 0  -4.3125 0 0  -4.3 0 0  -4.2875 0 0  -4.275 0 0  -4.2625 0 0  -4.25 0 0  -4.2375 0 0  -4.225 0 0  -4.2125 0 0  -4.2 0 0  -4.1875 0 0  -4.175 0 0  -4.1625 0 0  -4.15 0 0  -4.1375 0 0  -4.125 0 0  -4.1125 0 0  -4.1 0 0  -4.0875 0 0  -4.075 0 0  -4.0625 0 0  -4.05 0 0  -4.0375 0 0  -4.025 0 0  -4.0125 0 0  -4 0 0  -3.9875 0 0  -3.975 0 0  -3.9625 0 0  -3.95 0 0  -3.9375 0 0  -3.925 0 0  -3.9125 0 0  -3.9 0 0  -3.8875 0 0  -3.875 0 0  -3.8625 0 0  -3.85 0 0  -3.8375 0 0  -3.825 0 0  -3.8125 0 0  -3.8 0 0  -3.7875 0 0  -3.775 0 0  -3.7625 0 0  -3.75 0 0  -3.7375 0 0  -3.725 0 0  -3.7125 0 0  -3.7 0 0  -3.6875 0 0  -3.675 0 0  -3.6625 0 0  -3.65 0 0  -3.6375 0 0  -3.625 0 0  -3.6125 0 0  -3.6 0 0  -3.5875 0 0  -3.575 0 0  -3.5625 0 0  -3.55 0 0  -3.5375 0 0  -3.525 0 0  -3.5125 0 0  -3.5 0 0  -3.4875 0 0  -3.475 0 0  -3.4625 0 0  -3.45 0 0  -3.4375 0 0  -3.425 0 0  -3.4125 0 0  -3.4 0 0  -3.3875 0 0  -3.375 0 0  -3.3625 0 0  -3.35 0 0  -3.3375 0 0  -3.325 0 0  -3.3125 0 0  -3.3 0 0  -3.2875 0 0  -3.275 0 0  -3.2625 0 0  -3.25 0 0  -3.2375 0 0  -3.225 0 0  -3.2125 0 0  -3.2 0 0  -3.1875 0 0  -3.175 0 0  -3.1625 0 0  -3.15 0 0  -3.1375 0 0  -3.125 0 0  -3.1125 0 0  -3.1 0 0  -3.0875 0 0  -3.075 0 0  -3.0625 0 0  -3.05 0 0  -3.0375 0 0  -3.025 0 0  -3.0125 0 0  -3 0 0  -2.9875 0 0  -2.975 0 0  -2.9625 0 0  -2.95 0 0  -2.9375 0 0  -2.925 0 0  -2.9125 0 0  -2.9 0 0  -2.8875 0 0  -2.875 0 0  -2.8625 0 0  -2.85 0 0  -2.8375 0 0  -2.825 0 0  -2.8125 0 0  -2.8 0 0  -2.7875 0 0  -2.775 0 0  -2.7625 0 0  -2.75 0 0  -2.7375 0 0  -2.725 0 0  -2.7125 0 0  -2.7 0 0  -2.6875 0 0  -2.675 0 0  -2.6625 0 0  -2.65 0 0  -2.6375 0 0  -2.625 0 0  -2.6125 0 0  -2.6 0 0  -2.5875 0 0  -2.575 0 0  -2.5625 0 0  -2.55 0 0  -2.5375 0 0  -2.525 0 0  -2.5125 0 0  -2.5 0 0  -2.4875 0 0  -2.475 0 0  -2.4625 0 0  -2.45 0 0  -2.4375 0 0  -2.425 0 0  -2.4125 0 0  -2.4 0 0  -2.3875 0 0  -2.375 0 0  -2.3625 0 0  -2.35 0 0  -2.3375 0 0  -2.325 0 0  -2.3125 0 0  -2.3 0 0  -2.2875 0 0  -2.275 0 0  -2.2625 0 0  -2.25 0 0  -2.2375 0 0  -2.225 0 0  -2.2125 0 0  -2.2 0 0  -2.1875 0 0  -2.175 0 0  -2.1625 0 0  -2.15 0 0  -2.1375 0 0  -2.125 0 0  -2.1125 0 0  -2.1 0 0  -2.0875 0 0  -2.075 0 0  -2.0625 0 0  -2.05 0 0  -2.0375 0 0  -2.025 0 0  -2.0125 0 0  -2 0 0  -1.9875 0 0  -1.975 0 0  -1.9625 0 0  -1.95 0 0  -1.9375 0 0  -1.925 0 0  -1.9125 0 0  -1.9 0 0  -1.8875 0 0  -1.875 0 0  -1.8625 0 0  -1.85 0 0  -1.8375 0 0  -1.825 0 0  -1.8125 0 0  -1.8 0 0  -1.7875 0 0  -1.775 0 0  -1.7625 0 0  -1.75 0 0  -1.7375 0 0  -1.725 0 0  -1.7125 0 0  -1.7 0 0  -1.6875 0 0  -1.675 0 0  -1.6625 0 0  -1.65 0 0  -1.6375 0 0  -1.625 0 0  -1.6125 0 0  -1.6 0 0  -1.5875 0 0  -1.575 0 0  -1.5625 0 0  -1.55 0 0  -1.5375 0 0  -1.525 0 0  -1.5125 0 0  -1.5 0 0  -1.4875 0 0  -1.475 0 0  -1.4625 0 0  -1.45 0 0  -1.4375 0 0  -1.425 0 0  -1.4125 0 0  -1.4 0 0  -1.3875 0 0  -1.375 0 0  -1.3625 0 0  -1.35 0 0  -1.3375 0 0  -1.325 0 0  -1.3125 0 0  -1.3 0 0  -1.2875 0 0  -1.275 0 0  -1.2625 0 0  -1.25 0 0  -1.2375 0 0  -1.225 0 0  -1.2125 0 0  -1.2 0 0  -1.1875 0 0  -1.175 0 0  -1.1625 0 0  -1.15 0 0  -1.1375 0 0  -1.125 0 0  -1.1125 0 0  -1.1 0 0  -1.0875 0 0  -1.075 0 0  -1.0625 0 0  -1.05 0 0  -1.0375 0 0  -1.025 0 0  -1.0125 0 0  -1 0 0  -0.9874999999999998 0 0  -0.9749999999999996 0 0  -0.9625000000000004 0 0  -0.9500000000000002 0 0  -0.9375 0 0  -0.9249999999999998 0 0  -0.9124999999999996 0 0  -0.9000000000000004 0 0  -0.8875000000000002 0 0  -0.875 0 0  -0.8624999999999998 0 0  -0.8499999999999996 0 0  -0.8375000000000004 0 0  -0.8250000000000002 0 0  -0.8125 0 0  -0.7999999999999998 0 0  -0.7874999999999996 0 0  -0.7750000000000004 0 0  -0.7625000000000002 0 0  -0.75 0 0  -0.7374999999999998 0 0  -0.7249999999999996 0 0  -0.7125000000000004 0 0  -0.7000000000000002 0 0  -0.6875 0 0  -0.6749999999999998 0 0  -0.6624999999999996 0 0  -0.6500000000000004 0 0  -0.6375000000000002 0 0  -0.625 0 0  -0.6124999999999998 0 0  -0.5999999999999996 0 0  -0.5875000000000004 0 0  -0.5750000000000002 0 0  -0.5625 0 0  -0.5499999999999998 0 0  -0.5374999999999996 0 0  -0.5250000000000004 0 0  -0.5125000000000002 0 0  -0.5 0 0  -0.4874999999999998 0 0  -0.4749999999999996 0 0  -0.4625000000000004 0 0  -0.4500000000000002 0 0  -0.4375 0 0  -0.4249999999999998 0 0  -0.4124999999999996 0 0  -0.4000000000000004 0 0  -0.3875000000000002 0 0  -0.375 0 0  -0.3624999999999998 0 0  -0.3499999999999996 0 0  -0.3375000000000004 0 0  -0.3250000000000002 0 0  -0.3125 0 0  -0.2999999999999998 0 0  -0.2874999999999996 0 0  -0.2750000000000004 0 0  -0.2625000000000002 0 0  -0.25 0 0  -0.2374999999999998 0 0  -0.2249999999999996 0 0  -0.2125000000000004 0 0  -0.2000000000000002 0 0  -0.1875 0 0  -0.1749999999999998 0 0  -0.1624999999999996 0 0  -0.1500000000000004 0 0  -0.1375000000000002 0 0  -0.125 0 0  -0.1124999999999998 0 0  -0.09999999999999964 0 0  -0.08750000000000036 0 0  -0.07500000000000018 0 0  -0.0625 0 0  -0.04999999999999982 0 0  -0.03749999999999964 0 0  -0.02500000000000036 0 0  -0.01250000000000018 0 0  0 0 0  0.01250000000000018 0 0  0.02500000000000036 0 0  0.03749999999999964 0 0  0.04999999999999982 0 0  0.0625 0 0  0.07500000000000018 0 0  0.08750000000000036 0 0  0.09999999999999964 0 0  0.1124999999999998 0 0  0.125 0 0  0.1375000000000002 0 0  0.1500000000000004 0 0  0.1624999999999996 0 0  0.1749999999999998 0 0  0.1875 0 0  0.2000000000000002 0 0  0.2125000000000004 0 0  0.2249999999999996 0 0  0.2374999999999998 0 0  0.25 0 0  0.2625000000000002 0 0  0.2750000000000004 0 0  0.2874999999999996 0 0  0.2999999999999998 0 0  0.3125 0 0  0.3250000000000002 0 0  0.3375000000000004 0 0  0.3499999999999996 0 0  0.3624999999999998 0 0  0.375 0 0  0.3875000000000002 0 0  0.4000000000000004 0 0  0.4124999999999996 0 0  0.4249999999999998 0 0  0.4375 0 0  0.4500000000000002 0 0  0.4625000000000004 0 0  0.4749999999999996 0 0  0.4874999999999998 0 0  0.5 0 0  0.5125000000000002 0 0  0.5250000000000004 0 0  0.5374999999999996 0 0  0.5499999999999998 0 0  0.5625 0 0  0.5750000000000002 0 0  0.5875000000000004 0 0  0.5999999999999996 0 0  0.6124999999999998 0 0  0.625 0 0  0.6375000000000002 0 0  0.6500000000000004 0 0  0.6624999999999996 0 0  0.6749999999999998 0 0  0.6875 0 0  0.7000000000000002 0 0  0.7125000000000004 0 0  0.7249999999999996 0 0  0.7374999999999998 0 0  0.75 0 0  0.7625000000000002 0 0  0.7750000000000004 0 0  0.7874999999999996 0 0  0.7999999999999998 0 0  0.8125 0 0  0.8250000000000002 0 0  0.8375000000000004 0 0  0.8499999999999996 0 0  0.8624999999999998 0 0  0.875 0 0  0.8875000000000002 0 0  0.9000000000000004 0 0  0.9124999999999996 0 0  0.9249999999999998 0 0  0.9375 0 0  0.9500000000000002 0 0  0.9625000000000004 0 0  0.9749999999999996 0 0  0.9874999999999998 0 0  1 0 0  1.0125 0 0  1.025 0 0  1.0375 0 0  1.05 0 0  1.0625 0 0  1.075 0 0  1.0875 0 0  1.1 0 0  1.1125 0 0  1.125 0 0  1.1375 0 0  1.15 0 0  1.1625 0 0  1.175 0 0  1.1875 0 0  1.2 0 0  1.2125 0 0  1.225 0 0  1.2375 0 0  1.25 0 0  1.2625 0 0  1.275 0 0  1.2875 0 0  1.3 0 0  1.3125 0 0  1.325 0 0  1.3375 0 0  1.35 0 0  1.3625 0 0  1.375 0 0  1.3875 0 0  1.4 0 0  1.4125 0 0  1.425 0 0  1.4375 0 0  1.45 0 0  1.4625 0 0  1.475 0 0  1.4875 0 0  1.5 0 0  1.5125 0 0  1.525 0 0  1.5375 0 0  1.55 0 0  1.5625 0 0  1.575 0 0  1.5875 0 0  1.6 0 0  1.6125 0 0  1.625 0 0  1.6375 0 0  1.65 0 0  1.6625 0 0  1.675 0 0  1.6875 0 0  1.7 0 0  1.7125 0 0  1.725 0 0  1.7375 0 0  1.75 0 0  1.7625 0 0  1.775 0 0  1.7875 0 0  1.8 0 0  1.8125 0 0  1.825 0 0  1.8375 0 0  1.85 0 0  1.8625 0 0  1.875 0 0  1.8875 0 0  1.9 0 0  1.9125 0 0  1.925 0 0  1.9375 0 0  1.95 0 0  1.9625 0 0  1.975 0 0  1.9875 0 0  2 0 0  2.0125 0 0  2.025 0 0  2.0375 0 0  2.05 0 0  2.0625 0 0  2.075 0 0  2.0875 0 0  2.1 0 0  2.1125 0 0  2.125 0 0  2.1375 0 0  2.15 0 0  2.1625 0 0  2.175 0 0  2.1875 0 0  2.2 0 0  2.2125 0 0  2.225 0 0  2.2375 0 0  2.25 0 0  2.2625 0 0  2.275 0 0  2.2875 0 0  2.3 0 0  2.3125 0 0  2.325 0 0  2.3375 0 0  2.35 0 0  2.3625 0 0  2.375 0 0  2.3875 0 0  2.4 0 0  2.4125 0 0  2.425 0 0  2.4375 0 0  2.45 0 0  2.4625 0 0  2.475 0 0  2.4875 0 0  2.5 0 0  2.5125 0 0  2.525 0 0  2.5375 0 0  2.55 0 0  2.5625 0 0  2.575 0 0  2.5875 0 0  2.6 0 0  2.6125 0 0  2.625 0 0  2.6375 0 0  2.65 0 0  2.6625 0 0  2.675 0 0  2.6875 0 0  2.7 0 0  2.7125 0 0  2.725 0 0  2.7375 0 0  2.75 0 0  2.7625 0 0  2.775 0 0  2.7875 0 0  2.8 0 0  2.8125 0 0  2.825 0 0  2.8375 0 0  2.85 0 0  2.8625 0 0  2.875 0 0  2.8875 0 0  2.9 0 0  2.9125 0 0  2.925 0 0  2.9375 0 0  2.95 0 0  2.9625 0 0  2.975 0 0  2.9875 0 0  3 0 0  3.012499999999999 0 0  3.025 0 0  3.0375 0 0  3.050000000000001 0 0  3.0625 0 0  3.074999999999999 0 0  3.0875 0 0  3.1 0 0  3.112500000000001 0 0  3.125 0 0  3.137499999999999 0 0  3.15 0 0  3.1625 0 0  3.175000000000001 0 0  3.1875 0 0  3.199999999999999 0 0  3.2125 0 0  3.225 0 0  3.237500000000001 0 0  3.25 0 0  3.262499999999999 0 0  3.275 0 0  3.2875 0 0  3.300000000000001 0 0  3.3125 0 0  3.324999999999999 0 0  3.3375 0 0  3.35 0 0  3.362500000000001 0 0  3.375 0 0  3.387499999999999 0 0  3.4 0 0  3.4125 0 0  3.425000000000001 0 0  3.4375 0 0  3.449999999999999 0 0  3.4625 0 0  3.475 0 0  3.4875
[...]
<PointData  Vectors="(h, u)"> 
<DataArray  type="Float64"  Name="(h, u)"  NumberOfComponents="3" format="ascii">1.1067876848623574e-01 0.0000000000000000e+00 0.0000000000000000e+00  1.1162369437646356e-01 3.0634364452073759e-03 0.0000000000000000e+00  1.1069019593843907e-01 1.0704833748212119e-02 0.0000000000000000e+00  1.1159470622410027e-01 9.2444111912921758e-03 0.0000000000000000e+00  1.1072240143164128e-01 2.1308618611589256e-02 0.0000000000000000e+00  1.1154098818261841e-01 1.5580643352355998e-02 0.0000000000000000e+00  1.1076945320737919e-01 3.1720505406851243e-02 0.0000000000000000e+00  1.1147017803992616e-01 2.2154142122957930e-02 0.0000000000000000e+00  1.1082249874287567e-01 4.1871712003602526e-02 0.0000000000000000e+00  1.1139178620724592e-01 2.9019588531309506e-02 0.0000000000000000e+00  1.1087137442603601e-01 5.1725115257512055e-02 0.0000000000000000e+00  1.1131544972398334e-01 3.6199565951535458e-02 0.0000000000000000e+00  1.1090669011969229e-01 6.1276556963805587e-02 0.0000000000000000e+00  1.1124924459072603e-01 4.3684508404414839e-02 0.0000000000000000e+00  1.1092175760675743e-01 7.0547434042738652e-02 0.0000000000000000e+00  1.1119820000998298e-01 5.1440927643971929e-02 0.0000000000000000e+00  1.1091363647636943e-01 7.9573841642286175e-02 0.0000000000000000e+00  1.1116329973932065e-01 5.9427121320622923e-02 0.0000000000000000e+00  1.1088315141664770e-01 8.8396051219513785e-02 0.0000000000000000e+00  1.1114152188969668e-01 6.7607527962945294e-02 0.0000000000000000e+00  1.1083434840708395e-01 9.7048386317988164e-02 0.0000000000000000e+00  1.1112713871372225e-01 7.5956878530784630e-02 0.0000000000000000e+00  1.1077363057447800e-01 1.0555226199258266e-01 0.0000000000000000e+00  1.1111356738887447e-01 8.4455540184274397e-02 0.0000000000000000e+00  1.1070821956333679e-01 1.1391964635654106e-01 0.0000000000000000e+00  1.1109474711117195e-01 9.3084100776860287e-02 0.0000000000000000e+00  1.1064399337303142e-01 1.2216762955009965e-01 0.0000000000000000e+00  1.1106593751706481e-01 1.0181927806801332e-01 0.0000000000000000e+00  1.1058397721247015e-01 1.3033037879664738e-01 0.0000000000000000e+00  1.1102453094248045e-01 1.1062757431137239e-01 0.0000000000000000e+00  1.1052875610645335e-01 1.3845386108324478e-01 0.0000000000000000e+00  1.1097053618055272e-01 1.1946177571772187e-01 0.0000000000000000e+00  1.1047816349874391e-01 1.4657802823562660e-01 0.0000000000000000e+00  1.1090544862164697e-01 1.2827356012123245e-01 0.0000000000000000e+00  1.1043225733984460e-01 1.5472577731422699e-01 0.0000000000000000e+00  1.1082993411247176e-01 1.3703810503066699e-01 0.0000000000000000e+00  1.1039081973147108e-01 1.6290729085698086e-01 0.0000000000000000e+00  1.1074353893358305e-01 1.4575918740649024e-01 0.0000000000000000e+00  1.1035231277164802e-01 1.7113157249688418e-01 0.0000000000000000e+00  1.1064846073509590e-01 1.5443408264649791e-01 0.0000000000000000e+00  1.1031261336477625e-01 1.7942140722202887e-01 0.0000000000000000e+00  1.1055398727679258e-01 1.6300926481305522e-01 0.0000000000000000e+00  1.1026296462774267e-01 1.8783599851345761e-01 0.0000000000000000e+00  1.1047580879472164e-01 1.7138116266404652e-01 0.0000000000000000e+00  1.1018906199928032e-01 1.9648334158766401e-01 0.0000000000000000e+00  1.1042962339970501e-01 1.7944742791350574e-01 0.0000000000000000e+00  1.1007576415242606e-01 2.0548159055538595e-01 0.0000000000000000e+00  1.1042450587225561e-01 1.8715739079930277e-01 0.0000000000000000e+00  1.0991737896021128e-01 2.1487127753772722e-01 0.0000000000000000e+00  1.1045962794500432e-01 1.9452865089195548e-01 0.0000000000000000e+00  1.0972478131442374e-01 2.2456026683225233e-01 0.0000000000000000e+00  1.1052230006055751e-01 2.0165073105676920e-01 0.0000000000000000e+00  1.0952155539242428e-01 2.3437308803618653e-01 0.0000000000000000e+00  1.1058688089949961e-01 2.0868266829863363e-01 0.0000000000000000e+00  1.0933460973028407e-01 2.4415169167607889e-01 0.0000000000000000e+00  1.1061945544869359e-01 2.1580036051331425e-01 0.0000000000000000e+00  1.0919142578984151e-01 2.5379173856256637e-01 0.0000000000000000e+00  1.1058840082069636e-01 2.2309332930003142e-01 0.0000000000000000e+00  1.0912331494231056e-01 2.6321814382607645e-01 0.0000000000000000e+00  1.1046985586343996e-01 2.3051487745691759e-01 0.0000000000000000e+00  1.0916186452811144e-01 2.7241849600597534e-01 0.0000000000000000e+00  1.1024184627329640e-01 2.3794432776873053e-01 0.0000000000000000e+00  1.0932856782655431e-01 2.8153411935142475e-01 0.0000000000000000e+00  1.0987973192081639e-01 2.4524023541343548e-01 0.0000000000000000e+00  1.0963520523032076e-01 2.9084320493417953e-01 0.0000000000000000e+00  1.0936434189652161e-01 2.5217689683629657e-01 0.0000000000000000e+00  1.1009819777023458e-01 3.0060310796242418e-01 0.0000000000000000e+00  1.0868649481935823e-01 2.5842218993078980e-01 0.0000000000000000e+00  1.1074428575379386e-01 3.1096191302943244e-01 0.0000000000000000e+00  1.0782921574838218e-01 2.6374046289196879e-01 0.0000000000000000e+00  1.1160082353968402e-01 3.2200205124123377e-01 0.0000000000000000e+00  1.0675132582480831e-01 2.6820207771908477e-01 0.0000000000000000e+00  1.1269577511059516e-01 3.3368276186094703e-01 0.0000000000000000e+00  1.0540797825216097e-01 2.7206249867507581e-01 0.0000000000000000e+00  1.1406659837500742e-01 3.4569544539440955e-01 0.0000000000000000e+00  1.0378639052179829e-01 2.7550820004094245e-01 0.0000000000000000e+00  1.1573408120857549e-01 3.5764990596378615e-01 0.0000000000000000e+00  1.0191345001023723e-01 2.7866361684514046e-01 0.0000000000000000e+00  1.1764831131395966e-01 3.6951968487148851e-01 0.0000000000000000e+00  9.9859018653556383e-02 2.8160785639256986e-01 0.0000000000000000e+00  1.1968311386628935e-01 3.8163428596486937e-01 0.0000000000000000e+00  9.7764763078541303e-02 2.8408845608658184e-01 0.0000000000000000e+00  1.2168055239117788e-01 3.9424473944569499e-01 0.0000000000000000e+00  9.5831787996757942e-02 2.8556528754532562e-01 0.0000000000000000e+00  1.2346357395836693e-01 4.0747742440435664e-01 0.0000000000000000e+00  9.4235810322022912e-02 2.8592397640506834e-01 0.0000000000000000e+00  1.2484336180221799e-01 4.2143186869613664e-01 0.0000000000000000e+00  9.3090250096189348e-02 2.8572180748522619e-01 0.0000000000000000e+00  1.2569567378231902e-01 4.3570642500544510e-01 0.0000000000000000e+00  9.2482254780871354e-02 2.8567234388801460e-01 0.0000000000000000e+00  1.2599988459351216e-01 4.4928901719362141e-01 0.0000000000000000e+00  9.2438709857817117e-02 2.8672607256440374e-01 0.0000000000000000e+00  1.2576879505410937e-01 4.6139631374129569e-01 0.0000000000000000e+00  9.2885675130736950e-02 2.9020246283323714e-01 0.0000000000000000e+00  1.2504902829560313e-01 4.7157373751356624e-01 0.0000000000000000e+00  9.3735229238234963e-02 2.9675692031201517e-01 0.0000000000000000e+00  1.2398162065455536e-01 4.7916706756151761e-01 0.0000000000000000e+00  9.4901353076801129e-02 3.0619077843981007e-01 0.0000000000000000e+00  1.2271144640832239e-01 4.8409024747995821e-01 0.0000000000000000e+00  9.6217188419568056e-02 3.1839981085869862e-01 0.0000000000000000e+00  1.2134234336290631e-01 4.8707894925454259e-01 0.0000000000000000e+00  9.7532505926479898e-02 3.3270816426790117e-01 0.0000000000000000e+00  1.2003378215904004e-01 4.8854578013699634e-01 0.0000000000000000e+00  9.8778737334891481e-02 3.4761972496831556e-01 0.0000000000000000e+00  1.1889258339890778e-01 4.8927624107089651e-01 0.0000000000000000e+00  9.9849698575740484e-02 3.6233734461821615e-01 0.0000000000000000e+00  1.1790642755944934e-01 4.9078218689238379e-01 0.0000000000000000e+00  1.0070777798916983e-01 3.7600447864788561e-01 0.0000000000000000e+00  1.1711309563351417e-01 4.9351875696543013e-01 0.0000000000000000e+00  1.0143339283882857e-01 3.8738577735747282e-01 0.0000000000000000e+00  1.1648751658580603e-01 4.9785295503397264e-01 0.0000000000000000e+00  1.0201926552709782e-01 3.9681337845887460e-01 0.0000000000000000e+00  1.1592010069950580e-01 5.0435403065944440e-01 0.0000000000000000e+00  1.0251567746933377e-01 4.0461067635247500e-01 0.0000000000000000e+00  1.1544543080620795e-01 5.1185543225584396e-01 0.0000000000000000e+00  1.0301524116730611e-01 4.1096408616385305e-01 0.0000000000000000e+00  1.1502483650945018e-01 5.1975918762947293e-01 0.0000000000000000e+00  1.0343690002886910e-01 4.1767658105020228e-01 0.0000000000000000e+00  1.1461586312689477e-01 5.2764126738665007e-01 0.0000000000000000e+00  1.0381783318192023e-01 4.2509695910686818e-01 0.0000000000000000e+00  1.1433944267123362e-01 5.3386450741429503e-01 0.0000000000000000e+00  1.0414850575522130e-01 4.3358396887032569e-01 0.0000000000000000e+00  1.1411811608084479e-01 5.3901523055350420e-01 0.0000000000000000e+00  1.0432003242990107e-01 4.4404534879187557e-01 0.0000000000000000e+00  1.1398922522303678e-01 5.4293269994591686e-01 0.0000000000000000e+00  1.0445931765394606e-01 4.5487887850769049e-01 0.0000000000000000e+00  1.1398906656243431e-01 5.4564964373723812e-01 0.0000000000000000e+00  1.0449637140803088e-01 4.6634049108876657e-01 0.0000000000000000e+00  1.1395241667150964e-01 5.4909585412074369e-01 0.0000000000000000e+00  1.0449543742392010e-01 4.7751148777085650e-01 0.0000000000000000e+00  1.1399356226720050e-01 5.5244954657548495e-01 0.0000000000000000e+00  1.0457352426946309e-01 4.8716198100356101e-01 0.0000000000000000e+00  1.1395384732771593e-01 5.5725217842546892e-01 0.0000000000000000e+00  1.0460322084507746e-01 4.9657230953717968e-01 0.0000000000000000e+00  1.1385606169246537e-01 5.6317787245964213e-01 0.0000000000000000e+00  1.0478766918587354e-01 5.0397517174675954e-01 0.0000000000000000e+00  1.1376756028494243e-01 5.6941043284884907e-01 0.0000000000000000e+00  1.0493894429881481e-01 5.1136466538255398e-01 0.0000000000000000e+00  1.1353728362562947e-01 5.7719999331338911e-01 0.0000000000000000e+00  1.0514709694289463e-01 5.1803621968619429e-01 0.0000000000000000e+00  1.1343008902077857e-01 5.8395348486142173e-01 0.0000000000000000e+00  1.0538295010102601e-01 5.2435949036000673e-01 0.0000000000000000e+00  1.1319566336297317e-01 5.9197269555751997e-01 0.0000000000000000e+00  1.0551469473617321e-01 5.3162610466430038e-01 0.0000000000000000e+00  1.1309221768153484e-01 5.9881020957508169e-01 0.0000000000000000e+00  1.0576650208233165e-01 5.3771503062740467e-01 0.0000000000000000e+00  1.1294934276424208e-01 6.0603355576531992e-01 0.0000000000000000e+00  1.0582384466717014e-01 5.4566065766114469e-01 0.0000000000000000e+00  1.1283005497099204e-01 6.1300122482201880e-01 0.0000000000000000e+00  1.0606330874202730e-01 5.5191260483339699e-01 0.0000000000000000e+00  1.1277187678481122e-01 6.1930773551312501e-01 0.0000000000000000e+00  1.0610285537285506e-01 5.6016134782425164e-01 0.0000000000000000e+00  1.1259659128225859e-01 6.2659517829323430e-01 0.0000000000000000e+00  1.0632910497625327e-01 5.6672219136368640e-01 0.0000000000000000e+00  1.1258468368666955e-01 6.3224571188344569e-01 0.0000000000000000e+00  1.0639209032080597e-01 5.7490112909301094e-01 0.0000000000000000e+00  1.1234384630601210e-01 6.3999882797467589e-01 0.0000000000000000e+00  1.0660379170812571e-01 5.8164468398630831e-01 0.0000000000000000e+00  1.1238664532362071e-01 6.4512453738496178e-01 0.0000000000000000e+00  1.0671666529228101e-01 5.8923934774438114e-01 0.0000000000000000e+00  1.1212073412451408e-01 6.5325554856973456e-01 0.0000000000000000e+00  1.0689763448619545e-01 5.9602938467005684e-01 0.0000000000000000e+00  1.1219852786088631e-01 6.5830732189815833e-01 0.0000000000000000e+00  1.0699622286604871e-01 6.0343846632651088e-01 0.0000000000000000e+00  1.1189131521770294e-01 6.6711875789425290e-01 0.0000000000000000e+00  1.0714483792287216e-01 6.1021925509422370e-01 0.0000000000000000e+00  1.1202944484985629e-01 6.7185834992079219e-01 0.0000000000000000e+00  1.0723690266137262e-01 6.1744199222772911e-01 0.0000000000000000e+00  1.1171351631330226e-01 6.8092267083062219e-01 0.0000000000000000e+00  1.0740466167228090e-01 6.2388992633366525e-01 0.0000000000000000e+00  1.1190349150029462e-01 6.8525136670156717e-01 0.0000000000000000e+00  1.0742719924549589e-01 6.3171476321953857e-01 0.0000000000000000e+00  1.1154454952939401e-01 6.9471961853908970e-01 0.0000000000000000e+00  1.0764261337611150e-01 6.3770958940034850e-01 0.0000000000000000e+00  1.1175397038291833e-01 6.9882480883455167e-01 0.0000000000000000e+00  1.0754933779474890e-01 6.4665963090983181e-01 0.0000000000000000e+00  1.1142460688274204e-01 7.0796922020197173e-01 0.0000000000000000e+00  1.0791781435347429e-01 6.5120592252485654e-01 0.0000000000000000e+00  1.1162555631440223e-01 7.1213649949574931e-01 0.0000000000000000e+00  1.0768837146161729e-01 6.6142239185772156e-01 0.0000000000000000e+00  1.1147847698728856e-01 7.1959328949787305e-01 0.0000000000000000e+00  1.0823261706569150e-01 6.6422230420971951e-01 0.0000000000000000e+00  1.1145965935098585e-01 7.2589192516567347e-01 0.0000000000000000e+00  1.0784162403958159e-01 6.7586555043340346e-01 0.0000000000000000e+00  1.1163517351192115e-01 7.3040094290687241e-01 0.0000000000000000e+00  1.0834783595355077e-01 6.7892911959405389e-01 0.0000000000000000e+00  1.1114904809789430e-01 7.4113968559344878e-01 0.0000000000000000e+00  1.0806092875316928e-01 6.8952825204350865e-01 0.0000000000000000e+00  1.1173112838048982e-01 7.4180773285726676e-01 0.0000000000000000e+00  1.0816726492276697e-01 6.9643948606877326e-01 0.0000000000000000e+00  1.1098091892253460e-01 7.5490679297851160e-01 0.0000000000000000e+00  1.0852210172843348e-01 7.0107577834285739e-01 0.0000000000000000e+00  1.1150984974673393e-01 7.5586893627831742e-01 0.0000000000000000e+00  1.0787891260187446e-01 7.1531877931968657e-01 0.0000000000000000e+00  1.1132044849243239e-01 7.6345506471772662e-01 0.0000000000000000e+00  1.0891479195093602e-01 7.1369594227626643e-01 0.0000000000000000e+00  1.1089960735232346e-01 7.7314977481783742e-01 0.0000000000000000e+00  1.0815627357546292e-01 7.2913881893535948e-01 0.0000000000000000e+00  1.1185145450695293e-01 7.6995174067016459e-01 0.0000000000000000e+00  1.0834536943182345e-01 7.3550356225520963e-01 0.0000000000000000e+00  1.1070116926708228e-01 7.8663760087500578e-01 0.0000000000000000e+00  1.0922228175500993e-01 7.3515096921335965e-01 0.0000000000000000e+00  1.1145100922273310e-01 7.8565987791736658e-01 0.0000000000000000e+00  1.0766654612816180e-01 7.5766202809348671e-01 0.0000000000000000e+00  1.1197999029265882e-01 7.8696309313339508e-01 0.0000000000000000e+00  1.0876442642591710e-01 7.5476160479137067e-01 0.0000000000000000e+00  1.1042704912714801e-01 8.0809436633343790e-01 0.0000000000000000e+00  1.0903639879253647e-01 7.5941973898927650e-01 0.0000000000000000e+00  1.1231979852970747e-01 7.9706552463998259e-01 0.0000000000000000e+00  1.0715992061066094e-01 7.8421023483355012e-01 0.0000000000000000e+00  1.1265822092025807e-01 8.0081207970190948e-01 0.0000000000000000e+00  1.0873504999811760e-01 7.7616165206270582e-01 0.0000000000000000e+00  1.1032478596548931e-01 8.2984127332514357e-01 0.0000000000000000e+00  1.0895956788750295e-01 7.8072414512112731e-01 0.0000000000000000e+00  1.1245104459329308e-01 8.1704538123523007e-01 0.0000000000000000e+00  1.0601410373418300e-01 8.1524039639978996e-01 0.0000000000000000e+00  1.1373857784320220e-01 8.1211160644789337e-01 0.0000000000000000e+00  1.0802535862774659e-01 8.0282583613989555e-01 0.0000000000000000e+00  1.1050447064133129e-01 8.4974354025754262e-01 0.0000000000000000e+00  1.1069228865613319e-01 7.8414726096916099e-01 0.0000000000000000e+00  1.1072227527490430e-01 8.5486486261037897e-01 0.0000000000000000e+00  1.0798714073149848e-01 8.1649598286901515e-01 0.0000000000000000e+00  1.1429900946769864e-01 8.2828823329498880e-01 0.0000000000000000e+00  1.0591259873621942e-01 8.4288594908030512e-01 0.0000000000000000e+00  1.1309536664122831e-01 8.4655922556741625e-01 0.0000000000000000e+00  1.1000778028733527e-01 8.1102625991170640e-01 0.0000000000000000e+00  1.0763912153811878e-01 9.0469624699697282e-01 0.0000000000000000e+00  1.1375860031701902e-01 7.8220236107166285e-01 0.0000000000000000e+00  1.0685705554263339e-01 9.1895183029096839e-01 0.0000000000000000e+00  1.1111572405894030e-01 8.1422567569271820e-01 0.0000000000000000e+00  1.1210475047034589e-01 8.7661705286601221e-01 0.0000000000000000e+00  1.0587772127424507e-01 8.7057491354949978e-01 0.0000000000000000e+00  1.1567881058771798e-01 8.4995228386516231e-01 0.0000000000000000e+00  1.0523337004416412e-01 8.8328587082570076e-01 0.0000000000000000e+00  1.1348431176491927e-01 8.7768643352227893e-01 0.0000000000000000e+00  1.0972393626782079e-01 8.4732034652898691e-01 0.0000000000000000e+00  1.0812403057900531e-01 9.3521876411577709e-01 0.0000000000000000e+00  1.1454098673433534e-01 8.0803168230491129e-01 0.0000000000000000e+00  1.0409021243832035e-01 9.8044995787183420e-01 0.0000000000000000e+00  1.1675897064362727e-01 7.9331376182203639e-01 0.0000000000000000e+00  1.0314827650724506e-01 9.9664324776634461e-01 0.0000000000000000e+00  1.1663860094343996e-01 8.0090180417010226e-01 0.0000000000000000e+00  1.0432095349424167e-01 9.9280989969794475e-01 0.0000000000000000e+00  1.1538324676028219e-01 8.1932824768594603e-01 0.0000000000000000e+00  1.0618458035672139e-01 9.8236286383350069e-01 0.0000000000000000e+00  1.1392904409892270e-01 8.3974378841863029e-01 0.0000000000000000e+00  1.0787198820217911e-01 9.7343237983954312e-01 0.0000000000000000e+00  1.1279244525725285e-01 8.5737740019040776e-01 0.0000000000000000e+00  1.0903592266424052e-01 9.6913480287434706e-01 0.0000000000000000e+00  1.1226153334148732e-01 8.6962865915008514e-01 0.0000000000000000e+00  1.0958669721896513e-01 9.7011533082101487e-01 0.0000000000000000e+00  1.1252608100548382e-01 8.7486808653597248e-01 0.0000000000000000e+00  1.0959957593238190e-01 9.7552075405570582e-01 0.0000000000000000e+00  1.1369036243284639e-01 8.7234990907792265e-01 0.0000000000000000e+00  1.0952403263058515e-01 9.8104198722331037e-01 0.0000000000000000e+00  1.1570758140529595e-01 8.6276743739355788e-01 0.0000000000000000e+00  1.1004452415333388e-01 9.8018226541282794e-01 0.0000000000000000e+00  1.1915737078053029e-01 8.4100669484582480e-01 0.0000000000000000e+00  1.1551387344085075e-01 9.3294249905936055e-01 0.0000000000000000e+00  1.1975822948062897e-01 8.4675419885662095e-01 0.0000000000000000e+00  1.0643179196364112e-01 1.0190511474695791e+00 0.0000000000000000e+00  1.1554117785127369e-01 8.9806490943170925e-01 0.0000000000000000e+00  1.0361163855684534e-01 1.0470056729468729e+00 0.0000000000000000e+00  9.2946909614238515e-02 1.1308016903367730e+00 0.0000000000000000e+00  1.0203374593324463e-01 1.0631364685009808e+00 0.0000000000000000e+00  1.1473425652620607e-01 9.3119701624221662e-01 0.0000000000000000e+00  1.0286860794667438e-01 1.0554949939680476e+00 0.0000000000000000e+00  1.1430188804217374e-01 9.4870178689562645e-01 0.0000000000000000e+00  1.0463820902014789e-01 1.0391980928283668e+00 0.0000000000000000e+00  1.1044480496027355e-01 9.9793155435254199e-01 0.0000000000000000e+00  1.1036034710284096e-01 9.8643588220927991e-01 0.0000000000000000e+00  1.1127704498292601e-01 1.0010966406529427e+00 0.0000000000000000e+00  1.1368941753563862e-01 9.5888233891118391e-01 0.0000000000000000e+00  1.1412483460229456e-01 9.8267451332864053e-01 0.0000000000000000e+00  1.1066922470665898e-01 9.9377605839879080e-01 0.0000000000000000e+00  1.1985072047014760e-01 9.3393211266594056e-01 0.0000000000000000e+00  1.0778236951526322e-01 1.0313821334787072e+00 0.0000000000000000e+00  9.7503551956510406e-02 1.1470343830884460e+00 0.0000000000000000e+00  1.1493556929028380e-01 9.7738428372559472e-01 0.0000000000000000e+00  1.0574459402826926e-01 1.0641943767393722e+00 0.0000000000000000e+00  1.1130998963499096e-01 1.0300646447332285e+00 0.0000000000000000e+00  1.1798048056375489e-01 9.4391772488267967e-01 0.0000000000000000e+00  1.2036332144050456e-01 9.6775914174630340e-01 0.0000000000000000e+00  1.2111615297011717e-01 9.0908395746962467e-01 0.0000000000000000e+00  1.096805