<?xml version="1.0"?>
<VTKFile type="UnstructuredGrid"  version="0.1"  >
<UnstructuredGrid>
<Piece  NumberOfPoints="801" NumberOfCells="800">
<Points>
<DataArray  type="Float64"  NumberOfComponents="3"  format="ascii">-5 0 0  -4.9875 0 0  -4.975 0 0  -4.9625 0 0  -4.95 0 0  -4.9375 0 0  -4.925 0 0  -4.9125 0 0  -4.9 0 0  -4.8875 0 0  -4.875 0 0  -4.8625 0 0  -4.85 0 0  -4.8375 0 0  -4.825 0 0  -4.8125 0 0  -4.8 0 0  -4.7875 0 0  -4.775 0 0  -4.7625 0 0  -4.75 0 0  -4.7375 0 0  -4.725 0 0  -4.7125 0 0  -4.7 0 0  -4.6875 0 0  -4.675 0 0  -4.6625 0 0  -4.65 0 0  -4.6375 0 0  -4.625 0 0  -4.6125 0 0  -4.6 0 0  -4.5875 0 0  -4.575 0 0  -4.5625 0 0  -4.55 0 0  -4.5375 0 0  -4.525 0 0  -4.5125 0 0  -4.5 0 0  -4.4875 0 0  -4.475 0 0  -4.4625 0 0  -4.45 0 0  -4.4375 0 0  -4.425 0 0  -4.4125 0 0  -4.4 0 0  -4.3875 0 0  -4.375 0 0  -4.3625 0 0  -4.35 0 0  -4.3375 0 0  -4.325 0 0  -4.3125 0 0  -4.3 0 0  -4.2875 0 0  -4.275 0 0  -4.2625 0 0  -4.25 0 0  -4.2375 0 0  -4.225 0 0  -4.2125 0 0  -4.2 0 0  -4.1875 0 0  -4.175 0 0  -4.1625 0 0  -4.15 0 0  -4.1375 0 0  -4.125 0 0  -4.1125 0 0  -4.1 0 0  -4.0875 0 0  -4.075 0 0  -4.0625 0 0  -4.05 0 0  -4.0375 0 0  -4.025 0 0  -4.0125 0 0  -4 0 0  -3.9875 0 0  -3.975 0 0  -3.9625 0 0  -3.95 0 0  -3.9375 0 0  -3.925 0 0  -3.9125 0 0  -3.9 0 0  -3.8875 0 0  -3.875 0 0  -3.8625 0 0  -3.85 0 0  -3.8375 0 0  -3.825 0 0  -3.8125 0 0  -3.8 0 0  -3.7875 0 0  -3.775 0 0  -3.7625 0 0  -3.75 0 0  -3.7375 0 0  -3.725 0 0  -3.7125 0 0  -3.7 0 0  -3.6875 0 0  -3.675 0 0  -3.6625 0 0  -3.65 0 0  -3.6375 0 0  -3.625 0 0  -3.6125 0 0  -3.6 0 0  -3.5875 0 0  -3.575 0 0  -3.5625 0 0  -3.55 0 0  -3.5375 0 0  -3.525 0 0  -3.5125 0 0  -3.5 0 0  -3.4875 0 0  -3.475 0 0  -3.4625 0 0  -3.45 0 0  -3.4375 0 0  -3.425 0 0  -3.4125 0 0  -3.4 0 0  -3.3875 0 0  -3.375 0 0  -3.3625 0 0  -3.35 0 0  -3.3375 0 0  -3.325 0 0  -3.3125 0 0  -3.3 0 0  -3.2875 0 0  -3.275 0 0  -3.2625 0 0  -3.25 0 0  -3.2375 0 0  -3.225 0 0  -3.2125 0 0  -3.2 0 0  -3.1875 0 0  -3.175 0 0  -3.1625 0 0  -3.15 0 0  -3.1375 0 0  -3.125 0 0  -3.1125 0 0  -3.1 0 0  -3.0875 0 0  -3.075 0 0  -3.0625 0 0  -3.05 0 0  -3.0375 0 0  -3.025 0 0  -3.0125 0 0  -3 0 0  -2.9875 0 0  -2.975 0 0  -2.9625 0 0  -2.95 0 0  -2.9375 0 0  -2.925 0 0  -2.9125 0 0  -2.9 0 0  -2.8875 0 0  -2.875 0 0  -2.8625 0 0  -2.85 0 0  -2.8375 0 0  -2.825 0 0  -2.8125 0 0  -2.8 0 0  -2.7875 0 0  -2.775 0 0  -2.7625 0 0  -2.75 0 0  -2.7375 0 0  -2.725 0 0  -2.7125 0 0  -2.7 0 0  -2.6875 0 0  -2.675 0 0  -2.6625 0 0  -2.65 0 0  -2.6375 0 0  -2.625 0 0  -2.6125 0 0  -2.6 0 0  -2.5875 0 0  -2.575 0 0  -2.5625 0 0  -2.55 0 0  -2.5375 0 0  -2.525 0 0  -2.5125 0 0  -2.5 0 0  -2.4875 0 0  -2.475 0 0  -2.4625 0 0  -2.45 0 0  -2.4375 0 0  -2.425 0 0  -2.4125 0 0  -2.4 0 0  -2.3875 0 0  -2.375 0 0  -2.3625 0 0  -2.35 0 0  -2.3375 0 0  -2.325 0 0  -2.3125 0 0  -2.3 0 0  -2.2875 0 0  -2.275 0 0  -2.2625 0 0  -2.25 0 0  -2.2375 0 0  -2.225 0 0  -2.2125 0 0  -2.2 0 0  -2.1875 0 0  -2.175 0 0  -2.1625 0 0  -2.15 0 0  -2.1375 0 0  -2.125 0 0  -2.1125 0 0  -2.1 0 0  -2.0875 0 0  -2.075 0 0  -2.0625 0 0  -2.05 0 0  -2.0375 0 0  -2.025 0 0  -2.0125 0 0  -2 0 0  -1.9875 0 0  -1.975 0 0  -1.9625 0 0  -1.95 0 0  -1.9375 0 0  -1.925 0 0  -1.9125 0 0  -1.9 0 0  -1.8875 0 0  -1.875 0 0  -1.8625 0 0  -1.85 0 0  -1.8375 0 0  -1.825 0 0  -1.8125 0 0  -1.8 0 0  -1.7875 0 0  -1.775 0 0  -1.7625 0 0  -1.75 0 0  -1.7375 0 0  -1.725 0 0  -1.7125 0 0  -1.7 0 0  -1.6875 0 0  -1.675 0 0  -1.6625 0 0  -1.65 0 0  -1.6375 0 0  -1.625 0 0  -1.6125 0 0  -1.6 0 0  -1.5875 0 0  -1.575 0 0  -1.5625 0 0  -1.55 0 0  -1.5375 0 0  -1.525 0 0  -1.5125 0 0  -1.5 0 0  -1.4875 0 0  -1.475 0 0  -1.4625 0 0  -1.45 0 0  -1.4375 0 0  -1.425 0 0  -1.4125 0 0  -1.4 0 0  -1.3875 0 0  -1.375 0 0  -1.3625 0 0  -1.35 0 0  -1.3375 0 0  -1.325 0 0  -1.3125 0 0  -1.3 0 0  -1.2875 0 0  -1.275 0 0  -1.2625 0 0  -1.25 0 0  -1.2375 0 0  -1.225 0 0  -1.2125 0 0  -1.2 0 0  -1.1875 0 0  -1.175 0 0  -1.1625 0 0  -1.15 0 0  -1.1375 0 0  -1.125 0 0  -1.1125 0 0  -1.1 0 0  -1.0875 0 0  -1.075 0 0  -1.0625 0 0  -1.05 0 0  -1.0375 0 0  -1.025 0 0  -1.0125 0 0  -1 0 0  -0.9874999999999998 0 0  -0.9749999999999996 0 0  -0.9625000000000004 0 0  -0.9500000000000002 0 0  -0.9375 0 0  -0.9249999999999998 0 0  -0.9124999999999996 0 0  -0.9000000000000004 0 0  -0.8875000000000002 0 0  -0.875 0 0  -0.8624999999999998 0 0  -0.8499999999999996 0 0  -0.8375000000000004 0 0  -0.8250000000000002 0 0  -0.8125 0 0  -0.7999999999999998 0 0  -0.7874999999999996 0 0  -0.7750000000000004 0 0  -0.7625000000000002 0 0  -0.75 0 0  -0.7374999999999998 0 0  -0.7249999999999996 0 0  -0.7125000000000004 0 0  -0.7000000000000002 0 0  -0.6875 0 0  -0.6749999999999998 0 0  -0.6624999999999996 0 0  -0.6500000000000004 0 0  -0.6375000000000002 0 0  -0.625 0 0  -0.6124999999999998 0 0  -0.5999999999999996 0 0  -0.5875000000000004 0 0  -0.5750000000000002 0 0  -0.5625 0 0  -0.5499999999999998 0 0  -0.5374999999999996 0 0  -0.5250000000000004 0 0  -0.5125000000000002 0 0  -0.5 0 0  -0.4874999999999998 0 0  -0.4749999999999996 0 0  -0.4625000000000004 0 0  -0.4500000000000002 0 0  -0.4375 0 0  -0.4249999999999998 0 0  -0.4124999999999996 0 0  -0.4000000000000004 0 0  -0.3875000000000002 0 0  -0.375 0 0  -0.3624999999999998 0 0  -0.3499999999999996 0 0  -0.3375000000000004 0 0  -0.3250000000000002 0 0  -0.3125 0 0  -0.2999999999999998 0 0  -0.2874999999999996 0 0  -0.2750000000000004 0 0  -0.2625000000000002 0 0  -0.25 0 0  -0.2374999999999998 0 0  -0.2249999999999996 0 0  -0.2125000000000004 0 0  -0.2000000000000002 0 0  -0.1875 0 0  -0.1749999999999998 0 0  -0.1624999999999996 0 0  -0.1500000000000004 0 0  -0.1375000000000002 0 0  -0.125 0 0  -0.1124999999999998 0 0  -0.09999999999999964 0 0  -0.08750000000000036 0 0  -0.07500000000000018 0 0  -0.0625 0 0  -0.04999999999999982 0 0  -0.03749999999999964 0 0  -0.02500000000000036 0 0  -0.01250000000000018 0 0  0 0 0  0.01250000000000018 0 0  0.02500000000000036 0 0  0.03749999999999964 0 0  0.04999999999999982 0 0  0.0625 0 0  0.07500000000000018 0 0  0.08750000000000036 0 0  0.09999999999999964 0 0  0.1124999999999998 0 0  0.125 0 0  0.1375000000000002 0 0  0.1500000000000004 0 0  0.1624999999999996 0 0  0.1749999999999998 0 0  0.1875 0 0  0.2000000000000002 0 0  0.2125000000000004 0 0  0.2249999999999996 0 0  0.2374999999999998 0 0  0.25 0 0  0.2625000000000002 0 0  0.2750000000000004 0 0  0.2874999999999996 0 0  0.2999999999999998 0 0  0.3125 0 0  0.3250000000000002 0 0  0.3375000000000004 0 0  0.3499999999999996 0 0  0.3624999999999998 0 0  0.375 0 0  0.3875000000000002 0 0  0.4000000000000004 0 0  0.4124999999999996 0 0  0.4249999999999998 0 0  0.4375 0 0  0.4500000000000002 0 0  0.4625000000000004 0 0  0.4749999999999996 0 0  0.4874999999999998 0 0  0.5 0 0  0.5125000000000002 0 0  0.5250000000000004 0 0  0.5374999999999996 0 0  0.5499999999999998 0 0  0.5625 0 0  0.5750000000000002 0 0  0.5875000000000004 0 0  0.5999999999999996 0 0  0.6124999999999998 0 0  0.625 0 0  0.6375000000000002 0 0  0.6500000000000004 0 0  0.6624999999999996 0 0  0.6749999999999998 0 0  0.6875 0 0  0.7000000000000002 0 0  0.7125000000000004 0 0  0.7249999999999996 0 0  0.7374999999999998 0 0  0.75 0 0  0.7625000000000002 0 0  0.7750000000000004 0 0  0.7874999999999996 0 0  0.7999999999999998 0 0  0.8125 0 0  0.8250000000000002 0 0  0.8375000000000004 0 0  0.8499999999999996 0 0  0.8624999999999998 0 0  0.875 0 0  0.8875000000000002 0 0  0.9000000000000004 0 0  0.9124999999999996 0 0  0.9249999999999998 0 0  0.9375 0 0  0.9500000000000002 0 0  0.9625000000000004 0 0  0.9749999999999996 0 0  0.9874999999999998 0 0  1 0 0  1.0125 0 0  1.025 0 0  1.0375 0 0  1.05 0 0  1.0625 0 0  1.075 0 0  1.0875 0 0  1.1 0 0  1.1125 0 0  1.125 0 0  1.1375 0 0  1.15 0 0  1.1625 0 0  1.175 0 0  1.1875 0 0  1.2 0 0  1.2125 0 0  1.225 0 0  1.2375 0 0  1.25 0 0  1.2625 0 0  1.275 0 0  1.2875 0 0  1.3 0 0  1.3125 0 0  1.325 0 0  1.3375 0 0  1.35 0 0  1.3625 0 0  1.375 0 0  1.3875 0 0  1.4 0 0  1.4125 0 0  1.425 0 0  1.4375 0 0  1.45 0 0  1.4625 0 0  1.475 0 0  1.4875 0 0  1.5 0 0  1.5125 0 0  1.525 0 0  1.5375 0 0  1.55 0 0  1.5625 0 0  1.575 0 0  1.5875 0 0  1.6 0 0  1.6125 0 0  1.625 0 0  1.6375 0 0  1.65 0 0  1.6625 0 0  1.675 0 0  1.6875 0 0  1.7 0 0  1.7125 0 0  1.725 0 0  1.7375 0 0  1.75 0 0  1.7625 0 0  1.775 0 0  1.7875 0 0  1.8 0 0  1.8125 0 0  1.825 0 0  1.8375 0 0  1.85 0 0  1.8625 0 0  1.875 0 0  1.8875 0 0  1.9 0 0  1.9125 0 0  1.925 0 0  1.9375 0 0  1.95 0 0  1.9625 0 0  1.975 0 0  1.9875 0 0  2 0 0  2.0125 0 0  2.025 0 0  2.0375 0 0  2.05 0 0  2.0625 0 0  2.075 0 0  2.0875 0 0  2.1 0 0  2.1125 0 0  2.125 0 0  2.1375 0 0  2.15 0 0  2.1625 0 0  2.175 0 0  2.1875 0 0  2.2 0 0  2.2125 0 0  2.225 0 0  2.2375 0 0  2.25 0 0  2.2625 0 0  2.275 0 0  2.2875 0 0  2.3 0 0  2.3125 0 0  2.325 0 0  2.3375 0 0  2.35 0 0  2.3625 0 0  2.375 0 0  2.3875 0 0  2.4 0 0  2.4125 0 0  2.425 0 0  2.4375 0 0  2.45 0 0  2.4625 0 0  2.475 0 0  2.4875 0 0  2.5 0 0  2.5125 0 0  2.525 0 0  2.5375 0 0  2.55 0 0  2.5625 0 0  2.575 0 0  2.5875 0 0  2.6 0 0  2.6125 0 0  2.625 0 0  2.6375 0 0  2.65 0 0  2.6625 0 0  2.675 0 0  2.6875 0 0  2.7 0 0  2.7125 0 0  2.725 0 0  2.7375 0 0  2.75 0 0  2.7625 0 0  2.775 0 0  2.7875 0 0  2.8 0 0  2.8125 0 0  2.825 0 0  2.8375 0 0  2.85 0 0  2.8625 0 0  2.875 0 0  2.8875 0 0  2.9 0 0  2.9125 0 0  2.925 0 0  2.9375 0 0  2.95 0 0  2.9625 0 0  2.975 0 0  2.9875 0 0  3 0 0  3.012499999999999 0 0  3.025 0 0  3.0375 0 0  3.050000000000001 0 0  3.0625 0 0  3.074999999999999 0 0  3.0875 0 0  3.1 0 0  3.112500000000001 0 0  3.125 0 0  3.137499999999999 0 0  3.15 0 0  3.1625 0 0  3.175000000000001 0 0  3.1875 0 0  3.199999999999999 0 0  3.2125 0 0  3.225 0 0  3.237500000000001 0 0  3.25 0 0  3.262499999999999 0 0  3.275 0 0  3.2875 0 0  3.300000000000001 0 0  3.3125 0 0  3.324999999999999 0 0  3.3375 0 0  3.35 0 0  3.362500000000001 0 0  3.375 0 0  3.387499999999999 0 0  3.4 0 0  3.4125 0 0  3.425000000000001 0 0  3.4375 0 0  3.449999999999999 0 0  3.4625 0 0  3.475 0 0  3.4875
[...]
<PointData  Vectors="(h, u)"> 
<DataArray  type="Float64"  Name="(h, u)"  NumberOfComponents="3" format="ascii">5.5675968554628703e-02 0.0000000000000000e+00 0.0000000000000000e+00  5.4217456853342644e-02 -1.5757206370664609e-02 0.0000000000000000e+00  5.4612258906025210e-02 7.5599387989166322e-02 0.0000000000000000e+00  1.1383811541971198e-01 -9.7519500938620274e-01 0.0000000000000000e+00  2.2053217990534132e-01 -2.0164815058487560e+00 0.0000000000000000e+00  2.6684027785457082e-01 -2.3328465388228450e+00 0.0000000000000000e+00  2.8957709017803668e-01 -2.4759241794491076e+00 0.0000000000000000e+00  2.9747335374419159e-01 -2.5227183542500762e+00 0.0000000000000000e+00  2.9966146959518269e-01 -2.5372403450284002e+00 0.0000000000000000e+00  3.0031095095221683e-01 -2.5424191435164500e+00 0.0000000000000000e+00  2.9937015385827842e-01 -2.5387640007277281e+00 0.0000000000000000e+00  2.9859442896169852e-01 -2.5359208910317808e+00 0.0000000000000000e+00  2.9733912085248343e-01 -2.5304266223500540e+00 0.0000000000000000e+00  2.9621288609886476e-01 -2.5256118590097536e+00 0.0000000000000000e+00  2.9497507968296993e-01 -2.5201710537111515e+00 0.0000000000000000e+00  2.9376007822936817e-01 -2.5148724603237285e+00 0.0000000000000000e+00  2.9254179298968769e-01 -2.5094970413215729e+00 0.0000000000000000e+00  2.9131085421715708e-01 -2.5041225033500822e+00 0.0000000000000000e+00  2.9009878350556795e-01 -2.4987501412534798e+00 0.0000000000000000e+00  2.8887040770985417e-01 -2.4933872312820142e+00 0.0000000000000000e+00  2.8766012802012714e-01 -2.4880138482915193e+00 0.0000000000000000e+00  2.8643838527918053e-01 -2.4826646294853263e+00 0.0000000000000000e+00  2.8522878586548223e-01 -2.4773037485363800e+00 0.0000000000000000e+00  2.8401465478683519e-01 -2.4719579355650674e+00 0.0000000000000000e+00  2.8280543487014664e-01 -2.4666191840258769e+00 0.0000000000000000e+00  2.8159900007152699e-01 -2.4612720683973630e+00 0.0000000000000000e+00  2.8039050091770362e-01 -2.4559570267618662e+00 0.0000000000000000e+00  2.7919107716468994e-01 -2.4506111354080664e+00 0.0000000000000000e+00  2.7798436067323429e-01 -2.4453149766896418e+00 0.0000000000000000e+00  2.7679060979199316e-01 -2.4399777131164817e+00 0.0000000000000000e+00  2.7558721869241820e-01 -2.4346922863861966e+00 0.0000000000000000e+00  2.7439753089599433e-01 -2.4293727225225310e+00 0.0000000000000000e+00  2.7319904040149268e-01 -2.4240897929869609e+00 0.0000000000000000e+00  2.7201200367802636e-01 -2.4187956360115228e+00 0.0000000000000000e+00  2.7081958469895012e-01 -2.4135095761975442e+00 0.0000000000000000e+00  2.6963435299797628e-01 -2.4082449735571450e+00 0.0000000000000000e+00  2.6844849937770837e-01 -2.4029543639051818e+00 0.0000000000000000e+00  2.6726495649935006e-01 -2.3977189620206119e+00 0.0000000000000000e+00  2.6608543351972508e-01 -2.3924268619188500e+00 0.0000000000000000e+00  2.6490413838056265e-01 -2.3872161722954517e+00 0.0000000000000000e+00  2.6373013058612049e-01 -2.3819291926720441e+00 0.0000000000000000e+00  2.6255209488995496e-01 -2.3767359748570911e+00 0.0000000000000000e+00  2.6138248116829593e-01 -2.3714625680514017e+00 0.0000000000000000e+00  2.6020886458103526e-01 -2.3662787311173790e+00 0.0000000000000000e+00  2.5904253017022177e-01 -2.3610272349498658e+00 0.0000000000000000e+00  2.5787434168891671e-01 -2.3558457230856091e+00 0.0000000000000000e+00  2.5671044593474551e-01 -2.3506226549986167e+00 0.0000000000000000e+00  2.5554832064128408e-01 -2.3454388882391313e+00 0.0000000000000000e+00  2.5438646634260847e-01 -2.3402478316312125e+00 0.0000000000000000e+00  2.5323055504795061e-01 -2.3350604579976921e+00 0.0000000000000000e+00  2.5207083881523573e-01 -2.3299016828135830e+00 0.0000000000000000e+00  2.5092081507964792e-01 -2.3247125978845635e+00 0.0000000000000000e+00  2.4976376854723872e-01 -2.3195833707979183e+00 0.0000000000000000e+00  2.4861893132021420e-01 -2.3143971244068995e+00 0.0000000000000000e+00  2.4746538408326604e-01 -2.3092925301822538e+00 0.0000000000000000e+00  2.4632481893632321e-01 -2.3041153397868004e+00 0.0000000000000000e+00  2.4517572349909936e-01 -2.2990293706423897e+00 0.0000000000000000e+00  2.4403848157703226e-01 -2.2938679917512612e+00 0.0000000000000000e+00  2.4289473945876777e-01 -2.2887946615874166e+00 0.0000000000000000e+00  2.4175999860966307e-01 -2.2836553391489427e+00 0.0000000000000000e+00  2.4062231813713558e-01 -2.2785896271614465e+00 0.0000000000000000e+00  2.3948950161798105e-01 -2.2734772887031403e+00 0.0000000000000000e+00  2.3835830561517521e-01 -2.2684157898255011e+00 0.0000000000000000e+00  2.3722714660492983e-01 -2.2633335637267726e+00 0.0000000000000000e+00  2.3610253559596336e-01 -2.2582748005073889e+00 0.0000000000000000e+00  2.3497308749240370e-01 -2.2532238697615088e+00 0.0000000000000000e+00  2.3385485362265410e-01 -2.2481682860035126e+00 0.0000000000000000e+00  2.3272745487182020e-01 -2.2431480314920025e+00 0.0000000000000000e+00  2.3161513481094026e-01 -2.2380977335088894e+00 0.0000000000000000e+00  2.3049034206703256e-01 -2.2331060866757397e+00 0.0000000000000000e+00  2.2938329392321119e-01 -2.2280644210428115e+00 0.0000000000000000e+00  2.2826179883719758e-01 -2.2230983336218917e+00 0.0000000000000000e+00  2.2715928809090807e-01 -2.2180693932003859e+00 0.0000000000000000e+00  2.2604183176986170e-01 -2.2131253369700725e+00 0.0000000000000000e+00  2.2494311354172192e-01 -2.2081134747821545e+00 0.0000000000000000e+00  2.2383040973216198e-01 -2.2031879011372757e+00 0.0000000000000000e+00  2.2273479827012974e-01 -2.1981973107925961e+00 0.0000000000000000e+00  2.2162747250733270e-01 -2.1932870226780676e+00 0.0000000000000000e+00  2.2053439260116156e-01 -2.1883214208558912e+00 0.0000000000000000e+00  2.1943294070848349e-01 -2.1834238334013154e+00 0.0000000000000000e+00  2.1834195921957283e-01 -2.1784862582289746e+00 0.0000000000000000e+00  2.1724672537012440e-01 -2.1735995444277116e+00 0.0000000000000000e+00  2.1615756395415522e-01 -2.1686922651545446e+00 0.0000000000000000e+00  2.1506873628823464e-01 -2.1638153972191088e+00 0.0000000000000000e+00  2.1398126828540262e-01 -2.1589399181594802e+00 0.0000000000000000e+00  2.1289888856633651e-01 -2.1540726252160631e+00 0.0000000000000000e+00  2.1181312386292350e-01 -2.1492297612775157e+00 0.0000000000000000e+00  2.1073710700292519e-01 -2.1443724286722770e+00 0.0000000000000000e+00  2.0965316899334202e-01 -2.1395624272976277e+00 0.0000000000000000e+00  2.0858332850648353e-01 -2.1347159616419686e+00 0.0000000000000000e+00  2.0750142705124086e-01 -2.1299386471541504e+00 0.0000000000000000e+00  2.0643750289028812e-01 -2.1251043289344400e+00 0.0000000000000000e+00  2.0535790636826798e-01 -2.1203592502680610e+00 0.0000000000000000e+00  2.0429959229417019e-01 -2.1155385915479465e+00 0.0000000000000000e+00  2.0322260117952928e-01 -2.1108251585433178e+00 0.0000000000000000e+00  2.0216956974736394e-01 -2.1060197772360416e+00 0.0000000000000000e+00  2.0109549332786752e-01 -2.1013373759233263e+00 0.0000000000000000e+00  2.0004741720454824e-01 -2.0965488940495742e+00 0.0000000000000000e+00  1.9897655428329405e-01 -2.0918969764429161e+00 0.0000000000000000e+00  1.9793312333521851e-01 -2.0871269450296062e+00 0.0000000000000000e+00  1.9686574728387243e-01 -2.0825050920289767e+00 0.0000000000000000e+00  1.9582668135125939e-01 -2.0777549421597286e+00 0.0000000000000000e+00  1.9476302937098583e-01 -2.0731629015491100e+00 0.0000000000000000e+00  1.9372808696510793e-01 -2.0684339190130459e+00 0.0000000000000000e+00  1.9266835320890219e-01 -2.0638716218070563e+00 0.0000000000000000e+00  1.9163733661734811e-01 -2.0591649412001387e+00 0.0000000000000000e+00  1.9058166863748557e-01 -2.0546325007666510e+00 0.0000000000000000e+00  1.8955442596828981e-01 -2.0499491147408251e+00 0.0000000000000000e+00  1.8850292393058196e-01 -2.0454468131156101e+00 0.0000000000000000e+00  1.8747934867867599e-01 -2.0407875922758860e+00 0.0000000000000000e+00  1.8643206679319116e-01 -2.0363158578408607e+00 0.0000000000000000e+00  1.8541209542918571e-01 -2.0316815775795414e+00 0.0000000000000000e+00  1.8436904512104399e-01 -2.0272409575463990e+00 0.0000000000000000e+00  1.8335265315316990e-01 -2.0226323286657486e+00 0.0000000000000000e+00  1.8231380757865032e-01 -2.0182234590052395e+00 0.0000000000000000e+00  1.8130100442236993e-01 -2.0136411600351045e+00 0.0000000000000000e+00  1.8026630403515051e-01 -2.0092647345548702e+00 0.0000000000000000e+00  1.7925712695231968e-01 -2.0047094444155413e+00 0.0000000000000000e+00  1.7822648590462067e-01 -2.0003661838947893e+00 0.0000000000000000e+00  1.7722099317957302e-01 -1.9958386144509197e+00 0.0000000000000000e+00  1.7619430642306955e-01 -1.9915292359571095e+00 0.0000000000000000e+00  1.7519256989085491e-01 -1.9870301645776276e+00 0.0000000000000000e+00  1.7416972088430527e-01 -1.9827553506079727e+00 0.0000000000000000e+00  1.7317181788189953e-01 -1.9782856533308972e+00 0.0000000000000000e+00  1.7215268684658069e-01 -1.9740460200312993e+00 0.0000000000000000e+00  1.7115869164921060e-01 -1.9696067061138760e+00 0.0000000000000000e+00  1.7014316430083581e-01 -1.9654027698260610e+00 0.0000000000000000e+00  1.6915313912732938e-01 -1.9609950183671623e+00 0.0000000000000000e+00  1.6814111578181651e-01 -1.9568271599476492e+00 0.0000000000000000e+00  1.6715510150498061e-01 -1.9524523588906786e+00 0.0000000000000000e+00  1.6614650637779443e-01 -1.9483207858484537e+00 0.0000000000000000e+00  1.6516451317342545e-01 -1.9439805728839832e+00 0.0000000000000000e+00  1.6415930358136654e-01 -1.9398852803106907e+00 0.0000000000000000e+00  1.6318130187604912e-01 -1.9355815841120860e+00 0.0000000000000000e+00  1.6217947690293391e-01 -1.9315223166649631e+00 0.0000000000000000e+00  1.6120538914964266e-01 -1.9272573953960781e+00 0.0000000000000000e+00  1.6020699715451509e-01 -1.9232336142405853e+00 0.0000000000000000e+00  1.5923669115539055e-01 -1.9190100865220403e+00 0.0000000000000000e+00  1.5824183530752667e-01 -1.9150209469721751e+00 0.0000000000000000e+00  1.5727512000052588e-01 -1.9108418085905050e+00 0.0000000000000000e+00  1.5628396083246587e-01 -1.9068861561000303e+00 0.0000000000000000e+00  1.5532058563627157e-01 -1.9027547739023174e+00 0.0000000000000000e+00  1.5433333945840189e-01 -1.8988311677080250e+00 0.0000000000000000e+00  1.5337299837663379e-01 -1.8947512407619167e+00 0.0000000000000000e+00  1.5238993034409459e-01 -1.8908580154448411e+00 0.0000000000000000e+00  1.5143227201560822e-01 -1.8868334930895194e+00 0.0000000000000000e+00  1.5045368273928117e-01 -1.8829688680894991e+00 0.0000000000000000e+00  1.4949832741551783e-01 -1.8790038155777402e+00 0.0000000000000000e+00  1.4852453233937801e-01 -1.8751660605924294e+00 0.0000000000000000e+00  1.4757109630169044e-01 -1.8712644662829572e+00 0.0000000000000000e+00  1.4660239768933242e-01 -1.8674521259119548e+00 0.0000000000000000e+00  1.4565052483824806e-01 -1.8636176499456869e+00 0.0000000000000000e+00  1.4468717716284582e-01 -1.8598298234366843e+00 0.0000000000000000e+00  1.4373657639271828e-01 -1.8560654968684289e+00 0.0000000000000000e+00  1.4277874720381506e-01 -1.8523021582535406e+00 0.0000000000000000e+00  1.4182923276235590e-01 -1.8486100535300034e+00 0.0000000000000000e+00  1.4087696262276181e-01 -1.8448723843607733e+00 0.0000000000000000e+00  1.3992849308018065e-01 -1.8412532918749231e+00 0.0000000000000000e+00  1.3898165974162072e-01 -1.8375439845797068e+00 0.0000000000000000e+00  1.3803436969965638e-01 -1.8339971438804219e+00 0.0000000000000000e+00  1.3709266301537498e-01 -1.8303206209432166e+00 0.0000000000000000e+00  1.3614688063396288e-01 -1.8268435659961197e+00 0.0000000000000000e+00  1.3520979537637470e-01 -1.8232060522596711e+00 0.0000000000000000e+00  1.3426603863716025e-01 -1.8197946339425151e+00 0.0000000000000000e+00  1.3333289192848405e-01 -1.8162040206420811e+00 0.0000000000000000e+00  1.3239183775566651e-01 -1.8128526620502217e+00 0.0000000000000000e+00  1.3146181579696598e-01 -1.8093181159045009e+00 0.0000000000000000e+00  1.3052423908171576e-01 -1.8060203332632196e+00 0.0000000000000000e+00  1.2959647402640770e-01 -1.8025516350406667e+00 0.0000000000000000e+00  1.2866315835009126e-01 -1.7993008173523626e+00 0.0000000000000000e+00  1.2773683061636376e-01 -1.7959074618258830e+00 0.0000000000000000e+00  1.2680845869091145e-01 -1.7926978478894453e+00 0.0000000000000000e+00  1.2588291337235738e-01 -1.7893879964449348e+00 0.0000000000000000e+00  1.2495995198479697e-01 -1.7862157258544782e+00 0.0000000000000000e+00  1.2403481153541218e-01 -1.7829951640446491e+00 0.0000000000000000e+00  1.2311741157267359e-01 -1.7798592222377148e+00 0.0000000000000000e+00  1.2219266238595540e-01 -1.7767305216292708e+00 0.0000000000000000e+00  1.2128059737701512e-01 -1.7736333656786880e+00 0.0000000000000000e+00  1.2035662726709752e-01 -1.7705954635617522e+00 0.0000000000000000e+00  1.1944929186693712e-01 -1.7675431240236323e+00 0.0000000000000000e+00  1.1852686050220558e-01 -1.7645914985630677e+00 0.0000000000000000e+00  1.1762334217066431e-01 -1.7615930174621479e+00 0.0000000000000000e+00  1.1670347788024144e-01 -1.7587205405051300e+00 0.0000000000000000e+00  1.1580270080552224e-01 -1.7557867287403957e+00 0.0000000000000000e+00  1.1488653379883952e-01 -1.7529851299519270e+00 0.0000000000000000e+00  1.1398745602194706e-01 -1.7501267930002360e+00 0.0000000000000000e+00  1.1307601669630692e-01 -1.7473884937844730e+00 0.0000000000000000e+00  1.1217784368821050e-01 -1.7446144456290165e+00 0.0000000000000000e+00  1.1127187019904369e-01 -1.7419343655721615e+00 0.0000000000000000e+00  1.1037423657204699e-01 -1.7392496740345453e+00 0.0000000000000000e+00  1.0947404227234775e-01 -1.7366265331824549e+00 0.0000000000000000e+00  1.0857711350146335e-01 -1.7340314592560284e+00 0.0000000000000000e+00  1.0768255747030482e-01 -1.7314681461947212e+00 0.0000000000000000e+00  1.0678701874289766e-01 -1.7289581176545754e+00 0.0000000000000000e+00  1.0589760017035055e-01 -1.7264608862191593e+00 0.0000000000000000e+00  1.0500452852827664e-01 -1.7240275842728505e+00 0.0000000000000000e+00  1.0411959223667556e-01 -1.7216041517581999e+00 0.0000000000000000e+00  1.0323024415481434e-01 -1.7192374457634907e+00 0.0000000000000000e+00  1.0234924947729521e-01 -1.7168944089824165e+00 0.0000000000000000e+00  1.0146482742860491e-01 -1.7145845546782144e+00 0.0000000000000000e+00  1.0058760868540939e-01 -1.7123247958045074e+00 0.0000000000000000e+00  9.9709084400813316e-02 -1.7100641431203576e+00 0.0000000000000000e+00  9.8836029627194816e-02 -1.7078849473661248e+00 0.0000000000000000e+00  9.7964090045986149e-02 -1.7056684805114577e+00 0.0000000000000000e+00  9.7096190008460981e-02 -1.7035608724260549e+00 0.0000000000000000e+00  9.6231334750857683e-02 -1.7013852407808081e+00 0.0000000000000000e+00  9.5370100654069145e-02 -1.6993346066020385e+00 0.0000000000000000e+00  9.4512868768079655e-02 -1.6971958021878562e+00 0.0000000000000000e+00  9.3660168054000514e-02 -1.6951833517971651e+00 0.0000000000000000e+00  9.2811426377896619e-02 -1.6930736602707992e+00 0.0000000000000000e+00  9.1969320403825855e-02 -1.6910779059395065e+00 0.0000000000000000e+00  9.1130526418122568e-02 -1.6889829929753393e+00 0.0000000000000000e+00  9.0301196289639077e-02 -1.6869803512978925e+00 0.0000000000000000e+00  8.9474567568397251e-02 -1.6848771947102117e+00 0.0000000000000000e+00  8.8660383349612293e-02 -1.6828410927787696e+00 0.0000000000000000e+00  8.7848954157745754e-02 -1.6806970031099122e+00 0.0000000000000000e+00  8.7052681010820990e-02 -1.6785954866333022e+00 0.0000000000000000e+00  8.6260268618750177e-02 -1.6763680306834254e+00 0.0000000000000000e+00  8.5485332005477824e-02 -1.6741606383778276e+00 0.0000000000000000e+00  8.4716458848685852e-02 -1.6717980262923406e+00 0.0000000000000000e+00  8.3967163303694498e-02 -1.6694330474005581e+00 0.0000000000000000e+00  8.3226982985339690e-02 -1.6668745100710247e+00 0.0000000000000000e+00  8.2508581878467019e-02 -1.6642877878056073e+00 0.0000000000000000e+00  8.1802780721130119e-02 -1.6614642909326638e+00 0.0000000000000000e+00  8.1121272026862021e-02 -1.6585810650586290e+00 0.0000000000000000e+00  8.0455803968610351e-02 -1.6554180022147429e+00 0.0000000000000000e+00  7.9817357419052770e-02 -1.6521590502434811e+00 0.0000000000000000e+00  7.9197893050837909e-02 -1.6485824020220032e+00 0.0000000000000000e+00  7.8607984417883581e-02 -1.6448738868777766e+00 0.0000000000000000e+00  7.8039148244457637e-02 -1.6408192002382247e+00 0.0000000000000000e+00  7.7501675396657949e-02 -1.6366032771942103e+00 0.0000000000000000e+00  7.6986329518829971e-02 -1.6320245995460674e+00 0.0000000000000000e+00  7.6503030682651990e-02 -1.6272670539569087e+00 0.0000000000000000e+00  7.6041876927809754e-02 -1.6221425596680283e+00 0.0000000000000000e+00  7.5612227039511329e-02 -1.6168351627490616e+00 0.0000000000000000e+00  7.5203849036537748e-02 -1.6111677696708442e+00 0.0000000000000000e+00  7.4825391569598401e-02 -1.6053254920799203e+00 0.0000000000000000e+00  7.4466666425976491e-02 -1.5991389857932865e+00 0.0000000000000000e+00  7.4135589421450113e-02 -1.5927940451569693e+00 0.0000000000000000e+00  7.3822284008244116e-02 -1.5861266980272415e+00 0.0000000000000000e+00  7.3534030753314703e-02 -1.5793218125303994e+00 0.0000000000000000e+00  7.3261394654098450e-02 -1.5722196811677043e+00 0.0000000000000000e+00  7.3011172265871907e-02 -1.5650021915232493e+00 0.0000000000000000e+00  7.2774407390390233e-02 -1.5575135854635909e+00 0.0000000000000000e+00  7.2557545266353898e-02 -1.5499311254699013e+00 0.0000000000000000e+00  7.2352112509583469e-02 -1.5421028273008228e+00 0.0000000000000000e+00  7.2164280290573840e-02 -1.5342005392893647e+00 0.0000000000000000e+00  7.1986060541443214e-02 -1.5260756696988318e+00 0.0000000000000000e+00  7.1823376983632059e-02 -1.5178946724116313e+00 0.0000000000000000e+00  7.1668728602365978e-02 -1.5095117674117380e+00 0.0000000000000000e+00  7.1527794144321824e-02 -1.5010885340468076e+00 0.0000000000000000e+00  7.1393549202771855e-02 -1.4924813685458971e+00 0.0000000000000000e+00  7.1271430132694033e-02 -1.4838477060834472e+00 0.0000000000000000e+00  7.1154859991065592e-02 -1.4750455152240707e+00 0.0000000000000000e+00  7.1049046454785270e-02 -1.4662288884123091e+00 0.0000000000000000e+00  7.0947814439781307e-02 -1.4572567777930745e+00 0.0000000000000000e+00  7.0856168486515145e-02 -1.4482807849080668e+00 0.0000000000000000e+00  7.0768278845637744e-02 -1.4391602172511277e+00 0.0000000000000000e+00  7.0688982432951894e-02 -1.4300450955997324e+00 0.0000000000000000e+00  7.0612730497900622e-02 -1.4207943900663222e+00 0.0000000000000000e+00  7.0544238075712612e-02 -1.4115574910331603e+00 0.0000000000000000e+00  7.0478164561633028e-02 -1.4021922952235981e+00 0.0000000000000000e+00  7.0419161547378956e-02 -1.3928485081470212e+00 0.0000000000000000e+00  7.0362012526356266e-02 -1.3833822199601447e+00 0.0000000000000000e+00  7.0311379538430197e-02 -1.3739443420268052e+00 0.0000000000000000e+00  7.0262072494795380e-02 -1.3643884728072881e+00 0.0000000000000000e+00  7.0218854762253050e-02 -1.3548675283249316e+00 0.0000000000000000e+00  7.0176450448114130e-02 -1.3452320077221085e+00 0.0000000000000000e+00  7.0139831656534840e-02 -1.3356375227463735e+00 0.0000000000000000e+00  7.0103511216786193e-02 -1.3259309493801399e+00 0.0000000000000000e+00  7.0072790989152201e-02 -1.3162711889967416e+00 0.0000000000000000e+00  7.0041837753995570e-02 -1.3065010324487796e+00 0.0000000000000000e+00  7.0016412083290014e-02 -1.2967832070950815e+00 0.0000000000000000e+00  6.9990197285802414e-02 -1.2869559688456618e+00 0.0000000000000000e+00  6.9969541571153482e-02 -1.2771864124696772e+00 0.0000000000000000e+00  6.9947512995328545e-02 -1.2673077566976751e+00 0.0000000000000000e+00  6.9931167747275341e-02 -1.2574920749673633e+00 0.0000000000000000e+00  6.9912840130380821e-02 -1.2475669424891251e+00 0.0000000000000000e+00  6.9900399605553998e-02 -1.2377101272210262e+00 0.0000000000000000e+00  6.9885345810493160e-02 -1.2277428437057689e+00 0.0000000000000000e+00  6.98764495