<?xml version="1.0"?>
<VTKFile type="UnstructuredGrid"  version="0.1"  >
<UnstructuredGrid>
<Piece  NumberOfPoints="801" NumberOfCells="800">
<Points>
<DataArray  type="Float64"  NumberOfComponents="3"  format="ascii">-5 0 0  -4.9875 0 0  -4.975 0 0  -4.9625 0 0  -4.95 0 0  -4.9375 0 0  -4.925 0 0  -4.9125 0 0  -4.9 0 0  -4.8875 0 0  -4.875 0 0  -4.8625 0 0  -4.85 0 0  -4.8375 0 0  -4.825 0 0  -4.8125 0 0  -4.8 0 0  -4.7875 0 0  -4.775 0 0  -4.7625 0 0  -4.75 0 0  -4.7375 0 0  -4.725 0 0  -4.7125 0 0  -4.7 0 0  -4.6875 0 0  -4.675 0 0  -4.6625 0 0  -4.65 0 0  -4.6375 0 0  -4.625 0 0  -4.6125 0 0  -4.6 0 0  -4.5875 0 0  -4.575 0 0  -4.5625 0 0  -4.55 0 0  -4.5375 0 0  -4.525 0 0  -4.5125 0 0  -4.5 0 0  -4.4875 0 0  -4.475 0 0  -4.4625 0 0  -4.45 0 0  -4.4375 0 0  -4.425 0 0  -4.4125 0 0  -4.4 0 0  -4.3875 0 0  -4.375 0 0  -4.3625 0 0  -4.35 0 0  -4.3375 0 0  -4.325 0 0  -4.3125 0 0  -4.3 0 0  -4.2875 0 0  -4.275 0 0  -4.2625 0 0  -4.25 0 0  -4.2375 0 0  -4.225 0 0  -4.2125 0 0  -4.2 0 0  -4.1875 0 0  -4.175 0 0  -4.1625 0 0  -4.15 0 0  -4.1375 0 0  -4.125 0 0  -4.1125 0 0  -4.1 0 0  -4.0875 0 0  -4.075 0 0  -4.0625 0 0  -4.05 0 0  -4.0375 0 0  -4.025 0 0  -4.0125 0 0  -4 0 0  -3.9875 0 0  -3.975 0 0  -3.9625 0 0  -3.95 0 0  -3.9375 0 0  -3.925 0 0  -3.9125 0 0  -3.9 0 0  -3.8875 0 0  -3.875 0 0  -3.8625 0 0  -3.85 0 0  -3.8375 0 0  -3.825 0 0  -3.8125 0 0  -3.8 0 0  -3.7875 0 0  -3.775 0 0  -3.7625 0 0  -3.75 0 0  -3.7375 0 0  -3.725 0 0  -3.7125 0 0  -3.7 0 0  -3.6875 0 0  -3.675 0 0  -3.6625 0 0  -3.65 0 0  -3.6375 0 0  -3.625 0 0  -3.6125 0 0  -3.6 0 0  -3.5875 0 0  -3.575 0 0  -3.5625 0 0  -3.55 0 0  -3.5375 0 0  -3.525 0 0  -3.5125 0 0  -3.5 0 0  -3.4875 0 0  -3.475 0 0  -3.4625 0 0  -3.45 0 0  -3.4375 0 0  -3.425 0 0  -3.4125 0 0  -3.4 0 0  -3.3875 0 0  -3.375 0 0  -3.3625 0 0  -3.35 0 0  -3.3375 0 0  -3.325 0 0  -3.3125 0 0  -3.3 0 0  -3.2875 0 0  -3.275 0 0  -3.2625 0 0  -3.25 0 0  -3.2375 0 0  -3.225 0 0  -3.2125 0 0  -3.2 0 0  -3.1875 0 0  -3.175 0 0  -3.1625 0 0  -3.15 0 0  -3.1375 0 0  -3.125 0 0  -3.1125 0 0  -3.1 0 0  -3.0875 0 0  -3.075 0 0  -3.0625 0 0  -3.05 0 0  -3.0375 0 0  -3.025 0 0  -3.0125 0 0  -3 0 0  -2.9875 0 0  -2.975 0 0  -2.9625 0 0  -2.95 0 0  -2.9375 0 0  -2.925 0 0  -2.9125 0 0  -2.9 0 0  -2.8875 0 0  -2.875 0 0  -2.8625 0 0  -2.85 0 0  -2.8375 0 0  -2.825 0 0  -2.8125 0 0  -2.8 0 0  -2.7875 0 0  -2.775 0 0  -2.7625 0 0  -2.75 0 0  -2.7375 0 0  -2.725 0 0  -2.7125 0 0  -2.7 0 0  -2.6875 0 0  -2.675 0 0  -2.6625 0 0  -2.65 0 0  -2.6375 0 0  -2.625 0 0  -2.6125 0 0  -2.6 0 0  -2.5875 0 0  -2.575 0 0  -2.5625 0 0  -2.55 0 0  -2.5375 0 0  -2.525 0 0  -2.5125 0 0  -2.5 0 0  -2.4875 0 0  -2.475 0 0  -2.4625 0 0  -2.45 0 0  -2.4375 0 0  -2.425 0 0  -2.4125 0 0  -2.4 0 0  -2.3875 0 0  -2.375 0 0  -2.3625 0 0  -2.35 0 0  -2.3375 0 0  -2.325 0 0  -2.3125 0 0  -2.3 0 0  -2.2875 0 0  -2.275 0 0  -2.2625 0 0  -2.25 0 0  -2.2375 0 0  -2.225 0 0  -2.2125 0 0  -2.2 0 0  -2.1875 0 0  -2.175 0 0  -2.1625 0 0  -2.15 0 0  -2.1375 0 0  -2.125 0 0  -2.1125 0 0  -2.1 0 0  -2.0875 0 0  -2.075 0 0  -2.0625 0 0  -2.05 0 0  -2.0375 0 0  -2.025 0 0  -2.0125 0 0  -2 0 0  -1.9875 0 0  -1.975 0 0  -1.9625 0 0  -1.95 0 0  -1.9375 0 0  -1.925 0 0  -1.9125 0 0  -1.9 0 0  -1.8875 0 0  -1.875 0 0  -1.8625 0 0  -1.85 0 0  -1.8375 0 0  -1.825 0 0  -1.8125 0 0  -1.8 0 0  -1.7875 0 0  -1.775 0 0  -1.7625 0 0  -1.75 0 0  -1.7375 0 0  -1.725 0 0  -1.7125 0 0  -1.7 0 0  -1.6875 0 0  -1.675 0 0  -1.6625 0 0  -1.65 0 0  -1.6375 0 0  -1.625 0 0  -1.6125 0 0  -1.6 0 0  -1.5875 0 0  -1.575 0 0  -1.5625 0 0  -1.55 0 0  -1.5375 0 0  -1.525 0 0  -1.5125 0 0  -1.5 0 0  -1.4875 0 0  -1.475 0 0  -1.4625 0 0  -1.45 0 0  -1.4375 0 0  -1.425 0 0  -1.4125 0 0  -1.4 0 0  -1.3875 0 0  -1.375 0 0  -1.3625 0 0  -1.35 0 0  -1.3375 0 0  -1.325 0 0  -1.3125 0 0  -1.3 0 0  -1.2875 0 0  -1.275 0 0  -1.2625 0 0  -1.25 0 0  -1.2375 0 0  -1.225 0 0  -1.2125 0 0  -1.2 0 0  -1.1875 0 0  -1.175 0 0  -1.1625 0 0  -1.15 0 0  -1.1375 0 0  -1.125 0 0  -1.1125 0 0  -1.1 0 0  -1.0875 0 0  -1.075 0 0  -1.0625 0 0  -1.05 0 0  -1.0375 0 0  -1.025 0 0  -1.0125 0 0  -1 0 0  -0.9874999999999998 0 0  -0.9749999999999996 0 0  -0.9625000000000004 0 0  -0.9500000000000002 0 0  -0.9375 0 0  -0.9249999999999998 0 0  -0.9124999999999996 0 0  -0.9000000000000004 0 0  -0.8875000000000002 0 0  -0.875 0 0  -0.8624999999999998 0 0  -0.8499999999999996 0 0  -0.8375000000000004 0 0  -0.8250000000000002 0 0  -0.8125 0 0  -0.7999999999999998 0 0  -0.7874999999999996 0 0  -0.7750000000000004 0 0  -0.7625000000000002 0 0  -0.75 0 0  -0.7374999999999998 0 0  -0.7249999999999996 0 0  -0.7125000000000004 0 0  -0.7000000000000002 0 0  -0.6875 0 0  -0.6749999999999998 0 0  -0.6624999999999996 0 0  -0.6500000000000004 0 0  -0.6375000000000002 0 0  -0.625 0 0  -0.6124999999999998 0 0  -0.5999999999999996 0 0  -0.5875000000000004 0 0  -0.5750000000000002 0 0  -0.5625 0 0  -0.5499999999999998 0 0  -0.5374999999999996 0 0  -0.5250000000000004 0 0  -0.5125000000000002 0 0  -0.5 0 0  -0.4874999999999998 0 0  -0.4749999999999996 0 0  -0.4625000000000004 0 0  -0.4500000000000002 0 0  -0.4375 0 0  -0.4249999999999998 0 0  -0.4124999999999996 0 0  -0.4000000000000004 0 0  -0.3875000000000002 0 0  -0.375 0 0  -0.3624999999999998 0 0  -0.3499999999999996 0 0  -0.3375000000000004 0 0  -0.3250000000000002 0 0  -0.3125 0 0  -0.2999999999999998 0 0  -0.2874999999999996 0 0  -0.2750000000000004 0 0  -0.2625000000000002 0 0  -0.25 0 0  -0.2374999999999998 0 0  -0.2249999999999996 0 0  -0.2125000000000004 0 0  -0.2000000000000002 0 0  -0.1875 0 0  -0.1749999999999998 0 0  -0.1624999999999996 0 0  -0.1500000000000004 0 0  -0.1375000000000002 0 0  -0.125 0 0  -0.1124999999999998 0 0  -0.09999999999999964 0 0  -0.08750000000000036 0 0  -0.07500000000000018 0 0  -0.0625 0 0  -0.04999999999999982 0 0  -0.03749999999999964 0 0  -0.02500000000000036 0 0  -0.01250000000000018 0 0  0 0 0  0.01250000000000018 0 0  0.02500000000000036 0 0  0.03749999999999964 0 0  0.04999999999999982 0 0  0.0625 0 0  0.07500000000000018 0 0  0.08750000000000036 0 0  0.09999999999999964 0 0  0.1124999999999998 0 0  0.125 0 0  0.1375000000000002 0 0  0.1500000000000004 0 0  0.1624999999999996 0 0  0.1749999999999998 0 0  0.1875 0 0  0.2000000000000002 0 0  0.2125000000000004 0 0  0.2249999999999996 0 0  0.2374999999999998 0 0  0.25 0 0  0.2625000000000002 0 0  0.2750000000000004 0 0  0.2874999999999996 0 0  0.2999999999999998 0 0  0.3125 0 0  0.3250000000000002 0 0  0.3375000000000004 0 0  0.3499999999999996 0 0  0.3624999999999998 0 0  0.375 0 0  0.3875000000000002 0 0  0.4000000000000004 0 0  0.4124999999999996 0 0  0.4249999999999998 0 0  0.4375 0 0  0.4500000000000002 0 0  0.4625000000000004 0 0  0.4749999999999996 0 0  0.4874999999999998 0 0  0.5 0 0  0.5125000000000002 0 0  0.5250000000000004 0 0  0.5374999999999996 0 0  0.5499999999999998 0 0  0.5625 0 0  0.5750000000000002 0 0  0.5875000000000004 0 0  0.5999999999999996 0 0  0.6124999999999998 0 0  0.625 0 0  0.6375000000000002 0 0  0.6500000000000004 0 0  0.6624999999999996 0 0  0.6749999999999998 0 0  0.6875 0 0  0.7000000000000002 0 0  0.7125000000000004 0 0  0.7249999999999996 0 0  0.7374999999999998 0 0  0.75 0 0  0.7625000000000002 0 0  0.7750000000000004 0 0  0.7874999999999996 0 0  0.7999999999999998 0 0  0.8125 0 0  0.8250000000000002 0 0  0.8375000000000004 0 0  0.8499999999999996 0 0  0.8624999999999998 0 0  0.875 0 0  0.8875000000000002 0 0  0.9000000000000004 0 0  0.9124999999999996 0 0  0.9249999999999998 0 0  0.9375 0 0  0.9500000000000002 0 0  0.9625000000000004 0 0  0.9749999999999996 0 0  0.9874999999999998 0 0  1 0 0  1.0125 0 0  1.025 0 0  1.0375 0 0  1.05 0 0  1.0625 0 0  1.075 0 0  1.0875 0 0  1.1 0 0  1.1125 0 0  1.125 0 0  1.1375 0 0  1.15 0 0  1.1625 0 0  1.175 0 0  1.1875 0 0  1.2 0 0  1.2125 0 0  1.225 0 0  1.2375 0 0  1.25 0 0  1.2625 0 0  1.275 0 0  1.2875 0 0  1.3 0 0  1.3125 0 0  1.325 0 0  1.3375 0 0  1.35 0 0  1.3625 0 0  1.375 0 0  1.3875 0 0  1.4 0 0  1.4125 0 0  1.425 0 0  1.4375 0 0  1.45 0 0  1.4625 0 0  1.475 0 0  1.4875 0 0  1.5 0 0  1.5125 0 0  1.525 0 0  1.5375 0 0  1.55 0 0  1.5625 0 0  1.575 0 0  1.5875 0 0  1.6 0 0  1.6125 0 0  1.625 0 0  1.6375 0 0  1.65 0 0  1.6625 0 0  1.675 0 0  1.6875 0 0  1.7 0 0  1.7125 0 0  1.725 0 0  1.7375 0 0  1.75 0 0  1.7625 0 0  1.775 0 0  1.7875 0 0  1.8 0 0  1.8125 0 0  1.825 0 0  1.8375 0 0  1.85 0 0  1.8625 0 0  1.875 0 0  1.8875 0 0  1.9 0 0  1.9125 0 0  1.925 0 0  1.9375 0 0  1.95 0 0  1.9625 0 0  1.975 0 0  1.9875 0 0  2 0 0  2.0125 0 0  2.025 0 0  2.0375 0 0  2.05 0 0  2.0625 0 0  2.075 0 0  2.0875 0 0  2.1 0 0  2.1125 0 0  2.125 0 0  2.1375 0 0  2.15 0 0  2.1625 0 0  2.175 0 0  2.1875 0 0  2.2 0 0  2.2125 0 0  2.225 0 0  2.2375 0 0  2.25 0 0  2.2625 0 0  2.275 0 0  2.2875 0 0  2.3 0 0  2.3125 0 0  2.325 0 0  2.3375 0 0  2.35 0 0  2.3625 0 0  2.375 0 0  2.3875 0 0  2.4 0 0  2.4125 0 0  2.425 0 0  2.4375 0 0  2.45 0 0  2.4625 0 0  2.475 0 0  2.4875 0 0  2.5 0 0  2.5125 0 0  2.525 0 0  2.5375 0 0  2.55 0 0  2.5625 0 0  2.575 0 0  2.5875 0 0  2.6 0 0  2.6125 0 0  2.625 0 0  2.6375 0 0  2.65 0 0  2.6625 0 0  2.675 0 0  2.6875 0 0  2.7 0 0  2.7125 0 0  2.725 0 0  2.7375 0 0  2.75 0 0  2.7625 0 0  2.775 0 0  2.7875 0 0  2.8 0 0  2.8125 0 0  2.825 0 0  2.8375 0 0  2.85 0 0  2.8625 0 0  2.875 0 0  2.8875 0 0  2.9 0 0  2.9125 0 0  2.925 0 0  2.9375 0 0  2.95 0 0  2.9625 0 0  2.975 0 0  2.9875 0 0  3 0 0  3.012499999999999 0 0  3.025 0 0  3.0375 0 0  3.050000000000001 0 0  3.0625 0 0  3.074999999999999 0 0  3.0875 0 0  3.1 0 0  3.112500000000001 0 0  3.125 0 0  3.137499999999999 0 0  3.15 0 0  3.1625 0 0  3.175000000000001 0 0  3.1875 0 0  3.199999999999999 0 0  3.2125 0 0  3.225 0 0  3.237500000000001 0 0  3.25 0 0  3.262499999999999 0 0  3.275 0 0  3.2875 0 0  3.300000000000001 0 0  3.3125 0 0  3.324999999999999 0 0  3.3375 0 0  3.35 0 0  3.362500000000001 0 0  3.375 0 0  3.387499999999999 0 0  3.4 0 0  3.4125 0 0  3.425000000000001 0 0  3.4375 0 0  3.449999999999999 0 0  3.4625 0 0  3.475 0 0  3.4875
[...]
<PointData  Vectors="(h, u)"> 
<DataArray  type="Float64"  Name="(h, u)"  NumberOfComponents="3" format="ascii">2.2196492758339031e-01 0.0000000000000000e+00 0.0000000000000000e+00  2.1977355258369899e-01 6.5445620581491646e-03 0.0000000000000000e+00  2.2196190162021356e-01 1.2953217769572086e-02 0.0000000000000000e+00  2.1976959291755768e-01 1.9633576370928323e-02 0.0000000000000000e+00  2.2195281245209092e-01 2.5907269681691547e-02 0.0000000000000000e+00  2.1976165636067185e-01 3.2722622411410149e-02 0.0000000000000000e+00  2.2193764820612266e-01 3.8863361042311660e-02 0.0000000000000000e+00  2.1974974489102064e-01 4.5811860292595777e-02 0.0000000000000000e+00  2.2191642529528421e-01 5.1822328181024828e-02 0.0000000000000000e+00  2.1973387327366659e-01 5.8901055476386688e-02 0.0000000000000000e+00  2.2188913866368884e-01 6.4784974643007198e-02 0.0000000000000000e+00  2.1971400943803818e-01 7.1990372057035359e-02 0.0000000000000000e+00  2.2185575076673728e-01 7.7752541151302548e-02 0.0000000000000000e+00  2.1969013856974409e-01 8.5080016429526312e-02 0.0000000000000000e+00  2.2181628337697865e-01 9.0725819340550684e-02 0.0000000000000000e+00  2.1966229283261152e-01 9.8169706392916153e-02 0.0000000000000000e+00  2.2177073721169921e-01 1.0370557146599567e-01 0.0000000000000000e+00  2.1963042145017264e-01 1.1125970022357451e-01 0.0000000000000000e+00  2.2171904293863370e-01 1.1669312911135381e-01 0.0000000000000000e+00  2.1959449302921821e-01 1.2435026215787086e-01 0.0000000000000000e+00  2.2166123188876372e-01 1.2968916951307721e-01 0.0000000000000000e+00  2.1955456197547027e-01 1.3744101591914376e-01 0.0000000000000000e+00  2.2159730316614290e-01 1.4269445123335581e-01 0.0000000000000000e+00  2.1951054658236471e-01 1.5053243489833279e-01 0.0000000000000000e+00  2.2152714485990166e-01 1.5571048578520322e-01 0.0000000000000000e+00  2.1946240680301096e-01 1.6362480553650743e-01 0.0000000000000000e+00  2.2145080900453309e-01 1.6873772893326219e-01 0.0000000000000000e+00  2.1941022301489030e-01 1.7671761740708181e-01 0.0000000000000000e+00  2.2136826932567805e-01 1.8177707756221115e-01 0.0000000000000000e+00  2.1935385716341732e-01 1.8981175608864123e-01 0.0000000000000000e+00  2.2127936234972606e-01 1.9483030324201295e-01 0.0000000000000000e+00  2.1929328687173219e-01 2.0290737658237684e-01 0.0000000000000000e+00  2.2118418146571328e-01 2.0789748691285770e-01 0.0000000000000000e+00  2.1922860806594585e-01 2.1600388681221233e-01 0.0000000000000000e+00  2.2108262172970233e-01 2.2098000037675994e-01 0.0000000000000000e+00  2.1915959206443150e-01 2.2910282441387020e-01 0.0000000000000000e+00  2.2097448307049797e-01 2.3407979067147722e-01 0.0000000000000000e+00  2.1908629562527568e-01 2.4220383074913110e-01 0.0000000000000000e+00  2.2085991748293518e-01 2.4719644540171373e-01 0.0000000000000000e+00  2.1900877721296150e-01 2.5530658014826474e-01 0.0000000000000000e+00  2.2073865201440074e-01 2.6033238505399686e-01 0.0000000000000000e+00  2.1892670998967081e-01 2.6841331319632905e-01 0.0000000000000000e+00  2.2061053492190946e-01 2.7348916894103903e-01 0.0000000000000000e+00  2.1884032104502577e-01 2.8152257006060200e-01 0.0000000000000000e+00  2.2047574084010685e-01 2.8666614625837172e-01 0.0000000000000000e+00  2.1874949083586412e-01 2.9463522635258776e-01 0.0000000000000000e+00  2.2033375276805306e-01 2.9986729064807061e-01 0.0000000000000000e+00  2.1865389517517592e-01 3.0775353625139040e-01 0.0000000000000000e+00  2.2018466089703581e-01 3.1309248338047480e-01 0.0000000000000000e+00  2.1855395176221773e-01 3.2087480452224576e-01 0.0000000000000000e+00  2.2002847852443316e-01 3.2634208762652495e-01 0.0000000000000000e+00  2.1844914711904045e-01 3.3400255891792269e-01 0.0000000000000000e+00  2.1986455240161693e-01 3.3962091059081467e-01 0.0000000000000000e+00  2.1833945159559634e-01 3.4713711581304380e-01 0.0000000000000000e+00  2.1969340421715419e-01 3.5292587337371345e-01 0.0000000000000000e+00  2.1822518406241159e-01 3.6027648321893418e-01 0.0000000000000000e+00  2.1951453525168124e-01 3.6626070401421296e-01 0.0000000000000000e+00  2.1810539804070084e-01 3.7342712477735307e-01 0.0000000000000000e+00  2.1932768145158105e-01 3.7962753114531783e-01 0.0000000000000000e+00  2.1798068615513952e-01 3.8658522596595896e-01 0.0000000000000000e+00  2.1913355445319913e-01 3.9302193748287695e-01 0.0000000000000000e+00  2.1785054595648110e-01 3.9975431461319844e-01 0.0000000000000000e+00  2.1893102091455172e-01 4.0645185865033151e-01 0.0000000000000000e+00  2.1771424444925838e-01 4.1293945318082370e-01 0.0000000000000000e+00  2.1872094406491696e-01 4.1991182732573473e-01 0.0000000000000000e+00  2.1757267035070166e-01 4.2613485494510683e-01 0.0000000000000000e+00  2.1850316458789415e-01 4.3340322487105065e-01 0.0000000000000000e+00  2.1742406399621755e-01 4.3935248087764134e-01 0.0000000000000000e+00  2.1827686074545127e-01 4.4693185848457895e-01 0.0000000000000000e+00  2.1726912370066181e-01 4.5258782326774949e-01 0.0000000000000000e+00  2.1804368584893816e-01 4.6048691395939700e-01 0.0000000000000000e+00  2.1710743448140152e-01 4.6584386360561575e-01 0.0000000000000000e+00  2.1780173905665945e-01 4.7408140671583360e-01 0.0000000000000000e+00  2.1693741900604199e-01 4.7913138186938592e-01 0.0000000000000000e+00  2.1755232552359266e-01 4.8770680407666672e-01 0.0000000000000000e+00  2.1676094671560850e-01 4.9243804136131741e-01 0.0000000000000000e+00  2.1729532512793348e-01 5.0136413843720817e-01 0.0000000000000000e+00  2.1657507787753522e-01 5.0578382132393707e-01 0.0000000000000000e+00  2.1702905274718784e-01 5.1506493688652122e-01 0.0000000000000000e+00  2.1638137691731779e-01 5.1915841568773480e-01 0.0000000000000000e+00  2.1675636972970519e-01 5.2879017039015319e-01 0.0000000000000000e+00  2.1617915910697721e-01 5.3256666285771515e-01 0.0000000000000000e+00  2.1647342264089053e-01 5.4256596225259057e-01 0.0000000000000000e+00  2.1596622603359786e-01 5.4602356355925230e-01 0.0000000000000000e+00  2.1618308849467427e-01 5.5637315696292122e-01 0.0000000000000000e+00  2.1574622458462270e-01 5.5950476751281319e-01 0.0000000000000000e+00  2.1588379717064890e-01 5.7022254554685814e-01 0.0000000000000000e+00  2.1551335779265499e-01 5.7304956388815909e-01 0.0000000000000000e+00  2.1557362585801401e-01 5.8412727221735550e-01 0.0000000000000000e+00  2.1527278453906290e-01 5.8662335868502447e-01 0.0000000000000000e+00  2.1525716368077780e-01 5.9805661636143448e-01 0.0000000000000000e+00  2.1502015837140476e-01 6.0025574859086739e-01 0.0000000000000000e+00  2.1492596030130842e-01 6.1206773712677087e-01 0.0000000000000000e+00  2.1475563745663273e-01 6.1394589288685875e-01 0.0000000000000000e+00  2.1458960878296696e-01 6.2609606815060848e-01 0.0000000000000000e+00  2.1448293734373755e-01 6.2766897765078355e-01 0.0000000000000000e+00  2.1423741410950745e-01 6.4021398953040853e-01 0.0000000000000000e+00  2.1419166932857903e-01 6.4149555868903385e-01 0.0000000000000000e+00  2.1387692889869975e-01 6.5437059282720411e-01 0.0000000000000000e+00  2.1389682499219503e-01 6.5532444398116607e-01 0.0000000000000000e+00  2.1350425295487307e-01 6.6859244700998333e-01 0.0000000000000000e+00  2.1357720220025295e-01 6.6929961873600530e-01 0.0000000000000000e+00  2.1311489294616157e-01 6.8291007714080454e-01 0.0000000000000000e+00  2.1325591635506216e-01 6.8326458253482814e-01 0.0000000000000000e+00  2.1272163998261986e-01 6.9723712542322303e-01 0.0000000000000000e+00  2.1290728119320515e-01 6.9739403346957651e-01 0.0000000000000000e+00  2.1229905875750898e-01 7.1174614625321808e-01 0.0000000000000000e+00  2.1255331050074397e-01 7.1153861285658337e-01 0.0000000000000000e+00  2.1188385897136275e-01 7.2618844549920503e-01 0.0000000000000000e+00  2.1217520271964263e-01 7.2582656262401635e-01 0.0000000000000000e+00  2.1142434655573983e-01 7.4091523957347671e-01 0.0000000000000000e+00  2.1178090867473190e-01 7.4020393149968433e-01 0.0000000000000000e+00  2.1098461160163720e-01 7.5549129755266820e-01 0.0000000000000000e+00  2.1137235121904929e-01 7.5465809251943816e-01 0.0000000000000000e+00  2.1048464041647769e-01 7.7046125145855660e-01 0.0000000000000000e+00  2.1092908578559572e-01 7.6932868619062067e-01 0.0000000000000000e+00  2.1001735428289942e-01 7.8519256939958404e-01 0.0000000000000000e+00  2.1048827244558627e-01 7.8396260212994928e-01 0.0000000000000000e+00  2.0947264551291994e-01 8.0043632108783813e-01 0.0000000000000000e+00  2.0998653656430968e-01 7.9899330715999184e-01 0.0000000000000000e+00  2.0897594848588485e-01 8.1533650720281170e-01 0.0000000000000000e+00  2.0951097171228625e-01 8.1382556878007162e-01 0.0000000000000000e+00  2.0838028181273971e-01 8.3089813857411232e-01 0.0000000000000000e+00  2.0894085832243989e-01 8.2928685299980576e-01 0.0000000000000000e+00  2.0785627822023334e-01 8.4595365911654496e-01 0.0000000000000000e+00  2.0842766831971810e-01 8.4433898630163862e-01 0.0000000000000000e+00  2.0720025372720741e-01 8.6189951425184297e-01 0.0000000000000000e+00  2.0778104006038464e-01 8.6028994585614649e-01 0.0000000000000000e+00  2.0665996196244438e-01 8.7703557423316469e-01 0.0000000000000000e+00  2.0722662475067335e-01 8.7558873725641029e-01 0.0000000000000000e+00  2.0593040428084797e-01 8.9345890843836417e-01 0.0000000000000000e+00  2.0650422284454500e-01 8.9202789556632178e-01 0.0000000000000000e+00  2.0540156364261941e-01 9.0848504770919347e-01 0.0000000000000000e+00  2.0590092187606163e-01 9.0762843465760779e-01 0.0000000000000000e+00  2.0458419662789515e-01 9.2548813021205800e-01 0.0000000000000000e+00  2.0513002064390676e-01 9.2437084822319537e-01 0.0000000000000000e+00  2.0411836811697340e-01 9.4004755730271072e-01 0.0000000000000000e+00  2.0445375372549507e-01 9.4044262809992396e-01 0.0000000000000000e+00  2.0321212143454964e-01 9.5764263393164584e-01 0.0000000000000000e+00  2.0372083177599651e-01 9.5689068263539445e-01 0.0000000000000000e+00  2.0286969154904844e-01 9.7131393717002168e-01 0.0000000000000000e+00  2.0290251245939558e-01 9.7391793754225520e-01 0.0000000000000000e+00  2.0193773714085969e-01 9.8906653598036398e-01 0.0000000000000000e+00  2.0238052163472245e-01 9.8886628922057518e-01 0.0000000000000000e+00  2.0169221475959020e-01 1.0020295486050208e+00 0.0000000000000000e+00  2.0130134845946102e-01 1.0076847212978721e+00 0.0000000000000000e+00  2.0099479146042720e-01 1.0181245542563555e+00 0.0000000000000000e+00  2.0113889395642334e-01 1.0200894061918007e+00 0.0000000000000000e+00  2.0053854272793264e-01 1.0325246105630528e+00 0.0000000000000000e+00  1.9988312259087601e-01 1.0401215805634636e+00 0.0000000000000000e+00  2.0059649372338023e-01 1.0433071559068574e+00 0.0000000000000000e+00  1.9966885129823214e-01 1.0528543620651274e+00 0.0000000000000000e+00  1.9958428458507488e-01 1.0615702442289743e+00 0.0000000000000000e+00  1.9913376596979426e-01 1.0678144013495174e+00 0.0000000000000000e+00  2.0020143512920233e-01 1.0683996386282841e+00 0.0000000000000000e+00  1.9776064666982998e-01 1.0886401735476783e+00 0.0000000000000000e+00  1.9989868161967234e-01 1.0816590849605461e+00 0.0000000000000000e+00  1.9824793474391936e-01 1.0963979414656237e+00 0.0000000000000000e+00  1.9902093201920520e-01 1.0989483067691370e+00 0.0000000000000000e+00  1.9737951178398758e-01 1.1136587282067649e+00 0.0000000000000000e+00  2.0032447695265951e-01 1.1008903461941424e+00 0.0000000000000000e+00  1.9561855309403020e-01 1.1371840718948856e+00 0.0000000000000000e+00  2.0042016729141146e-01 1.1113013225644153e+00 0.0000000000000000e+00  1.9638814356890841e-01 1.1429083281144479e+00 0.0000000000000000e+00  1.9875465919982976e-01 1.1341037003599275e+00 0.0000000000000000e+00  1.9694876755624233e-01 1.1500728242846849e+00 0.0000000000000000e+00  1.9927083060974765e-01 1.1415379802126713e+00 0.0000000000000000e+00  1.9467102926038846e-01 1.1772179794326261e+00 0.0000000000000000e+00  2.0162349076936412e-01 1.1359998290625819e+00 0.0000000000000000e+00  1.9248637393297743e-01 1.2037087053567910e+00 0.0000000000000000e+00  2.0195098491512514e-01 1.1447187863690744e+00 0.0000000000000000e+00  1.9366371435220897e-01 1.2065058932984372e+00 0.0000000000000000e+00  1.9892588879661591e-01 1.1770867377286167e+00 0.0000000000000000e+00  1.9758055126304488e-01 1.1899520578839315e+00 0.0000000000000000e+00  1.9428689156544726e-01 1.2208223817976935e+00 0.0000000000000000e+00  2.0172734261948902e-01 1.1717168297277258e+00 0.0000000000000000e+00  1.9019215583992002e-01 1.2607476485431686e+00 0.0000000000000000e+00  2.0457094036180615e-01 1.1626351953546281e+00 0.0000000000000000e+00  1.8759377283452142e-01 1.2901501504549744e+00 0.0000000000000000e+00  2.0595518577862132e-01 1.1638473566575618e+00 0.0000000000000000e+00  1.8638566485325270e-01 1.3097344678336034e+00 0.0000000000000000e+00  2.0628668900591945e-01 1.1724949638912521e+00 0.0000000000000000e+00  1.8613374147648226e-01 1.3225389284469813e+00 0.0000000000000000e+00  2.0597171117038102e-01 1.1856987775070849e+00 0.0000000000000000e+00  1.8646668202663433e-01 1.3311847297493922e+00 0.0000000000000000e+00  2.0528550632264936e-01 1.2015066316349907e+00 0.0000000000000000e+00  1.8713215202762343e-01 1.3374514944599951e+00 0.0000000000000000e+00  2.0440519036596821e-01 1.2186792568868885e+00 0.0000000000000000e+00  1.8796003014368920e-01 1.3425311385246492e+00 0.0000000000000000e+00  2.0344880045123875e-01 1.2363889685319820e+00 0.0000000000000000e+00  1.8883530504531762e-01 1.3472579463918244e+00 0.0000000000000000e+00  2.0249374899461231e-01 1.2540519411791575e+00 0.0000000000000000e+00  1.8968347174039635e-01 1.3522070827708039e+00 0.0000000000000000e+00  2.0159096896391143e-01 1.2712919738479707e+00 0.0000000000000000e+00  1.9045439913880774e-01 1.3576958601222238e+00 0.0000000000000000e+00  2.0077773554450737e-01 1.2879500889400444e+00 0.0000000000000000e+00  1.9111548810330456e-01 1.3638310537243850e+00 0.0000000000000000e+00  2.0007139289627529e-01 1.3039675074248849e+00 0.0000000000000000e+00  1.9166633160030053e-01 1.3707034716817701e+00 0.0000000000000000e+00  1.9945387783550950e-01 1.3192074145246713e+00 0.0000000000000000e+00  1.9213616541032585e-01 1.3784545034194922e+00 0.0000000000000000e+00  1.9890270303387014e-01 1.3336116574288075e+00 0.0000000000000000e+00  1.9252454172990421e-01 1.3869259014738631e+00 0.0000000000000000e+00  1.9845258188112411e-01 1.3475862979221176e+00 0.0000000000000000e+00  1.9277783039281626e-01 1.3955447859942656e+00 0.0000000000000000e+00  1.9814192776122386e-01 1.3615845762537244e+00 0.0000000000000000e+00  1.9292279193273654e-01 1.4043034638816461e+00 0.0000000000000000e+00  1.9785189431902592e-01 1.3749387933812753e+00 0.0000000000000000e+00  1.9315054236133974e-01 1.4143768453982362e+00 0.0000000000000000e+00  1.9740812043893266e-01 1.3865645898377579e+00 0.0000000000000000e+00  1.9349199426168770e-01 1.4258364522022484e+00 0.0000000000000000e+00  1.9702495177269305e-01 1.3981074048918258e+00 0.0000000000000000e+00  1.9350292969130220e-01 1.4354204875303695e+00 0.0000000000000000e+00  1.9718952487867930e-01 1.4131320412157726e+00 0.0000000000000000e+00  1.9297993267980670e-01 1.4415847866034524e+00 0.0000000000000000e+00  1.9750390762421555e-01 1.4288951576657805e+00 0.0000000000000000e+00  1.9300137572364939e-01 1.4519045128150470e+00 0.0000000000000000e+00  1.9655777846882402e-01 1.4354606632324083e+00 0.0000000000000000e+00  1.9452348490615948e-01 1.4731163716598639e+00 0.0000000000000000e+00  1.9476979439603906e-01 1.4357503335439947e+00 0.0000000000000000e+00  1.9523611562494886e-01 1.4888402215037504e+00 0.0000000000000000e+00  1.9584636151086970e-01 1.4562747615407141e+00 0.0000000000000000e+00  1.9173141033708457e-01 1.4749307605840132e+00 0.0000000000000000e+00  2.0038522782173077e-01 1.5010099128730521e+00 0.0000000000000000e+00  1.8821062399962876e-01 1.4607247517404975e+00 0.0000000000000000e+00  1.9939253945175744e-01 1.5068749298486268e+00 0.0000000000000000e+00  1.9509684952255787e-01 1.5215741685557791e+00 0.0000000000000000e+00  1.8692600592883593e-01 1.4301294836417953e+00 0.0000000000000000e+00  2.0716159298675202e-01 1.6168334258048245e+00 0.0000000000000000e+00  1.8201301413811680e-01 1.4069671828190140e+00 0.0000000000000000e+00  1.9551760282820785e-01 1.5518847231270576e+00 0.0000000000000000e+00  2.0914809527609363e-01 1.6138684409057762e+00 0.0000000000000000e+00  1.5605126003484054e-01 1.2793064095378843e+00 0.0000000000000000e+00  2.3527573733556961e-01 1.7560619575206620e+00 0.0000000000000000e+00  1.0749403078376452e-01 1.1308828983540202e+00 0.0000000000000000e+00  1.9727995286539509e-02 -1.3346377654358919e+00 0.0000000000000000e+00  3.0862167491227360e-02 -5.1714789767218061e-01 0.0000000000000000e+00  3.0799341902563948e-02 -7.7056999999388853e-01 0.0000000000000000e+00  2.8569895246819375e-02 -6.8179827481564326e-01 0.0000000000000000e+00  3.1123605316192678e-02 -7.0749652929767826e-01 0.0000000000000000e+00  2.8493658986091831e-02 -6.9122722594927577e-01 0.0000000000000000e+00  3.1209778186424498e-02 -6.9347890977468596e-01 0.0000000000000000e+00  2.8382517084723714e-02 -6.8474063773704930e-01 0.0000000000000000e+00  3.1332948190700836e-02 -6.8400889894090511e-01 0.0000000000000000e+00  2.8251434038840607e-02 -6.7704374890870667e-01 0.0000000000000000e+00  3.1470693484236277e-02 -6.7474598224815718e-01 0.0000000000000000e+00  2.8105234138969742e-02 -6.6937745192714582e-01 0.0000000000000000e+00  3.1623020596165119e-02 -6.6544730992119683e-01 0.0000000000000000e+00  2.7946635526362628e-02 -6.6167151920385814e-01 0.0000000000000000e+00  3.1786454890448221e-02 -6.5623208327359173e-01 0.0000000000000000e+00  2.7774721368511550e-02 -6.5389277933581058e-01 0.0000000000000000e+00  3.1964100719748985e-02 -6.4708395848249201e-01 0.0000000000000000e+00  2.7592308883191093e-02 -6.4595097691817394e-01 0.0000000000000000e+00  3.2145395407653966e-02 -6.3822895687495085e-01 0.0000000000000000e+00  2.7405883735093093e-02 -6.3768226508402115e-01 0.0000000000000000e+00  3.2336313796134601e-02 -6.2960508898555834e-01 0.0000000000000000e+00  2.7203831845650887e-02 -6.2924625271171741e-01 0.0000000000000000e+00  3.2536264050409561e-02 -6.2127613017490235e-01 0.0000000000000000e+00  2.7004346050635307e-02 -6.2024453316525729e-01 0.0000000000000000e+00  3.2728823551123672e-02 -6.1359326184021878e-01 0.0000000000000000e+00  2.6791849886503426e-02 -6.1090051448494476e-01 0.0000000000000000e+00  3.2950791796930667e-02 -6.0596327534077454e-01 0.0000000000000000e+00  2.6549786322751453e-02 -6.0145714169018460e-01 0.0000000000000000e+00  3.3172881311665237e-02 -5.9896800082078472e-01 0.0000000000000000e+00  2.6331652816523828e-02 -5.9086947858320338e-01 0.0000000000000000e+00  3.3378670537256440e-02 -5.9295176492576140e-01 0.0000000000000000e+00  2.6067876289129748e-02 -5.8039024296703501e-01 0.0000000000000000e+00  3.3670632668071097e-02 -5.8613541281944914e-01 0.0000000000000000e+00  2.5718477818046755e-02 -5.7073787554521294e-01 0.0000000000000000e+00  3.3960613686007543e-02 -5.8010121445617013e-01 0.0000000000000000e+00  2.5460825684894398e-02 -5.5861193828631206e-01 0.0000000000000000e+00  3.4114817350898705e-02 -5.7720684451976245e-01 0.0000000000000000e+00  2.5227015963297409e-02 -5.4530486061282024e-01 0.0000000000000000e+00  3.4442622575338172e-02 -5.7193101162392546e-01 0.0000000000000000e+00  2.4555180616308445e-02 -5.3947949516299232e-01 0.0000000000000000e+00  3.5356258790942154e-02 -5.5692706412671389e-01 0.0000000000000000e+00  2.3329070378740779e-02 -5.4344329829948812e-01 0.0000000000000000e+00  3.6686005432067598e-02 -5.3511988739888672e-01 0.0000000000000000e+00  2.2215367741267728e-02 -5.4475049741826398e-01 0.0000000000000000e+00  3.7751133571502178e-02 -5.1834235645232873e-01 0.0000000000000000e+00  2.1747636045875103e-02 -5.3328188299128931e-01 0.0000000000000000e+00  3.8233853573216077e-02 -5.1199126221883418e-01 0.0000000000000000e+00  2.1662946677503753e-02 -5.1422220489735160e-01 0.0000000000000000e+00  3.8404042363054641e-02 -5.1116