<?xml version="1.0"?>
<VTKFile type="UnstructuredGrid"  version="0.1"  >
<UnstructuredGrid>
<Piece  NumberOfPoints="801" NumberOfCells="800">
<Points>
<DataArray  type="Float64"  NumberOfComponents="3"  format="ascii">-5 0 0  -4.9875 0 0  -4.975 0 0  -4.9625 0 0  -4.95 0 0  -4.9375 0 0  -4.925 0 0  -4.9125 0 0  -4.9 0 0  -4.8875 0 0  -4.875 0 0  -4.8625 0 0  -4.85 0 0  -4.8375 0 0  -4.825 0 0  -4.8125 0 0  -4.8 0 0  -4.7875 0 0  -4.775 0 0  -4.7625 0 0  -4.75 0 0  -4.7375 0 0  -4.725 0 0  -4.7125 0 0  -4.7 0 0  -4.6875 0 0  -4.675 0 0  -4.6625 0 0  -4.65 0 0  -4.6375 0 0  -4.625 0 0  -4.6125 0 0  -4.6 0 0  -4.5875 0 0  -4.575 0 0  -4.5625 0 0  -4.55 0 0  -4.5375 0 0  -4.525 0 0  -4.5125 0 0  -4.5 0 0  -4.4875 0 0  -4.475 0 0  -4.4625 0 0  -4.45 0 0  -4.4375 0 0  -4.425 0 0  -4.4125 0 0  -4.4 0 0  -4.3875 0 0  -4.375 0 0  -4.3625 0 0  -4.35 0 0  -4.3375 0 0  -4.325 0 0  -4.3125 0 0  -4.3 0 0  -4.2875 0 0  -4.275 0 0  -4.2625 0 0  -4.25 0 0  -4.2375 0 0  -4.225 0 0  -4.2125 0 0  -4.2 0 0  -4.1875 0 0  -4.175 0 0  -4.1625 0 0  -4.15 0 0  -4.1375 0 0  -4.125 0 0  -4.1125 0 0  -4.1 0 0  -4.0875 0 0  -4.075 0 0  -4.0625 0 0  -4.05 0 0  -4.0375 0 0  -4.025 0 0  -4.0125 0 0  -4 0 0  -3.9875 0 0  -3.975 0 0  -3.9625 0 0  -3.95 0 0  -3.9375 0 0  -3.925 0 0  -3.9125 0 0  -3.9 0 0  -3.8875 0 0  -3.875 0 0  -3.8625 0 0  -3.85 0 0  -3.8375 0 0  -3.825 0 0  -3.8125 0 0  -3.8 0 0  -3.7875 0 0  -3.775 0 0  -3.7625 0 0  -3.75 0 0  -3.7375 0 0  -3.725 0 0  -3.7125 0 0  -3.7 0 0  -3.6875 0 0  -3.675 0 0  -3.6625 0 0  -3.65 0 0  -3.6375 0 0  -3.625 0 0  -3.6125 0 0  -3.6 0 0  -3.5875 0 0  -3.575 0 0  -3.5625 0 0  -3.55 0 0  -3.5375 0 0  -3.525 0 0  -3.5125 0 0  -3.5 0 0  -3.4875 0 0  -3.475 0 0  -3.4625 0 0  -3.45 0 0  -3.4375 0 0  -3.425 0 0  -3.4125 0 0  -3.4 0 0  -3.3875 0 0  -3.375 0 0  -3.3625 0 0  -3.35 0 0  -3.3375 0 0  -3.325 0 0  -3.3125 0 0  -3.3 0 0  -3.2875 0 0  -3.275 0 0  -3.2625 0 0  -3.25 0 0  -3.2375 0 0  -3.225 0 0  -3.2125 0 0  -3.2 0 0  -3.1875 0 0  -3.175 0 0  -3.1625 0 0  -3.15 0 0  -3.1375 0 0  -3.125 0 0  -3.1125 0 0  -3.1 0 0  -3.0875 0 0  -3.075 0 0  -3.0625 0 0  -3.05 0 0  -3.0375 0 0  -3.025 0 0  -3.0125 0 0  -3 0 0  -2.9875 0 0  -2.975 0 0  -2.9625 0 0  -2.95 0 0  -2.9375 0 0  -2.925 0 0  -2.9125 0 0  -2.9 0 0  -2.8875 0 0  -2.875 0 0  -2.8625 0 0  -2.85 0 0  -2.8375 0 0  -2.825 0 0  -2.8125 0 0  -2.8 0 0  -2.7875 0 0  -2.775 0 0  -2.7625 0 0  -2.75 0 0  -2.7375 0 0  -2.725 0 0  -2.7125 0 0  -2.7 0 0  -2.6875 0 0  -2.675 0 0  -2.6625 0 0  -2.65 0 0  -2.6375 0 0  -2.625 0 0  -2.6125 0 0  -2.6 0 0  -2.5875 0 0  -2.575 0 0  -2.5625 0 0  -2.55 0 0  -2.5375 0 0  -2.525 0 0  -2.5125 0 0  -2.5 0 0  -2.4875 0 0  -2.475 0 0  -2.4625 0 0  -2.45 0 0  -2.4375 0 0  -2.425 0 0  -2.4125 0 0  -2.4 0 0  -2.3875 0 0  -2.375 0 0  -2.3625 0 0  -2.35 0 0  -2.3375 0 0  -2.325 0 0  -2.3125 0 0  -2.3 0 0  -2.2875 0 0  -2.275 0 0  -2.2625 0 0  -2.25 0 0  -2.2375 0 0  -2.225 0 0  -2.2125 0 0  -2.2 0 0  -2.1875 0 0  -2.175 0 0  -2.1625 0 0  -2.15 0 0  -2.1375 0 0  -2.125 0 0  -2.1125 0 0  -2.1 0 0  -2.0875 0 0  -2.075 0 0  -2.0625 0 0  -2.05 0 0  -2.0375 0 0  -2.025 0 0  -2.0125 0 0  -2 0 0  -1.9875 0 0  -1.975 0 0  -1.9625 0 0  -1.95 0 0  -1.9375 0 0  -1.925 0 0  -1.9125 0 0  -1.9 0 0  -1.8875 0 0  -1.875 0 0  -1.8625 0 0  -1.85 0 0  -1.8375 0 0  -1.825 0 0  -1.8125 0 0  -1.8 0 0  -1.7875 0 0  -1.775 0 0  -1.7625 0 0  -1.75 0 0  -1.7375 0 0  -1.725 0 0  -1.7125 0 0  -1.7 0 0  -1.6875 0 0  -1.675 0 0  -1.6625 0 0  -1.65 0 0  -1.6375 0 0  -1.625 0 0  -1.6125 0 0  -1.6 0 0  -1.5875 0 0  -1.575 0 0  -1.5625 0 0  -1.55 0 0  -1.5375 0 0  -1.525 0 0  -1.5125 0 0  -1.5 0 0  -1.4875 0 0  -1.475 0 0  -1.4625 0 0  -1.45 0 0  -1.4375 0 0  -1.425 0 0  -1.4125 0 0  -1.4 0 0  -1.3875 0 0  -1.375 0 0  -1.3625 0 0  -1.35 0 0  -1.3375 0 0  -1.325 0 0  -1.3125 0 0  -1.3 0 0  -1.2875 0 0  -1.275 0 0  -1.2625 0 0  -1.25 0 0  -1.2375 0 0  -1.225 0 0  -1.2125 0 0  -1.2 0 0  -1.1875 0 0  -1.175 0 0  -1.1625 0 0  -1.15 0 0  -1.1375 0 0  -1.125 0 0  -1.1125 0 0  -1.1 0 0  -1.0875 0 0  -1.075 0 0  -1.0625 0 0  -1.05 0 0  -1.0375 0 0  -1.025 0 0  -1.0125 0 0  -1 0 0  -0.9874999999999998 0 0  -0.9749999999999996 0 0  -0.9625000000000004 0 0  -0.9500000000000002 0 0  -0.9375 0 0  -0.9249999999999998 0 0  -0.9124999999999996 0 0  -0.9000000000000004 0 0  -0.8875000000000002 0 0  -0.875 0 0  -0.8624999999999998 0 0  -0.8499999999999996 0 0  -0.8375000000000004 0 0  -0.8250000000000002 0 0  -0.8125 0 0  -0.7999999999999998 0 0  -0.7874999999999996 0 0  -0.7750000000000004 0 0  -0.7625000000000002 0 0  -0.75 0 0  -0.7374999999999998 0 0  -0.7249999999999996 0 0  -0.7125000000000004 0 0  -0.7000000000000002 0 0  -0.6875 0 0  -0.6749999999999998 0 0  -0.6624999999999996 0 0  -0.6500000000000004 0 0  -0.6375000000000002 0 0  -0.625 0 0  -0.6124999999999998 0 0  -0.5999999999999996 0 0  -0.5875000000000004 0 0  -0.5750000000000002 0 0  -0.5625 0 0  -0.5499999999999998 0 0  -0.5374999999999996 0 0  -0.5250000000000004 0 0  -0.5125000000000002 0 0  -0.5 0 0  -0.4874999999999998 0 0  -0.4749999999999996 0 0  -0.4625000000000004 0 0  -0.4500000000000002 0 0  -0.4375 0 0  -0.4249999999999998 0 0  -0.4124999999999996 0 0  -0.4000000000000004 0 0  -0.3875000000000002 0 0  -0.375 0 0  -0.3624999999999998 0 0  -0.3499999999999996 0 0  -0.3375000000000004 0 0  -0.3250000000000002 0 0  -0.3125 0 0  -0.2999999999999998 0 0  -0.2874999999999996 0 0  -0.2750000000000004 0 0  -0.2625000000000002 0 0  -0.25 0 0  -0.2374999999999998 0 0  -0.2249999999999996 0 0  -0.2125000000000004 0 0  -0.2000000000000002 0 0  -0.1875 0 0  -0.1749999999999998 0 0  -0.1624999999999996 0 0  -0.1500000000000004 0 0  -0.1375000000000002 0 0  -0.125 0 0  -0.1124999999999998 0 0  -0.09999999999999964 0 0  -0.08750000000000036 0 0  -0.07500000000000018 0 0  -0.0625 0 0  -0.04999999999999982 0 0  -0.03749999999999964 0 0  -0.02500000000000036 0 0  -0.01250000000000018 0 0  0 0 0  0.01250000000000018 0 0  0.02500000000000036 0 0  0.03749999999999964 0 0  0.04999999999999982 0 0  0.0625 0 0  0.07500000000000018 0 0  0.08750000000000036 0 0  0.09999999999999964 0 0  0.1124999999999998 0 0  0.125 0 0  0.1375000000000002 0 0  0.1500000000000004 0 0  0.1624999999999996 0 0  0.1749999999999998 0 0  0.1875 0 0  0.2000000000000002 0 0  0.2125000000000004 0 0  0.2249999999999996 0 0  0.2374999999999998 0 0  0.25 0 0  0.2625000000000002 0 0  0.2750000000000004 0 0  0.2874999999999996 0 0  0.2999999999999998 0 0  0.3125 0 0  0.3250000000000002 0 0  0.3375000000000004 0 0  0.3499999999999996 0 0  0.3624999999999998 0 0  0.375 0 0  0.3875000000000002 0 0  0.4000000000000004 0 0  0.4124999999999996 0 0  0.4249999999999998 0 0  0.4375 0 0  0.4500000000000002 0 0  0.4625000000000004 0 0  0.4749999999999996 0 0  0.4874999999999998 0 0  0.5 0 0  0.5125000000000002 0 0  0.5250000000000004 0 0  0.5374999999999996 0 0  0.5499999999999998 0 0  0.5625 0 0  0.5750000000000002 0 0  0.5875000000000004 0 0  0.5999999999999996 0 0  0.6124999999999998 0 0  0.625 0 0  0.6375000000000002 0 0  0.6500000000000004 0 0  0.6624999999999996 0 0  0.6749999999999998 0 0  0.6875 0 0  0.7000000000000002 0 0  0.7125000000000004 0 0  0.7249999999999996 0 0  0.7374999999999998 0 0  0.75 0 0  0.7625000000000002 0 0  0.7750000000000004 0 0  0.7874999999999996 0 0  0.7999999999999998 0 0  0.8125 0 0  0.8250000000000002 0 0  0.8375000000000004 0 0  0.8499999999999996 0 0  0.8624999999999998 0 0  0.875 0 0  0.8875000000000002 0 0  0.9000000000000004 0 0  0.9124999999999996 0 0  0.9249999999999998 0 0  0.9375 0 0  0.9500000000000002 0 0  0.9625000000000004 0 0  0.9749999999999996 0 0  0.9874999999999998 0 0  1 0 0  1.0125 0 0  1.025 0 0  1.0375 0 0  1.05 0 0  1.0625 0 0  1.075 0 0  1.0875 0 0  1.1 0 0  1.1125 0 0  1.125 0 0  1.1375 0 0  1.15 0 0  1.1625 0 0  1.175 0 0  1.1875 0 0  1.2 0 0  1.2125 0 0  1.225 0 0  1.2375 0 0  1.25 0 0  1.2625 0 0  1.275 0 0  1.2875 0 0  1.3 0 0  1.3125 0 0  1.325 0 0  1.3375 0 0  1.35 0 0  1.3625 0 0  1.375 0 0  1.3875 0 0  1.4 0 0  1.4125 0 0  1.425 0 0  1.4375 0 0  1.45 0 0  1.4625 0 0  1.475 0 0  1.4875 0 0  1.5 0 0  1.5125 0 0  1.525 0 0  1.5375 0 0  1.55 0 0  1.5625 0 0  1.575 0 0  1.5875 0 0  1.6 0 0  1.6125 0 0  1.625 0 0  1.6375 0 0  1.65 0 0  1.6625 0 0  1.675 0 0  1.6875 0 0  1.7 0 0  1.7125 0 0  1.725 0 0  1.7375 0 0  1.75 0 0  1.7625 0 0  1.775 0 0  1.7875 0 0  1.8 0 0  1.8125 0 0  1.825 0 0  1.8375 0 0  1.85 0 0  1.8625 0 0  1.875 0 0  1.8875 0 0  1.9 0 0  1.9125 0 0  1.925 0 0  1.9375 0 0  1.95 0 0  1.9625 0 0  1.975 0 0  1.9875 0 0  2 0 0  2.0125 0 0  2.025 0 0  2.0375 0 0  2.05 0 0  2.0625 0 0  2.075 0 0  2.0875 0 0  2.1 0 0  2.1125 0 0  2.125 0 0  2.1375 0 0  2.15 0 0  2.1625 0 0  2.175 0 0  2.1875 0 0  2.2 0 0  2.2125 0 0  2.225 0 0  2.2375 0 0  2.25 0 0  2.2625 0 0  2.275 0 0  2.2875 0 0  2.3 0 0  2.3125 0 0  2.325 0 0  2.3375 0 0  2.35 0 0  2.3625 0 0  2.375 0 0  2.3875 0 0  2.4 0 0  2.4125 0 0  2.425 0 0  2.4375 0 0  2.45 0 0  2.4625 0 0  2.475 0 0  2.4875 0 0  2.5 0 0  2.5125 0 0  2.525 0 0  2.5375 0 0  2.55 0 0  2.5625 0 0  2.575 0 0  2.5875 0 0  2.6 0 0  2.6125 0 0  2.625 0 0  2.6375 0 0  2.65 0 0  2.6625 0 0  2.675 0 0  2.6875 0 0  2.7 0 0  2.7125 0 0  2.725 0 0  2.7375 0 0  2.75 0 0  2.7625 0 0  2.775 0 0  2.7875 0 0  2.8 0 0  2.8125 0 0  2.825 0 0  2.8375 0 0  2.85 0 0  2.8625 0 0  2.875 0 0  2.8875 0 0  2.9 0 0  2.9125 0 0  2.925 0 0  2.9375 0 0  2.95 0 0  2.9625 0 0  2.975 0 0  2.9875 0 0  3 0 0  3.012499999999999 0 0  3.025 0 0  3.0375 0 0  3.050000000000001 0 0  3.0625 0 0  3.074999999999999 0 0  3.0875 0 0  3.1 0 0  3.112500000000001 0 0  3.125 0 0  3.137499999999999 0 0  3.15 0 0  3.1625 0 0  3.175000000000001 0 0  3.1875 0 0  3.199999999999999 0 0  3.2125 0 0  3.225 0 0  3.237500000000001 0 0  3.25 0 0  3.262499999999999 0 0  3.275 0 0  3.2875 0 0  3.300000000000001 0 0  3.3125 0 0  3.324999999999999 0 0  3.3375 0 0  3.35 0 0  3.362500000000001 0 0  3.375 0 0  3.387499999999999 0 0  3.4 0 0  3.4125 0 0  3.425000000000001 0 0  3.4375 0 0  3.449999999999999 0 0  3.4625 0 0  3.475 0 0  3.4875
[...]
<PointData  Vectors="(h, u)"> 
<DataArray  type="Float64"  Name="(h, u)"  NumberOfComponents="3" format="ascii">3.5046330948790050e-01 0.0000000000000000e+00 0.0000000000000000e+00  3.5055900414119900e-01 9.0392778534363720e-03 0.0000000000000000e+00  3.5045852861063664e-01 1.8084561657144962e-02 0.0000000000000000e+00  3.5054956325985492e-01 2.7118168149247675e-02 0.0000000000000000e+00  3.5044418411754252e-01 3.6169835479167994e-02 0.0000000000000000e+00  3.5053067803210186e-01 4.5198062829277783e-02 0.0000000000000000e+00  3.5042027042330581e-01 5.4256534993625601e-02 0.0000000000000000e+00  3.5050234152561849e-01 6.3279633631396132e-02 0.0000000000000000e+00  3.5038677822264824e-01 7.2345376481417728e-02 0.0000000000000000e+00  3.5046454335337557e-01 8.1363555444896332e-02 0.0000000000000000e+00  3.5034369451012343e-01 9.0437080103031475e-02 0.0000000000000000e+00  3.5041726967709091e-01 9.9450507358157733e-02 0.0000000000000000e+00  3.5029100255572770e-01 1.0853237099735230e-01 0.0000000000000000e+00  3.5036050315357448e-01 1.1754117376720237e-01 0.0000000000000000e+00  3.5022868185804534e-01 1.2663198015568786e-01 0.0000000000000000e+00  3.5029422289972528e-01 1.3563624501139246e-01 0.0000000000000000e+00  3.5015670810211896e-01 1.4473664479047940e-01 0.0000000000000000e+00  3.5021840437523682e-01 1.5373641798588955e-01 0.0000000000000000e+00  3.5007505297205105e-01 1.6284710898281238e-01 0.0000000000000000e+00  3.5013301917595419e-01 1.7184239680024269e-01 0.0000000000000000e+00  3.4998368402398988e-01 1.8096412359490599e-01 0.0000000000000000e+00  3.5003803493612140e-01 1.8995489252156672e-01 0.0000000000000000e+00  3.4988256451404254e-01 1.9908844615959839e-01 0.0000000000000000e+00  3.4993341497835651e-01 2.0807462410538521e-01 0.0000000000000000e+00  3.4977165304542057e-01 2.1722084173930634e-01 0.0000000000000000e+00  3.4981911814104250e-01 2.2620231853500639e-01 0.0000000000000000e+00  3.4965090362834372e-01 2.3536208195336311e-01 0.0000000000000000e+00  3.4969509870063425e-01 2.4433871093354831e-01 0.0000000000000000e+00  3.4952026528558794e-01 2.5351294708688754e-01 0.0000000000000000e+00  3.4956130586304929e-01 2.6248454772474544e-01 0.0000000000000000e+00  3.4937968206982023e-01 2.7167422694631127e-01 0.0000000000000000e+00  3.4941768427348385e-01 2.8064058535529318e-01 0.0000000000000000e+00  3.4922909337449287e-01 2.8984672119134530e-01 0.0000000000000000e+00  3.4926417340774923e-01 2.9880759586583994e-01 0.0000000000000000e+00  3.4906843316516545e-01 3.0803124628843487e-01 0.0000000000000000e+00  3.4910070789093389e-01 3.1698636819216913e-01 0.0000000000000000e+00  3.4889763146709990e-01 3.2622863107792349e-01 0.0000000000000000e+00  3.4892721803316329e-01 3.3517770848701173e-01 0.0000000000000000e+00  3.4871661283842503e-01 3.4443972829251390e-01 0.0000000000000000e+00  3.4874362811744031e-01 3.5338245193221984e-01 0.0000000000000000e+00  3.4852529765086498e-01 3.6266541044721201e-01 0.0000000000000000e+00  3.4854985942605221e-01 3.7160144851857835e-01 0.0000000000000000e+00  3.4832360199004248e-01 3.8090657163371960e-01 0.0000000000000000e+00  3.4834582565708327e-01 3.8983558787802958e-01 0.0000000000000000e+00  3.4811143506793513e-01 3.9916414068147515e-01 0.0000000000000000e+00  3.4813143754182846e-01 4.0808577381756422e-01 0.0000000000000000e+00  3.4788870461320420e-01 4.1743905046930629e-01 0.0000000000000000e+00  3.4790659831428827e-01 4.2635294588226091e-01 0.0000000000000000e+00  3.4765530658196059e-01 4.3573228958081850e-01 0.0000000000000000e+00  3.4767120458616946e-01 4.4463807095135083e-01 0.0000000000000000e+00  3.4741113927289308e-01 4.5404482468987473e-01 0.0000000000000000e+00  3.4742514989062495e-01 4.6294212040735155e-01 0.0000000000000000e+00  3.4715608461607339e-01 4.7237769794660084e-01 0.0000000000000000e+00  3.4716831182814373e-01 4.8126613552498315e-01 0.0000000000000000e+00  3.4689002917211975e-01 4.9073191407952260e-01 0.0000000000000000e+00  3.4690057608882147e-01 4.9961110010583804e-01 0.0000000000000000e+00  3.4661284177010021e-01 5.0910855806750388e-01 0.0000000000000000e+00  3.4662179606769505e-01 5.1797815893482446e-01 0.0000000000000000e+00  3.4632439177682561e-01 5.2750869713487170e-01 0.0000000000000000e+00  3.4633185234381353e-01 5.3636830768711041e-01 0.0000000000000000e+00  3.4602453534709371e-01 5.4593345535297666e-01 0.0000000000000000e+00  3.4603056597709592e-01 5.5478285867393917e-01 0.0000000000000000e+00  3.4571311476247257e-01 5.6438402249378450e-01 0.0000000000000000e+00  3.4571781339740260e-01 5.7322282894211307e-01 0.0000000000000000e+00  3.4538997367132523e-01 5.8286158393525733e-01 0.0000000000000000e+00  3.4539336584340585e-01 5.9168978866343225e-01 0.0000000000000000e+00  3.4505491797346938e-01 6.0136754015422211e-01 0.0000000000000000e+00  3.4505709982641852e-01 6.1018473322900346e-01 0.0000000000000000e+00  3.4470778167845118e-01 6.1990316039686799e-01 0.0000000000000000e+00  3.4470871382511015e-01 6.2870959702773555e-01 0.0000000000000000e+00  3.4434833631636547e-01 6.3847004810813313e-01 0.0000000000000000e+00  3.4434812070747767e-01 6.4726518437756442e-01 0.0000000000000000e+00  3.4397640304422189e-01 6.5706951144705139e-01 0.0000000000000000e+00  3.4397492880058339e-01 6.6585396232171101e-01 0.0000000000000000e+00  3.4359175331016589e-01 6.7570307961499176e-01 0.0000000000000000e+00  3.4358916075340712e-01 6.8447619902670409e-01 0.0000000000000000e+00  3.4319415567376677e-01 6.9437231313694137e-01 0.0000000000000000e+00  3.4319027576360689e-01 7.0313510433092363e-01 0.0000000000000000e+00  3.4278349925995477e-01 7.1307819436688846e-01 0.0000000000000000e+00  3.4277842206930187e-01 7.2183017826070184e-01 0.0000000000000000e+00  3.4235928555773559e-01 7.3182365403456162e-01 0.0000000000000000e+00  3.4235289597972296e-01 7.4056579708607184e-01 0.0000000000000000e+00  3.4192165715377676e-01 7.5060769184311449e-01 0.0000000000000000e+00  3.4191384935749036e-01 7.5934219320560337e-01 0.0000000000000000e+00  3.4146941594310626e-01 7.6943657489983863e-01 0.0000000000000000e+00  3.4146064340601845e-01 7.7816260276714033e-01 0.0000000000000000e+00  3.4100358621007498e-01 7.8830746199879442e-01 0.0000000000000000e+00  3.4099216696690732e-01 7.9702868811102678e-01 0.0000000000000000e+00  3.4052298931453179e-01 8.0723324660113926e-01 0.0000000000000000e+00  3.4050874384289248e-01 8.1593370867712900e-01 0.0000000000000000e+00  3.4002849140608538e-01 8.2620922673962427e-01 0.0000000000000000e+00  3.4000890961886621e-01 8.3489796126040960e-01 0.0000000000000000e+00  3.3951706912738866e-01 8.4522368221029232e-01 0.0000000000000000e+00  3.3949944393709969e-01 8.5392792873100987e-01 0.0000000000000000e+00  3.3898224286079753e-01 8.6426834525588803e-01 0.0000000000000000e+00  3.3897867014793059e-01 8.7304905795876631e-01 0.0000000000000000e+00  3.3843305651841876e-01 8.8334540866264388e-01 0.0000000000000000e+00  3.3843135245782924e-01 8.9219030192157012e-01 0.0000000000000000e+00  3.3788691072271687e-01 9.0262431578492364e-01 0.0000000000000000e+00  3.3783352930667404e-01 9.1116587378671199e-01 0.0000000000000000e+00  3.3736662342146517e-01 9.2220163341489525e-01 0.0000000000000000e+00  3.3718432634081780e-01 9.3009403822995851e-01 0.0000000000000000e+00  3.3681246896731987e-01 9.4168914457468267e-01 0.0000000000000000e+00  3.3662734534207095e-01 9.4966502702081335e-01 0.0000000000000000e+00  3.3601515493788248e-01 9.6014847517675250e-01 0.0000000000000000e+00  3.3635513589103710e-01 9.7084375838009396e-01 0.0000000000000000e+00  3.3492715585102217e-01 9.7716309221065001e-01 0.0000000000000000e+00  3.3611827690892060e-01 9.9260171551464904e-01 0.0000000000000000e+00  3.3420361724779751e-01 9.9615105930609837e-01 0.0000000000000000e+00  3.3483689737161998e-01 1.0088853299689704e+00 0.0000000000000000e+00  3.3514528100028512e-01 1.0246684346313302e+00 0.0000000000000000e+00  3.3147474012186723e-01 1.0136747808565527e+00 0.0000000000000000e+00  3.3765796454604474e-01 1.0619647491873410e+00 0.0000000000000000e+00  3.2824943356560199e-01 1.0197024906447643e+00 0.0000000000000000e+00  3.3650324935888409e-01 1.0792691432417174e+00 0.0000000000000000e+00  3.3312044133868712e-01 1.0710039425670044e+00 0.0000000000000000e+00  3.2245115615074355e-01 1.0268859300060567e+00 0.0000000000000000e+00  3.5195991957380113e-01 1.1939394310049838e+00 0.0000000000000000e+00  2.9668395433234274e-01 9.1519060562394206e-01 0.0000000000000000e+00  3.6238526143729749e-01 1.2399879794376409e+00 0.0000000000000000e+00  2.2932511471851733e-01 6.8462533197229236e-01 0.0000000000000000e+00  5.5003237212012425e-02 -1.6724171743482239e+00 0.0000000000000000e+00  7.5696963234247072e-02 -9.9439014314644270e-01 0.0000000000000000e+00  7.3376052155740945e-02 -1.2790681633754624e+00 0.0000000000000000e+00  7.0331342729279711e-02 -1.1554708054637761e+00 0.0000000000000000e+00  7.2281971839087425e-02 -1.2081272071708229e+00 0.0000000000000000e+00  7.0098036979703154e-02 -1.1860442632059340e+00 0.0000000000000000e+00  7.0750594805431194e-02 -1.1926605314504983e+00 0.0000000000000000e+00  6.9396632284993792e-02 -1.1905302139493941e+00 0.0000000000000000e+00  6.9658171761059068e-02 -1.1890828056213922e+00 0.0000000000000000e+00  6.8432646136292880e-02 -1.1899427436327816e+00 0.0000000000000000e+00  6.8679689151441306e-02 -1.1877789084892894e+00 0.0000000000000000e+00  6.7424372533485391e-02 -1.1887973722528380e+00 0.0000000000000000e+00  6.7701803932578075e-02 -1.1868185702526279e+00 0.0000000000000000e+00  6.6418179765565091e-02 -1.1878571449194342e+00 0.0000000000000000e+00  6.6710366915375269e-02 -1.1859813337853842e+00 0.0000000000000000e+00  6.5413786681642619e-02 -1.1871600972946377e+00 0.0000000000000000e+00  6.5708747736814219e-02 -1.1853096592597672e+00 0.0000000000000000e+00  6.4406775122534746e-02 -1.1866781474054180e+00 0.0000000000000000e+00  6.4699424956879928e-02 -1.1848421412464765e+00 0.0000000000000000e+00  6.3394755803306571e-02 -1.1864058541791764e+00 0.0000000000000000e+00  6.3683066603378413e-02 -1.1845976313287800e+00 0.0000000000000000e+00  6.2376573691008054e-02 -1.1863521134653672e+00 0.0000000000000000e+00  6.2659599068792135e-02 -1.1845874286802363e+00 0.0000000000000000e+00  6.1351497978056613e-02 -1.1865300566995101e+00 0.0000000000000000e+00  6.1628753327480357e-02 -1.1848214749688115e+00 0.0000000000000000e+00  6.0318950873940298e-02 -1.1869531298197167e+00 0.0000000000000000e+00  6.0590243568568049e-02 -1.1853098171519798e+00 0.0000000000000000e+00  5.9278476858979044e-02 -1.1876338263215536e+00 0.0000000000000000e+00  5.9543840729513631e-02 -1.1860623040439582e+00 0.0000000000000000e+00  5.8229787112939635e-02 -1.1885829181730196e+00 0.0000000000000000e+00  5.8489446739702688e-02 -1.1870876089440201e+00 0.0000000000000000e+00  5.7172837437103434e-02 -1.1898084219043839e+00 0.0000000000000000e+00  5.7427202123574370e-02 -1.1883917155826749e+00 0.0000000000000000e+00  5.6107943321000275e-02 -1.1913139877278920e+00 0.0000000000000000e+00  5.6357642297806203e-02 -1.1899756953598297e+00 0.0000000000000000e+00  5.5035948384344696e-02 -1.1930964441433656e+00 0.0000000000000000e+00  5.5281917832442601e-02 -1.1918325017815794e+00 0.0000000000000000e+00  5.3958465462903386e-02 -1.1951421857516531e+00 0.0000000000000000e+00  5.4202094788408914e-02 -1.1939424742060731e+00 0.0000000000000000e+00  5.2878206731430524e-02 -1.1974220939606011e+00 0.0000000000000000e+00  5.3121544801651960e-02 -1.1962673105535337e+00 0.0000000000000000e+00  5.1799405082147532e-02 -1.1998848433196307e+00 0.0000000000000000e+00  5.2045412148384512e-02 -1.1987425624179724e+00 0.0000000000000000e+00  5.0728294168773946e-02 -1.2024489225812722e+00 0.0000000000000000e+00  5.0981097208959582e-02 -1.2012693899973170e+00 0.0000000000000000e+00  4.9673551028949596e-02 -1.2049946428979863e+00 0.0000000000000000e+00  4.9938616814436336e-02 -1.2037075219599878e+00 0.0000000000000000e+00  4.8646509923568317e-02 -1.2073589181388171e+00 0.0000000000000000e+00  4.8930593670036687e-02 -1.2058731321057592e+00 0.0000000000000000e+00  4.7660844521963779e-02 -1.2093375162624114e+00 0.0000000000000000e+00  4.7971537876245959e-02 -1.2075470104973662e+00 0.0000000000000000e+00  4.6731392078967704e-02 -1.2107002760957746e+00 0.0000000000000000e+00  4.7076181142956877e-02 -1.2084974473469869e+00 0.0000000000000000e+00  4.5872057312641087e-02 -1.2112213019672169e+00 0.0000000000000000e+00  4.6257065726078080e-02 -1.2085159639302503e+00 0.0000000000000000e+00  4.5093307385760756e-02 -1.2107175190033856e+00 0.0000000000000000e+00  4.5522195612796801e-02 -1.2074545296370092e+00 0.0000000000000000e+00  4.4400264839148641e-02 -1.2090806113606920e+00 0.0000000000000000e+00  4.4873793489950686e-02 -1.2052481510343305e+00 0.0000000000000000e+00  4.3792271579591750e-02 -1.2062880428656910e+00 0.0000000000000000e+00  4.4308679243135980e-02 -1.2019135246702555e+00 0.0000000000000000e+00  4.3263972749217866e-02 -1.2023906546707235e+00 0.0000000000000000e+00  4.3819860101658212e-02 -1.1975283301187731e+00 0.0000000000000000e+00  4.2807175676199245e-02 -1.1974869129821593e+00 0.0000000000000000e+00  4.3398437439300414e-02 -1.1922039995197911e+00 0.0000000000000000e+00  4.2412627527333560e-02 -1.1916966777517524e+00 0.0000000000000000e+00  4.3035144776831652e-02 -1.1860626067082456e+00 0.0000000000000000e+00  4.2071259646691908e-02 -1.1851419271661841e+00 0.0000000000000000e+00  4.2721293816213722e-02 -1.1792219052217827e+00 0.0000000000000000e+00  4.1774859925125286e-02 -1.1779356760172408e+00 0.0000000000000000e+00  4.2449214691776489e-02 -1.1717877581991341e+00 0.0000000000000000e+00  4.1516327372585343e-02 -1.1701771739666127e+00 0.0000000000000000e+00  4.2212369355233474e-02 -1.1638515559208900e+00 0.0000000000000000e+00  4.1289683235086319e-02 -1.1619509298923956e+00 0.0000000000000000e+00  4.2005292419678625e-02 -1.1554904001554207e+00 0.0000000000000000e+00  4.1089966110438594e-02 -1.1533276769047236e+00 0.0000000000000000e+00  4.1823459769575896e-02 -1.1467685517060942e+00 0.0000000000000000e+00  4.0913086676491447e-02 -1.1443661153726832e+00 0.0000000000000000e+00  4.1663139951478134e-02 -1.1377392837333260e+00 0.0000000000000000e+00  4.0755680610501326e-02 -1.1351148141110086e+00 0.0000000000000000e+00  4.1521254321907557e-02 -1.1284467142816479e+00 0.0000000000000000e+00  4.0614976378187416e-02 -1.1256139824421683e+00 0.0000000000000000e+00  4.1395255836260164e-02 -1.1189274384151113e+00 0.0000000000000000e+00  4.0488683109705798e-02 -1.1158970062349403e+00 0.0000000000000000e+00  4.1283028384376849e-02 -1.1092119076918061e+00 0.0000000000000000e+00  4.0374898418209432e-02 -1.1059917294966088e+00 0.0000000000000000e+00  4.1182805090647645e-02 -1.0993255637763650e+00 0.0000000000000000e+00  4.0272033876742226e-02 -1.0959215015000394e+00 0.0000000000000000e+00  4.1093102786153593e-02 -1.0892897563011645e+00 0.0000000000000000e+00  4.0178755293903759e-02 -1.0857060226003088e+00 0.0000000000000000e+00  4.1012669709417290e-02 -1.0791224810391551e+00 0.0000000000000000e+00  4.0093935043094914e-02 -1.0753620233233716e+00 0.0000000000000000e+00  4.0940443776954168e-02 -1.0688389727354506e+00 0.0000000000000000e+00  4.0016614065796464e-02 -1.0649038079587625e+00 0.0000000000000000e+00  4.0875519190389051e-02 -1.0584521822985804e+00 0.0000000000000000e+00  3.9945971585193363e-02 -1.0543436890885600e+00 0.0000000000000000e+00  4.0817119568779654e-02 -1.0479731629027278e+00 0.0000000000000000e+00  3.9881300962324173e-02 -1.0436923345076545e+00 0.0000000000000000e+00  4.0764576166722064e-02 -1.0374113847709807e+00 0.0000000000000000e+00  3.9821990438208194e-02 -1.0329590439830563e+00 0.0000000000000000e+00  4.0717310081106191e-02 -1.0267749937995714e+00 0.0000000000000000e+00  3.9767507766574256e-02 -1.0221519698266173e+00 0.0000000000000000e+00  4.0674817533668695e-02 -1.0160710268232540e+00 0.0000000000000000e+00  3.9717388058458224e-02 -1.0112782907405737e+00 0.0000000000000000e+00  4.0636657499069147e-02 -1.0053055938431115e+00 0.0000000000000000e+00  3.9671224118638493e-02 -1.0003443493565354e+00 0.0000000000000000e+00  4.0602441415749334e-02 -9.9448403052963741e-01 0.0000000000000000e+00  3.9628658678954029e-02 -9.8935576215224674e-01 0.0000000000000000e+00  4.0571824140613909e-02 -9.8361103347439194e-01 0.0000000000000000e+00  3.9589379102471955e-02 -9.7831749229599041e-01 0.0000000000000000e+00  4.0544495193110985e-02 -9.7269079257601221e-01 0.0000000000000000e+00  3.9553113343574399e-02 -9.6723390414155208e-01 0.0000000000000000e+00  4.0520172653873920e-02 -9.6172708335571500e-01 0.0000000000000000e+00  3.9519624804077752e-02 -9.5610883606693942e-01 0.0000000000000000e+00  4.0498597398678678e-02 -9.5072335513574491e-01 0.0000000000000000e+00  3.9488713848093257e-02 -9.4494556969227617e-01 0.0000000000000000e+00  4.0479518347939822e-02 -9.3968295998941964e-01 0.0000000000000000e+00  3.9460225639770120e-02 -9.3374670090757117e-01 0.0000000000000000e+00  4.0462686460165070e-02 -9.2860924553846780e-01 0.0000000000000000e+00  3.9434034639289732e-02 -9.2251437801505898e-01 0.0000000000000000e+00  4.0447873421459273e-02 -9.1750526332371474e-01 0.0000000000000000e+00  3.9410034781683201e-02 -9.1125045027441387e-01 0.0000000000000000e+00  4.0434832465752114e-02 -9.0637438117075420e-01 0.0000000000000000e+00  3.9388228783863249e-02 -8.9995506103099820e-01 0.0000000000000000e+00  4.0423183730572139e-02 -8.9522207071936433e-01 0.0000000000000000e+00  3.9368778969173804e-02 -8.8862585029918950e-01 0.0000000000000000e+00  4.0412507195604824e-02 -8.8405445123207904e-01 0.0000000000000000e+00  3.9351741913558481e-02 -8.7726212316451568e-01 0.0000000000000000e+00  4.0402664420177647e-02 -8.7287326960974365e-01 0.0000000000000000e+00  3.9336931458704386e-02 -8.6586698752659830e-01 0.0000000000000000e+00  4.0393460144094208e-02 -8.6168120013957306e-01 0.0000000000000000e+00  3.9324873680328644e-02 -8.5443233869705404e-01 0.0000000000000000e+00  4.0383238287127060e-02 -8.5050376144334139e-01 0.0000000000000000e+00  3.9318082375966366e-02 -8.4291886588581477e-01 0.0000000000000000e+00  4.0368565901369204e-02 -8.3939418555098777e-01 0.0000000000000000e+00  3.9319619739701134e-02 -8.3127877179496557e-01 0.0000000000000000e+00  4.0347767080604044e-02 -8.2837816232924022e-01 0.0000000000000000e+00  3.9327894801303186e-02 -8.1953749175252666e-01 0.0000000000000000e+00  4.0326581112055865e-02 -8.1736552670658968e-01 0.0000000000000000e+00  3.9332308170576508e-02 -8.0786178087081739e-01 0.0000000000000000e+00  4.0319482392805833e-02 -8.0612990483973923e-01 0.0000000000000000e+00  3.9316055454526141e-02 -7.9651520796846831e-01 0.0000000000000000e+00  4.0342759491385098e-02 -7.9441733508518597e-01 0.0000000000000000e+00  3.9265926276082101e-02 -7.8570425193705240e-01 0.0000000000000000e+00  4.0403979821358148e-02 -7.8211127134018366e-01 0.0000000000000000e+00  3.9181319458639161e-02 -7.7543718195829114e-01 0.0000000000000000e+00  4.0496364500393699e-02 -7.6932000270407297e-01 0.0000000000000000e+00  3.9075590350807821e-02 -7.6550309143642703e-01 0.0000000000000000e+00  4.0601697917467303e-02 -7.5632982292637219e-01 0.0000000000000000e+00  3.8969409029291385e-02 -7.5557607297918061e-01 0.0000000000000000e+00  4.0699386415256160e-02 -7.4346248326732434e-01 0.0000000000000000e+00  3.8880623031932751e-02 -7.4537467282086456e-01 0.0000000000000000e+00  4.0775762181037574e-02 -7.3093018482657968e-01 0.0000000000000000e+00  3.8817482205603791e-02 -7.3476889650120814e-01 0.0000000000000000e+00  4.0827342735818430e-02 -7.1878578874245147e-01 0.0000000000000000e+00  3.8779178009136168e-02 -7.2377187281683908e-01 0.0000000000000000e+00  4.0857573266837817e-02 -7.0697444828379707e-01 0.0000000000000000e+00  3.8760529655577393e-02 -7.1246578989020615e-01 0.0000000000000000e+00  4.0872154887809861e-02 -6.9540667538117618e-01 0.0000000000000000e+00  3.8755765858911974e-02 -7.0094200803110229e-01 0.0000000000000000e+00  4.0876401299941731e-02 -6.8399945761265402e-01 0.000000000