<?xml version="1.0"?>
<VTKFile type="UnstructuredGrid"  version="0.1"  >
<UnstructuredGrid>
<Piece  NumberOfPoints="801" NumberOfCells="800">
<Points>
<DataArray  type="Float64"  NumberOfComponents="3"  format="ascii">-5 0 0  -4.9875 0 0  -4.975 0 0  -4.9625 0 0  -4.95 0 0  -4.9375 0 0  -4.925 0 0  -4.9125 0 0  -4.9 0 0  -4.8875 0 0  -4.875 0 0  -4.8625 0 0  -4.85 0 0  -4.8375 0 0  -4.825 0 0  -4.8125 0 0  -4.8 0 0  -4.7875 0 0  -4.775 0 0  -4.7625 0 0  -4.75 0 0  -4.7375 0 0  -4.725 0 0  -4.7125 0 0  -4.7 0 0  -4.6875 0 0  -4.675 0 0  -4.6625 0 0  -4.65 0 0  -4.6375 0 0  -4.625 0 0  -4.6125 0 0  -4.6 0 0  -4.5875 0 0  -4.575 0 0  -4.5625 0 0  -4.55 0 0  -4.5375 0 0  -4.525 0 0  -4.5125 0 0  -4.5 0 0  -4.4875 0 0  -4.475 0 0  -4.4625 0 0  -4.45 0 0  -4.4375 0 0  -4.425 0 0  -4.4125 0 0  -4.4 0 0  -4.3875 0 0  -4.375 0 0  -4.3625 0 0  -4.35 0 0  -4.3375 0 0  -4.325 0 0  -4.3125 0 0  -4.3 0 0  -4.2875 0 0  -4.275 0 0  -4.2625 0 0  -4.25 0 0  -4.2375 0 0  -4.225 0 0  -4.2125 0 0  -4.2 0 0  -4.1875 0 0  -4.175 0 0  -4.1625 0 0  -4.15 0 0  -4.1375 0 0  -4.125 0 0  -4.1125 0 0  -4.1 0 0  -4.0875 0 0  -4.075 0 0  -4.0625 0 0  -4.05 0 0  -4.0375 0 0  -4.025 0 0  -4.0125 0 0  -4 0 0  -3.9875 0 0  -3.975 0 0  -3.9625 0 0  -3.95 0 0  -3.9375 0 0  -3.925 0 0  -3.9125 0 0  -3.9 0 0  -3.8875 0 0  -3.875 0 0  -3.8625 0 0  -3.85 0 0  -3.8375 0 0  -3.825 0 0  -3.8125 0 0  -3.8 0 0  -3.7875 0 0  -3.775 0 0  -3.7625 0 0  -3.75 0 0  -3.7375 0 0  -3.725 0 0  -3.7125 0 0  -3.7 0 0  -3.6875 0 0  -3.675 0 0  -3.6625 0 0  -3.65 0 0  -3.6375 0 0  -3.625 0 0  -3.6125 0 0  -3.6 0 0  -3.5875 0 0  -3.575 0 0  -3.5625 0 0  -3.55 0 0  -3.5375 0 0  -3.525 0 0  -3.5125 0 0  -3.5 0 0  -3.4875 0 0  -3.475 0 0  -3.4625 0 0  -3.45 0 0  -3.4375 0 0  -3.425 0 0  -3.4125 0 0  -3.4 0 0  -3.3875 0 0  -3.375 0 0  -3.3625 0 0  -3.35 0 0  -3.3375 0 0  -3.325 0 0  -3.3125 0 0  -3.3 0 0  -3.2875 0 0  -3.275 0 0  -3.2625 0 0  -3.25 0 0  -3.2375 0 0  -3.225 0 0  -3.2125 0 0  -3.2 0 0  -3.1875 0 0  -3.175 0 0  -3.1625 0 0  -3.15 0 0  -3.1375 0 0  -3.125 0 0  -3.1125 0 0  -3.1 0 0  -3.0875 0 0  -3.075 0 0  -3.0625 0 0  -3.05 0 0  -3.0375 0 0  -3.025 0 0  -3.0125 0 0  -3 0 0  -2.9875 0 0  -2.975 0 0  -2.9625 0 0  -2.95 0 0  -2.9375 0 0  -2.925 0 0  -2.9125 0 0  -2.9 0 0  -2.8875 0 0  -2.875 0 0  -2.8625 0 0  -2.85 0 0  -2.8375 0 0  -2.825 0 0  -2.8125 0 0  -2.8 0 0  -2.7875 0 0  -2.775 0 0  -2.7625 0 0  -2.75 0 0  -2.7375 0 0  -2.725 0 0  -2.7125 0 0  -2.7 0 0  -2.6875 0 0  -2.675 0 0  -2.6625 0 0  -2.65 0 0  -2.6375 0 0  -2.625 0 0  -2.6125 0 0  -2.6 0 0  -2.5875 0 0  -2.575 0 0  -2.5625 0 0  -2.55 0 0  -2.5375 0 0  -2.525 0 0  -2.5125 0 0  -2.5 0 0  -2.4875 0 0  -2.475 0 0  -2.4625 0 0  -2.45 0 0  -2.4375 0 0  -2.425 0 0  -2.4125 0 0  -2.4 0 0  -2.3875 0 0  -2.375 0 0  -2.3625 0 0  -2.35 0 0  -2.3375 0 0  -2.325 0 0  -2.3125 0 0  -2.3 0 0  -2.2875 0 0  -2.275 0 0  -2.2625 0 0  -2.25 0 0  -2.2375 0 0  -2.225 0 0  -2.2125 0 0  -2.2 0 0  -2.1875 0 0  -2.175 0 0  -2.1625 0 0  -2.15 0 0  -2.1375 0 0  -2.125 0 0  -2.1125 0 0  -2.1 0 0  -2.0875 0 0  -2.075 0 0  -2.0625 0 0  -2.05 0 0  -2.0375 0 0  -2.025 0 0  -2.0125 0 0  -2 0 0  -1.9875 0 0  -1.975 0 0  -1.9625 0 0  -1.95 0 0  -1.9375 0 0  -1.925 0 0  -1.9125 0 0  -1.9 0 0  -1.8875 0 0  -1.875 0 0  -1.8625 0 0  -1.85 0 0  -1.8375 0 0  -1.825 0 0  -1.8125 0 0  -1.8 0 0  -1.7875 0 0  -1.775 0 0  -1.7625 0 0  -1.75 0 0  -1.7375 0 0  -1.725 0 0  -1.7125 0 0  -1.7 0 0  -1.6875 0 0  -1.675 0 0  -1.6625 0 0  -1.65 0 0  -1.6375 0 0  -1.625 0 0  -1.6125 0 0  -1.6 0 0  -1.5875 0 0  -1.575 0 0  -1.5625 0 0  -1.55 0 0  -1.5375 0 0  -1.525 0 0  -1.5125 0 0  -1.5 0 0  -1.4875 0 0  -1.475 0 0  -1.4625 0 0  -1.45 0 0  -1.4375 0 0  -1.425 0 0  -1.4125 0 0  -1.4 0 0  -1.3875 0 0  -1.375 0 0  -1.3625 0 0  -1.35 0 0  -1.3375 0 0  -1.325 0 0  -1.3125 0 0  -1.3 0 0  -1.2875 0 0  -1.275 0 0  -1.2625 0 0  -1.25 0 0  -1.2375 0 0  -1.225 0 0  -1.2125 0 0  -1.2 0 0  -1.1875 0 0  -1.175 0 0  -1.1625 0 0  -1.15 0 0  -1.1375 0 0  -1.125 0 0  -1.1125 0 0  -1.1 0 0  -1.0875 0 0  -1.075 0 0  -1.0625 0 0  -1.05 0 0  -1.0375 0 0  -1.025 0 0  -1.0125 0 0  -1 0 0  -0.9874999999999998 0 0  -0.9749999999999996 0 0  -0.9625000000000004 0 0  -0.9500000000000002 0 0  -0.9375 0 0  -0.9249999999999998 0 0  -0.9124999999999996 0 0  -0.9000000000000004 0 0  -0.8875000000000002 0 0  -0.875 0 0  -0.8624999999999998 0 0  -0.8499999999999996 0 0  -0.8375000000000004 0 0  -0.8250000000000002 0 0  -0.8125 0 0  -0.7999999999999998 0 0  -0.7874999999999996 0 0  -0.7750000000000004 0 0  -0.7625000000000002 0 0  -0.75 0 0  -0.7374999999999998 0 0  -0.7249999999999996 0 0  -0.7125000000000004 0 0  -0.7000000000000002 0 0  -0.6875 0 0  -0.6749999999999998 0 0  -0.6624999999999996 0 0  -0.6500000000000004 0 0  -0.6375000000000002 0 0  -0.625 0 0  -0.6124999999999998 0 0  -0.5999999999999996 0 0  -0.5875000000000004 0 0  -0.5750000000000002 0 0  -0.5625 0 0  -0.5499999999999998 0 0  -0.5374999999999996 0 0  -0.5250000000000004 0 0  -0.5125000000000002 0 0  -0.5 0 0  -0.4874999999999998 0 0  -0.4749999999999996 0 0  -0.4625000000000004 0 0  -0.4500000000000002 0 0  -0.4375 0 0  -0.4249999999999998 0 0  -0.4124999999999996 0 0  -0.4000000000000004 0 0  -0.3875000000000002 0 0  -0.375 0 0  -0.3624999999999998 0 0  -0.3499999999999996 0 0  -0.3375000000000004 0 0  -0.3250000000000002 0 0  -0.3125 0 0  -0.2999999999999998 0 0  -0.2874999999999996 0 0  -0.2750000000000004 0 0  -0.2625000000000002 0 0  -0.25 0 0  -0.2374999999999998 0 0  -0.2249999999999996 0 0  -0.2125000000000004 0 0  -0.2000000000000002 0 0  -0.1875 0 0  -0.1749999999999998 0 0  -0.1624999999999996 0 0  -0.1500000000000004 0 0  -0.1375000000000002 0 0  -0.125 0 0  -0.1124999999999998 0 0  -0.09999999999999964 0 0  -0.08750000000000036 0 0  -0.07500000000000018 0 0  -0.0625 0 0  -0.04999999999999982 0 0  -0.03749999999999964 0 0  -0.02500000000000036 0 0  -0.01250000000000018 0 0  0 0 0  0.01250000000000018 0 0  0.02500000000000036 0 0  0.03749999999999964 0 0  0.04999999999999982 0 0  0.0625 0 0  0.07500000000000018 0 0  0.08750000000000036 0 0  0.09999999999999964 0 0  0.1124999999999998 0 0  0.125 0 0  0.1375000000000002 0 0  0.1500000000000004 0 0  0.1624999999999996 0 0  0.1749999999999998 0 0  0.1875 0 0  0.2000000000000002 0 0  0.2125000000000004 0 0  0.2249999999999996 0 0  0.2374999999999998 0 0  0.25 0 0  0.2625000000000002 0 0  0.2750000000000004 0 0  0.2874999999999996 0 0  0.2999999999999998 0 0  0.3125 0 0  0.3250000000000002 0 0  0.3375000000000004 0 0  0.3499999999999996 0 0  0.3624999999999998 0 0  0.375 0 0  0.3875000000000002 0 0  0.4000000000000004 0 0  0.4124999999999996 0 0  0.4249999999999998 0 0  0.4375 0 0  0.4500000000000002 0 0  0.4625000000000004 0 0  0.4749999999999996 0 0  0.4874999999999998 0 0  0.5 0 0  0.5125000000000002 0 0  0.5250000000000004 0 0  0.5374999999999996 0 0  0.5499999999999998 0 0  0.5625 0 0  0.5750000000000002 0 0  0.5875000000000004 0 0  0.5999999999999996 0 0  0.6124999999999998 0 0  0.625 0 0  0.6375000000000002 0 0  0.6500000000000004 0 0  0.6624999999999996 0 0  0.6749999999999998 0 0  0.6875 0 0  0.7000000000000002 0 0  0.7125000000000004 0 0  0.7249999999999996 0 0  0.7374999999999998 0 0  0.75 0 0  0.7625000000000002 0 0  0.7750000000000004 0 0  0.7874999999999996 0 0  0.7999999999999998 0 0  0.8125 0 0  0.8250000000000002 0 0  0.8375000000000004 0 0  0.8499999999999996 0 0  0.8624999999999998 0 0  0.875 0 0  0.8875000000000002 0 0  0.9000000000000004 0 0  0.9124999999999996 0 0  0.9249999999999998 0 0  0.9375 0 0  0.9500000000000002 0 0  0.9625000000000004 0 0  0.9749999999999996 0 0  0.9874999999999998 0 0  1 0 0  1.0125 0 0  1.025 0 0  1.0375 0 0  1.05 0 0  1.0625 0 0  1.075 0 0  1.0875 0 0  1.1 0 0  1.1125 0 0  1.125 0 0  1.1375 0 0  1.15 0 0  1.1625 0 0  1.175 0 0  1.1875 0 0  1.2 0 0  1.2125 0 0  1.225 0 0  1.2375 0 0  1.25 0 0  1.2625 0 0  1.275 0 0  1.2875 0 0  1.3 0 0  1.3125 0 0  1.325 0 0  1.3375 0 0  1.35 0 0  1.3625 0 0  1.375 0 0  1.3875 0 0  1.4 0 0  1.4125 0 0  1.425 0 0  1.4375 0 0  1.45 0 0  1.4625 0 0  1.475 0 0  1.4875 0 0  1.5 0 0  1.5125 0 0  1.525 0 0  1.5375 0 0  1.55 0 0  1.5625 0 0  1.575 0 0  1.5875 0 0  1.6 0 0  1.6125 0 0  1.625 0 0  1.6375 0 0  1.65 0 0  1.6625 0 0  1.675 0 0  1.6875 0 0  1.7 0 0  1.7125 0 0  1.725 0 0  1.7375 0 0  1.75 0 0  1.7625 0 0  1.775 0 0  1.7875 0 0  1.8 0 0  1.8125 0 0  1.825 0 0  1.8375 0 0  1.85 0 0  1.8625 0 0  1.875 0 0  1.8875 0 0  1.9 0 0  1.9125 0 0  1.925 0 0  1.9375 0 0  1.95 0 0  1.9625 0 0  1.975 0 0  1.9875 0 0  2 0 0  2.0125 0 0  2.025 0 0  2.0375 0 0  2.05 0 0  2.0625 0 0  2.075 0 0  2.0875 0 0  2.1 0 0  2.1125 0 0  2.125 0 0  2.1375 0 0  2.15 0 0  2.1625 0 0  2.175 0 0  2.1875 0 0  2.2 0 0  2.2125 0 0  2.225 0 0  2.2375 0 0  2.25 0 0  2.2625 0 0  2.275 0 0  2.2875 0 0  2.3 0 0  2.3125 0 0  2.325 0 0  2.3375 0 0  2.35 0 0  2.3625 0 0  2.375 0 0  2.3875 0 0  2.4 0 0  2.4125 0 0  2.425 0 0  2.4375 0 0  2.45 0 0  2.4625 0 0  2.475 0 0  2.4875 0 0  2.5 0 0  2.5125 0 0  2.525 0 0  2.5375 0 0  2.55 0 0  2.5625 0 0  2.575 0 0  2.5875 0 0  2.6 0 0  2.6125 0 0  2.625 0 0  2.6375 0 0  2.65 0 0  2.6625 0 0  2.675 0 0  2.6875 0 0  2.7 0 0  2.7125 0 0  2.725 0 0  2.7375 0 0  2.75 0 0  2.7625 0 0  2.775 0 0  2.7875 0 0  2.8 0 0  2.8125 0 0  2.825 0 0  2.8375 0 0  2.85 0 0  2.8625 0 0  2.875 0 0  2.8875 0 0  2.9 0 0  2.9125 0 0  2.925 0 0  2.9375 0 0  2.95 0 0  2.9625 0 0  2.975 0 0  2.9875 0 0  3 0 0  3.012499999999999 0 0  3.025 0 0  3.0375 0 0  3.050000000000001 0 0  3.0625 0 0  3.074999999999999 0 0  3.0875 0 0  3.1 0 0  3.112500000000001 0 0  3.125 0 0  3.137499999999999 0 0  3.15 0 0  3.1625 0 0  3.175000000000001 0 0  3.1875 0 0  3.199999999999999 0 0  3.2125 0 0  3.225 0 0  3.237500000000001 0 0  3.25 0 0  3.262499999999999 0 0  3.275 0 0  3.2875 0 0  3.300000000000001 0 0  3.3125 0 0  3.324999999999999 0 0  3.3375 0 0  3.35 0 0  3.362500000000001 0 0  3.375 0 0  3.387499999999999 0 0  3.4 0 0  3.4125 0 0  3.425000000000001 0 0  3.4375 0 0  3.449999999999999 0 0  3.4625 0 0  3.475 0 0  3.4875
[...]
<PointData  Vectors="(h, u)"> 
<DataArray  type="Float64"  Name="(h, u)"  NumberOfComponents="3" format="ascii">1.4895814757212811e-01 0.0000000000000000e+00 0.0000000000000000e+00  1.4667446151458075e-01 4.3241510133267781e-03 0.0000000000000000e+00  1.4896361897433219e-01 1.1136300112051745e-02 0.0000000000000000e+00  1.4665647421593606e-01 1.3010141953454771e-02 0.0000000000000000e+00  1.4897869069449365e-01 2.2199635967856818e-02 0.0000000000000000e+00  1.4662310714947335e-01 2.1805264182247059e-02 0.0000000000000000e+00  1.4899958576192054e-01 3.3125354740931742e-02 0.0000000000000000e+00  1.4657908747472578e-01 3.0769581669468419e-02 0.0000000000000000e+00  1.4902078640971303e-01 4.3863301244439316e-02 0.0000000000000000e+00  1.4653043690221201e-01 3.9946250720540304e-02 0.0000000000000000e+00  1.4903597116993897e-01 5.4381283829416635e-02 0.0000000000000000e+00  1.4648350741337737e-01 4.9359571369590363e-02 0.0000000000000000e+00  1.4903892513237610e-01 6.4665738493598204e-02 0.0000000000000000e+00  1.4644411369348939e-01 5.9016537884926008e-02 0.0000000000000000e+00  1.4902425529482968e-01 7.4719121195458482e-02 0.0000000000000000e+00  1.4641698282638016e-01 6.8910411234425109e-02 0.0000000000000000e+00  1.4898783257441772e-01 8.4554734491803132e-02 0.0000000000000000e+00  1.4640553772333029e-01 7.9025507577127882e-02 0.0000000000000000e+00  1.4892689582500937e-01 9.4191477816110022e-02 0.0000000000000000e+00  1.4641186246895257e-01 8.9342527665362687e-02 0.0000000000000000e+00  1.4883992176569968e-01 1.0365019612983833e-01 0.0000000000000000e+00  1.4643677828552532e-01 9.9842136090156505e-02 0.0000000000000000e+00  1.4872655096699849e-01 1.1295152498475690e-01 0.0000000000000000e+00  1.4647996281508199e-01 1.1050496848069603e-01 0.0000000000000000e+00  1.4858767609480683e-01 1.2211602841111932e-01 0.0000000000000000e+00  1.4653986577950456e-01 1.2130933468012034e-01 0.0000000000000000e+00  1.4842556669084450e-01 1.3116796196899547e-01 0.0000000000000000e+00  1.4661335011769250e-01 1.3222806987269869e-01 0.0000000000000000e+00  1.4824408662379338e-01 1.4014058187630815e-01 0.0000000000000000e+00  1.4669540882886406e-01 1.4322387347001536e-01 0.0000000000000000e+00  1.4804906777417373e-01 1.4907943127809548e-01 0.0000000000000000e+00  1.4677913807239701e-01 1.5424488457423732e-01 0.0000000000000000e+00  1.4784839947555695e-01 1.5804382975041412e-01 0.0000000000000000e+00  1.4685580063132894e-01 1.6522520985541622e-01 0.0000000000000000e+00  1.4765146917345964e-01 1.6710677194415302e-01 0.0000000000000000e+00  1.4691526496122193e-01 1.7609027921455922e-01 0.0000000000000000e+00  1.4746831967490462e-01 1.7634884331214201e-01 0.0000000000000000e+00  1.4694728379328745e-01 1.8676340528522076e-01 0.0000000000000000e+00  1.4730864536607891e-01 1.8584590790680050e-01 0.0000000000000000e+00  1.4694305887107198e-01 1.9717593690797508e-01 0.0000000000000000e+00  1.4718013932053481e-01 1.9565785332574226e-01 0.0000000000000000e+00  1.4689640514861779e-01 2.0728238834847523e-01 0.0000000000000000e+00  1.4708674010164505e-01 2.0581917247554682e-01 0.0000000000000000e+00  1.4680501387078268e-01 2.1707086791105898e-01 0.0000000000000000e+00  1.4702799926594701e-01 2.1632736231887417e-01 0.0000000000000000e+00  1.4667163470135999e-01 2.2656456176912235e-01 0.0000000000000000e+00  1.4699906446907285e-01 2.2713846901106521e-01 0.0000000000000000e+00  1.4650360400993331e-01 2.3582294352878153e-01 0.0000000000000000e+00  1.4699064450192645e-01 2.3817776907668778e-01 0.0000000000000000e+00  1.4631117277287067e-01 2.4493797351431398e-01 0.0000000000000000e+00  1.4699055362905553e-01 2.4935159761203529e-01 0.0000000000000000e+00  1.4610643778504676e-01 2.5401333652109920e-01 0.0000000000000000e+00  1.4698671963415916e-01 2.6055643440667897e-01 0.0000000000000000e+00  1.4590153201139774e-01 2.6314391174951812e-01 0.0000000000000000e+00  1.4696866230852393e-01 2.7170198781926908e-01 0.0000000000000000e+00  1.4570530364566459e-01 2.7241015151994724e-01 0.0000000000000000e+00  1.4692826945925597e-01 2.8273295466368709e-01 0.0000000000000000e+00  1.4552232900962697e-01 2.8186397224669896e-01 0.0000000000000000e+00  1.4686228145758715e-01 2.9362312294930321e-01 0.0000000000000000e+00  1.4535421850329497e-01 2.9151150125761344e-01 0.0000000000000000e+00  1.4677245979394479e-01 3.0437204571520865e-01 0.0000000000000000e+00  1.4519855265786599e-01 3.0133135347509443e-01 0.0000000000000000e+00  1.4666206642615950e-01 3.1501749600863449e-01 0.0000000000000000e+00  1.4504891748201287e-01 3.1129584739866589e-01 0.0000000000000000e+00  1.4653570759286108e-01 3.2561196936378506e-01 0.0000000000000000e+00  1.4489983313548155e-01 3.2135684546906457e-01 0.0000000000000000e+00  1.4640043624765289e-01 3.3618804324714552e-01 0.0000000000000000e+00  1.4474764853760783e-01 3.3146207217467732e-01 0.0000000000000000e+00  1.4626059064382996e-01 3.4678059119253707e-01 0.0000000000000000e+00  1.4458710389636528e-01 3.4159928064532563e-01 0.0000000000000000e+00  1.4611616540806396e-01 3.5742893001472825e-01 0.0000000000000000e+00  1.4441584122981418e-01 3.5176590337406483e-01 0.0000000000000000e+00  1.4596908128635080e-01 3.6812286240281583e-01 0.0000000000000000e+00  1.4423761657140319e-01 3.6194177432902885e-01 0.0000000000000000e+00  1.4581987501310822e-01 3.7883334982522321e-01 0.0000000000000000e+00  1.4405352159533061e-01 3.7215593324851348e-01 0.0000000000000000e+00  1.4566159046341878e-01 3.8956930851033494e-01 0.0000000000000000e+00  1.4386340334524458e-01 3.8246737007767340e-01 0.0000000000000000e+00  1.4549055257156401e-01 4.0029750500880168e-01 0.0000000000000000e+00  1.4367602199545981e-01 3.9287202965888901e-01 0.0000000000000000e+00  1.4530829770631021e-01 4.1093713442649599e-01 0.0000000000000000e+00  1.4349706253180400e-01 4.0338954405083044e-01 0.0000000000000000e+00  1.4510663030733395e-01 4.2149646703225130e-01 0.0000000000000000e+00  1.4332186208996406e-01 4.1410718231763666e-01 0.0000000000000000e+00  1.4487974540552026e-01 4.3199121772995547e-01 0.0000000000000000e+00  1.4315559563904073e-01 4.2499328328115699e-01 0.0000000000000000e+00  1.4463917107954544e-01 4.4234237186666436e-01 0.0000000000000000e+00  1.4300343758181649e-01 4.3595756849386863e-01 0.0000000000000000e+00  1.4438781016990190e-01 4.5260938265581935e-01 0.0000000000000000e+00  1.4284613068785873e-01 4.4703635930143487e-01 0.0000000000000000e+00  1.4412397519648651e-01 4.6296946098483710e-01 0.0000000000000000e+00  1.4267178061613348e-01 4.5812329744327346e-01 0.0000000000000000e+00  1.4387731975243206e-01 4.7342009639999011e-01 0.0000000000000000e+00  1.4248234081859440e-01 4.6892557041986760e-01 0.0000000000000000e+00  1.4367182587417934e-01 4.8406514250104160e-01 0.0000000000000000e+00  1.4224445754491055e-01 4.7939987323665795e-01 0.0000000000000000e+00  1.4350376853003183e-01 4.9525849826606483e-01 0.0000000000000000e+00  1.4192923914142502e-01 4.8947032645668886e-01 0.0000000000000000e+00  1.4340693318220227e-01 5.0700936634472227e-01 0.0000000000000000e+00  1.4155461781829540e-01 4.9873737888122316e-01 0.0000000000000000e+00  1.4341376396147257e-01 5.1924024672564029e-01 0.0000000000000000e+00  1.4110091685168860e-01 5.0724076396486961e-01 0.0000000000000000e+00  1.4348796069669045e-01 5.3228579844849122e-01 0.0000000000000000e+00  1.4054368022991520e-01 5.1524062840150509e-01 0.0000000000000000e+00  1.4363328487506993e-01 5.4595011382355108e-01 0.0000000000000000e+00  1.3994961120852695e-01 5.2244623143669289e-01 0.0000000000000000e+00  1.4387076375971025e-01 5.5969034140218765e-01 0.0000000000000000e+00  1.3933746769522953e-01 5.2916262536105518e-01 0.0000000000000000e+00  1.4410813130902544e-01 5.7373038313126823e-01 0.0000000000000000e+00  1.3869074282823685e-01 5.3613833977030501e-01 0.0000000000000000e+00  1.4431940504813232e-01 5.8764389037896358e-01 0.0000000000000000e+00  1.3812581834028034e-01 5.4306775597469392e-01 0.0000000000000000e+00  1.4453482414488789e-01 6.0054650588382941e-01 0.0000000000000000e+00  1.3766115244206570e-01 5.5040651564098952e-01 0.0000000000000000e+00  1.4462584078900781e-01 6.1298237271012590e-01 0.0000000000000000e+00  1.3724742079375374e-01 5.5901535759895948e-01 0.0000000000000000e+00  1.4461121624402393e-01 6.2448255122155560e-01 0.0000000000000000e+00  1.3701904107220211e-01 5.6796120997141553e-01 0.0000000000000000e+00  1.4456453836740230e-01 6.3438963437865337e-01 0.0000000000000000e+00  1.3689854108725430e-01 5.7781285662994486e-01 0.0000000000000000e+00  1.4434474632217603e-01 6.4407950847498385e-01 0.0000000000000000e+00  1.3681543853640885e-01 5.8883596888952128e-01 0.0000000000000000e+00  1.4410886238864781e-01 6.5265588510235750e-01 0.0000000000000000e+00  1.3690732443220541e-01 5.9939259728411343e-01 0.0000000000000000e+00  1.4387402399169011e-01 6.6047095521228405e-01 0.0000000000000000e+00  1.3694363559623263e-01 6.1091494297943638e-01 0.0000000000000000e+00  1.4352794181062006e-01 6.6891787236557476e-01 0.0000000000000000e+00  1.3702435460278747e-01 6.2214676532766977e-01 0.0000000000000000e+00  1.4333873007142978e-01 6.7608852085996596e-01 0.0000000000000000e+00  1.3716155528892326e-01 6.3276239788319211e-01 0.0000000000000000e+00  1.4304948063743214e-01 6.8423580196523459e-01 0.0000000000000000e+00  1.3715908275168948e-01 6.4439666577463606e-01 0.0000000000000000e+00  1.4283259683984900e-01 6.9184272826159510e-01 0.0000000000000000e+00  1.3734548493606469e-01 6.5445395263384853e-01 0.0000000000000000e+00  1.4265298882281896e-01 6.9898310747822989e-01 0.0000000000000000e+00  1.3736495952316577e-01 6.6618024934742726e-01 0.0000000000000000e+00  1.4233380171416796e-01 7.0687894719916855e-01 0.0000000000000000e+00  1.3756835666425848e-01 6.7685134127942537e-01 0.0000000000000000e+00  1.4219538109037291e-01 7.1268873914449860e-01 0.0000000000000000e+00  1.3771875095955335e-01 6.8856102799926466e-01 0.0000000000000000e+00  1.4177313976527323e-01 7.2027590005852771e-01 0.0000000000000000e+00  1.3791479888706420e-01 7.0038577188363926e-01 0.0000000000000000e+00  1.4162809314402286e-01 7.2514073972473436e-01 0.0000000000000000e+00  1.3818888206733232e-01 7.1178596343134037e-01 0.0000000000000000e+00  1.4118241607857904e-01 7.3244994506349792e-01 0.0000000000000000e+00  1.3831558888299933e-01 7.2424689741059722e-01 0.0000000000000000e+00  1.4107745674281422e-01 7.3726708028648136e-01 0.0000000000000000e+00  1.3861114915685355e-01 7.3470047226036883e-01 0.0000000000000000e+00  1.4071020110362994e-01 7.4502876258899287e-01 0.0000000000000000e+00  1.3859275622820252e-01 7.4684676174063969e-01 0.0000000000000000e+00  1.4073262411585660e-01 7.5054408474855328e-01 0.0000000000000000e+00  1.3881493397717598e-01 7.5587803595824632e-01 0.0000000000000000e+00  1.4047554153502437e-01 7.5948623805067861e-01 0.0000000000000000e+00  1.3864269578103147e-01 7.6715039386126538e-01 0.0000000000000000e+00  1.4066552196105364e-01 7.6561646944097606e-01 0.0000000000000000e+00  1.3877280328686206e-01 7.7508104014234680e-01 0.0000000000000000e+00  1.4043197419904599e-01 7.7591136984415021e-01 0.0000000000000000e+00  1.3855828027028932e-01 7.8547453931823197e-01 0.0000000000000000e+00  1.4075302318134203e-01 7.8173429847006015e-01 0.0000000000000000e+00  1.3861984399892496e-01 7.9357913550519554e-01 0.0000000000000000e+00  1.4039488867486782e-01 7.9300180187929714e-01 0.0000000000000000e+00  1.3857994918641423e-01 8.0295922408691711e-01 0.0000000000000000e+00  1.4074759089221492e-01 7.9770845450956196e-01 0.0000000000000000e+00  1.3853120188037296e-01 8.1311656522759079e-01 0.0000000000000000e+00  1.4022573854274789e-01 8.0895154704530392e-01 0.0000000000000000e+00  1.3889776008079607e-01 8.2059485674598587e-01 0.0000000000000000e+00  1.4041313056915905e-01 8.1344729960225315e-01 0.0000000000000000e+00  1.3863607888726473e-01 8.3406776354999612e-01 0.0000000000000000e+00  1.3998587560028411e-01 8.2245312199343690e-01 0.0000000000000000e+00  1.3942951000161052e-01 8.3918291978847370e-01 0.0000000000000000e+00  1.3963770886371707e-01 8.3043733580122392e-01 0.0000000000000000e+00  1.3910938480842608e-01 8.5379255534476661e-01 0.0000000000000000e+00  1.3976055568899634e-01 8.3446694339327210e-01 0.0000000000000000e+00  1.3977959335460358e-01 8.5993427562907165e-01 0.0000000000000000e+00  1.3874464192960384e-01 8.4837322935450044e-01 0.0000000000000000e+00  1.4012302239292102e-01 8.6830748708273842e-01 0.0000000000000000e+00  1.3918993156876125e-01 8.5058666727142529e-01 0.0000000000000000e+00  1.3976921619915464e-01 8.8185963497737485e-01 0.0000000000000000e+00  1.3854852567324785e-01 8.6265840336403299e-01 0.0000000000000000e+00  1.4096178159439887e-01 8.8171048949513764e-01 0.0000000000000000e+00  1.3791414536354604e-01 8.7539040234139143e-01 0.0000000000000000e+00  1.4048094803782779e-01 8.9483014769570757e-01 0.0000000000000000e+00  1.3881102191968164e-01 8.7592096664382013e-01 0.0000000000000000e+00  1.4042689840034545e-01 9.0378132649879506e-01 0.0000000000000000e+00  1.3765388823776203e-01 8.9426899384374370e-01 0.0000000000000000e+00  1.4178277981174792e-01 9.0044090937322396e-01 0.0000000000000000e+00  1.3729927612912457e-01 9.0626715819439851e-01 0.0000000000000000e+00  1.4074743080986540e-01 9.1674904300230842e-01 0.0000000000000000e+00  1.3870354874404064e-01 9.0376997325520958e-01 0.0000000000000000e+00  1.4041692372548478e-01 9.2688489583849420e-01 0.0000000000000000e+00  1.3744428033173114e-01 9.2390309500399004e-01 0.0000000000000000e+00  1.4236371410849694e-01 9.1774262462588896e-01 0.0000000000000000e+00  1.3627262769952975e-01 9.4349089281589005e-01 0.0000000000000000e+00  1.4160460104249586e-01 9.3108409467107822e-01 0.0000000000000000e+00  1.3849948263026388e-01 9.3466742196491204e-01 0.0000000000000000e+00  1.3941383205651203e-01 9.5626109162139483e-01 0.0000000000000000e+00  1.3911209924657272e-01 9.3942791934391057e-01 0.0000000000000000e+00  1.4105704446026060e-01 9.4932705676655804e-01 0.0000000000000000e+00  1.3620583612421719e-01 9.7373062043563008e-01 0.0000000000000000e+00  1.4362050652868419e-01 9.3477037261864848e-01 0.0000000000000000e+00  1.3570851352836641e-01 9.8765680046282212e-01 0.0000000000000000e+00  1.4135426199985632e-01 9.6097806301630795e-01 0.0000000000000000e+00  1.4031964047938819e-01 9.5837421173152559e-01 0.0000000000000000e+00  1.3579972120879630e-01 1.0150032151723443e+00 0.0000000000000000e+00  1.4452888761723984e-01 9.3188193081220516e-01 0.0000000000000000e+00  1.3380836484648650e-01 1.0395827246142595e+00 0.0000000000000000e+00  1.4324930744820849e-01 9.5120369719907494e-01 0.0000000000000000e+00  1.3805941023338442e-01 1.0122478067345084e+00 0.0000000000000000e+00  1.3732549959852136e-01 1.0092644400533635e+00 0.0000000000000000e+00  1.4449723783796842e-01 9.6677361321069466e-01 0.0000000000000000e+00  1.3123506268696022e-01 1.0686109884576540e+00 0.0000000000000000e+00  1.4866905946093284e-01 9.4024673073694631e-01 0.0000000000000000e+00  1.2831246743224092e-01 1.1014756574927258e+00 0.0000000000000000e+00  1.4968295754111380e-01 9.4014538856952579e-01 0.0000000000000000e+00  1.2853148006172596e-01 1.1080163949538542e+00 0.0000000000000000e+00  1.4868840666806651e-01 9.5670687174671820e-01 0.0000000000000000e+00  1.3033259005500217e-01 1.1014102396126420e+00 0.0000000000000000e+00  1.4693334150483955e-01 9.7934727984243153e-01 0.0000000000000000e+00  1.3242337771742158e-01 1.0925910975929387e+00 0.0000000000000000e+00  1.4520403788954347e-01 1.0015190674489833e+00 0.0000000000000000e+00  1.3417218379828921e-01 1.0868270312629826e+00 0.0000000000000000e+00  1.4383944432854409e-01 1.0205097826012872e+00 0.0000000000000000e+00  1.3542651490403609e-01 1.0852825000933874e+00 0.0000000000000000e+00  1.4288223945418962e-01 1.0360740994848441e+00 0.0000000000000000e+00  1.3625759074764279e-01 1.0872179367833588e+00 0.0000000000000000e+00  1.4224930307552860e-01 1.0489770590841399e+00 0.0000000000000000e+00  1.3678404980519748e-01 1.0915262711240739e+00 0.0000000000000000e+00  1.4184868198743769e-01 1.0600394556348680e+00 0.0000000000000000e+00  1.3709603691576960e-01 1.0974099325492461e+00 0.0000000000000000e+00  1.4162383098646486e-01 1.0697951107845622e+00 0.0000000000000000e+00  1.3724302507751318e-01 1.1044778470898864e+00 0.0000000000000000e+00  1.4155344338583448e-01 1.0784904060158169e+00 0.0000000000000000e+00  1.3724494857920783e-01 1.1126076937525335e+00 0.0000000000000000e+00  1.4163514675730002e-01 1.0861954478939257e+00 0.0000000000000000e+00  1.3710522385475338e-01 1.1217914867779513e+00 0.0000000000000000e+00  1.4186997883080948e-01 1.0929115913494678e+00 0.0000000000000000e+00  1.3682493674108095e-01 1.1320045546267576e+00 0.0000000000000000e+00  1.4224946350699522e-01 1.0986760059915224e+00 0.0000000000000000e+00  1.3641250649566072e-01 1.1431495991648646e+00 0.0000000000000000e+00  1.4274730051287765e-01 1.1036409491717789e+00 0.0000000000000000e+00  1.3589525401095850e-01 1.1549995834963027e+00 0.0000000000000000e+00  1.4331857914183446e-01 1.1080891189435549e+00 0.0000000000000000e+00  1.3531633635041235e-01 1.1672516361243148e+00 0.0000000000000000e+00  1.4390383783167163e-01 1.1124016843084552e+00 0.0000000000000000e+00  1.3473296381870842e-01 1.1795435350412327e+00 0.0000000000000000e+00  1.4444827578565134e-01 1.1169015306217789e+00 0.0000000000000000e+00  1.3419339308043438e-01 1.1916229370130513e+00 0.0000000000000000e+00  1.4491249023815528e-01 1.1217815812057386e+00 0.0000000000000000e+00  1.3372788100214286e-01 1.2033817782137606e+00 0.0000000000000000e+00  1.4530502963253847e-01 1.1268687495311718e+00 0.0000000000000000e+00  1.3331530053299095e-01 1.2150909822138134e+00 0.0000000000000000e+00  1.4569196707272830e-01 1.1315851604767586e+00 0.0000000000000000e+00  1.3286611695848807e-01 1.2275068090318466e+00 0.0000000000000000e+00  1.4626883675187452e-01 1.1343760521712025e+00 0.0000000000000000e+00  1.3217226745274369e-01 1.2422846298758814e+00 0.0000000000000000e+00  1.4734034403688384e-01 1.1328786714493311e+00 0.0000000000000000e+00  1.3098080546510746e-01 1.2613856844119171e+00 0.0000000000000000e+00  1.4920677425719311e-01 1.1248387227735868e+00 0.0000000000000000e+00  1.2919853050878088e-01 1.2854038004080015e+00 0.0000000000000000e+00  1.5164181676397062e-01 1.1123794952223247e+00 0.0000000000000000e+00  1.2723696700004664e-01 1.3106738409258885e+00 0.0000000000000000e+00  1.5341619824265670e-01 1.1058182729321127e+00 0.0000000000000000e+00  1.2621243649255037e-01 1.3275248787234917e+00 0.0000000000000000e+00  1.5231928973428552e-01 1.1234221952131009e+00 0.0000000000000000e+00  1.2768387242632193e-01 1.3225286763167836e+00 0.0000000000000000e+00  1.4889443436242478e-01 1.1606527873545385e+00 0.0000000000000000e+00  1.2989020117185401e-01 1.3109600389111302e+00 0.0000000000000000e+00  1.4756971727205029e-01 1.1806191532574768e+00 0.0000000000000000e+00  1.3047545437893912e-01 1.3132346990985051e+00 0.0000000000000000e+00  1.4674365188146010e-01 1.1963250961247567e+00 0.0000000000000000e+00  1.3258713986723744e-01 1.3027791626605636e+00 0.0000000000000000e+00  1.4270582579266874e-01 1.2384659611687123e+00 0.0000000000000000e+00  1.3736478961568002e-01 1.2703519321715686e+00 0.0000000000000000e+00  1.3804823173551278e-01 1.2854542908046847e+00 0.0000000000000000e+00  1.4059639286845807e-01 1.2517871074809841e+00 0.0000000000000000e+00  1.3752474406506940e-01 1.2971546694668026e+00 0.0000000000000000e+00  1.3777127253474530e-01 1.2847803104663460e+00 0.0000000000000000e+00  1.4422125752402687e-01 1.2478058997237542e+00 0.0000000000000000e+00  1.2898112962027733e-01 1.3692253603615208e+00 0.0000000000000000e+00  1.5434261720209583e-01 1.1703372986427223e+00 0.0000000000000000e+00  1.2357606883699407e-01 1.4258273503408263e+00 0.0000000000000000e+00  1.5299368868803678e-01 1.1877557946492410e+00 0.0000000000000000e+00  1.3323155205970871e-01 1.3528684466296368e+00 0.0000000000000000e+00  1.3506320005043587e-01 1.3441845792532079e+00 0.0000000000000000e+00  1.498948