<?xml version="1.0"?>
<VTKFile type="UnstructuredGrid"  version="0.1"  >
<UnstructuredGrid>
<Piece  NumberOfPoints="801" NumberOfCells="800">
<Points>
<DataArray  type="Float64"  NumberOfComponents="3"  format="ascii">-5 0 0  -4.9875 0 0  -4.975 0 0  -4.9625 0 0  -4.95 0 0  -4.9375 0 0  -4.925 0 0  -4.9125 0 0  -4.9 0 0  -4.8875 0 0  -4.875 0 0  -4.8625 0 0  -4.85 0 0  -4.8375 0 0  -4.825 0 0  -4.8125 0 0  -4.8 0 0  -4.7875 0 0  -4.775 0 0  -4.7625 0 0  -4.75 0 0  -4.7375 0 0  -4.725 0 0  -4.7125 0 0  -4.7 0 0  -4.6875 0 0  -4.675 0 0  -4.6625 0 0  -4.65 0 0  -4.6375 0 0  -4.625 0 0  -4.6125 0 0  -4.6 0 0  -4.5875 0 0  -4.575 0 0  -4.5625 0 0  -4.55 0 0  -4.5375 0 0  -4.525 0 0  -4.5125 0 0  -4.5 0 0  -4.4875 0 0  -4.475 0 0  -4.4625 0 0  -4.45 0 0  -4.4375 0 0  -4.425 0 0  -4.4125 0 0  -4.4 0 0  -4.3875 0 0  -4.375 0 0  -4.3625 0 0  -4.35 0 0  -4.3375 0 0  -4.325 0 0  -4.3125 0 0  -4.3 0 0  -4.2875 0 0  -4.275 0 0  -4.2625 0 0  -4.25 0 0  -4.2375 0 0  -4.225 0 0  -4.2125 0 0  -4.2 0 0  -4.1875 0 0  -4.175 0 0  -4.1625 0 0  -4.15 0 0  -4.1375 0 0  -4.125 0 0  -4.1125 0 0  -4.1 0 0  -4.0875 0 0  -4.075 0 0  -4.0625 0 0  -4.05 0 0  -4.0375 0 0  -4.025 0 0  -4.0125 0 0  -4 0 0  -3.9875 0 0  -3.975 0 0  -3.9625 0 0  -3.95 0 0  -3.9375 0 0  -3.925 0 0  -3.9125 0 0  -3.9 0 0  -3.8875 0 0  -3.875 0 0  -3.8625 0 0  -3.85 0 0  -3.8375 0 0  -3.825 0 0  -3.8125 0 0  -3.8 0 0  -3.7875 0 0  -3.775 0 0  -3.7625 0 0  -3.75 0 0  -3.7375 0 0  -3.725 0 0  -3.7125 0 0  -3.7 0 0  -3.6875 0 0  -3.675 0 0  -3.6625 0 0  -3.65 0 0  -3.6375 0 0  -3.625 0 0  -3.6125 0 0  -3.6 0 0  -3.5875 0 0  -3.575 0 0  -3.5625 0 0  -3.55 0 0  -3.5375 0 0  -3.525 0 0  -3.5125 0 0  -3.5 0 0  -3.4875 0 0  -3.475 0 0  -3.4625 0 0  -3.45 0 0  -3.4375 0 0  -3.425 0 0  -3.4125 0 0  -3.4 0 0  -3.3875 0 0  -3.375 0 0  -3.3625 0 0  -3.35 0 0  -3.3375 0 0  -3.325 0 0  -3.3125 0 0  -3.3 0 0  -3.2875 0 0  -3.275 0 0  -3.2625 0 0  -3.25 0 0  -3.2375 0 0  -3.225 0 0  -3.2125 0 0  -3.2 0 0  -3.1875 0 0  -3.175 0 0  -3.1625 0 0  -3.15 0 0  -3.1375 0 0  -3.125 0 0  -3.1125 0 0  -3.1 0 0  -3.0875 0 0  -3.075 0 0  -3.0625 0 0  -3.05 0 0  -3.0375 0 0  -3.025 0 0  -3.0125 0 0  -3 0 0  -2.9875 0 0  -2.975 0 0  -2.9625 0 0  -2.95 0 0  -2.9375 0 0  -2.925 0 0  -2.9125 0 0  -2.9 0 0  -2.8875 0 0  -2.875 0 0  -2.8625 0 0  -2.85 0 0  -2.8375 0 0  -2.825 0 0  -2.8125 0 0  -2.8 0 0  -2.7875 0 0  -2.775 0 0  -2.7625 0 0  -2.75 0 0  -2.7375 0 0  -2.725 0 0  -2.7125 0 0  -2.7 0 0  -2.6875 0 0  -2.675 0 0  -2.6625 0 0  -2.65 0 0  -2.6375 0 0  -2.625 0 0  -2.6125 0 0  -2.6 0 0  -2.5875 0 0  -2.575 0 0  -2.5625 0 0  -2.55 0 0  -2.5375 0 0  -2.525 0 0  -2.5125 0 0  -2.5 0 0  -2.4875 0 0  -2.475 0 0  -2.4625 0 0  -2.45 0 0  -2.4375 0 0  -2.425 0 0  -2.4125 0 0  -2.4 0 0  -2.3875 0 0  -2.375 0 0  -2.3625 0 0  -2.35 0 0  -2.3375 0 0  -2.325 0 0  -2.3125 0 0  -2.3 0 0  -2.2875 0 0  -2.275 0 0  -2.2625 0 0  -2.25 0 0  -2.2375 0 0  -2.225 0 0  -2.2125 0 0  -2.2 0 0  -2.1875 0 0  -2.175 0 0  -2.1625 0 0  -2.15 0 0  -2.1375 0 0  -2.125 0 0  -2.1125 0 0  -2.1 0 0  -2.0875 0 0  -2.075 0 0  -2.0625 0 0  -2.05 0 0  -2.0375 0 0  -2.025 0 0  -2.0125 0 0  -2 0 0  -1.9875 0 0  -1.975 0 0  -1.9625 0 0  -1.95 0 0  -1.9375 0 0  -1.925 0 0  -1.9125 0 0  -1.9 0 0  -1.8875 0 0  -1.875 0 0  -1.8625 0 0  -1.85 0 0  -1.8375 0 0  -1.825 0 0  -1.8125 0 0  -1.8 0 0  -1.7875 0 0  -1.775 0 0  -1.7625 0 0  -1.75 0 0  -1.7375 0 0  -1.725 0 0  -1.7125 0 0  -1.7 0 0  -1.6875 0 0  -1.675 0 0  -1.6625 0 0  -1.65 0 0  -1.6375 0 0  -1.625 0 0  -1.6125 0 0  -1.6 0 0  -1.5875 0 0  -1.575 0 0  -1.5625 0 0  -1.55 0 0  -1.5375 0 0  -1.525 0 0  -1.5125 0 0  -1.5 0 0  -1.4875 0 0  -1.475 0 0  -1.4625 0 0  -1.45 0 0  -1.4375 0 0  -1.425 0 0  -1.4125 0 0  -1.4 0 0  -1.3875 0 0  -1.375 0 0  -1.3625 0 0  -1.35 0 0  -1.3375 0 0  -1.325 0 0  -1.3125 0 0  -1.3 0 0  -1.2875 0 0  -1.275 0 0  -1.2625 0 0  -1.25 0 0  -1.2375 0 0  -1.225 0 0  -1.2125 0 0  -1.2 0 0  -1.1875 0 0  -1.175 0 0  -1.1625 0 0  -1.15 0 0  -1.1375 0 0  -1.125 0 0  -1.1125 0 0  -1.1 0 0  -1.0875 0 0  -1.075 0 0  -1.0625 0 0  -1.05 0 0  -1.0375 0 0  -1.025 0 0  -1.0125 0 0  -1 0 0  -0.9874999999999998 0 0  -0.9749999999999996 0 0  -0.9625000000000004 0 0  -0.9500000000000002 0 0  -0.9375 0 0  -0.9249999999999998 0 0  -0.9124999999999996 0 0  -0.9000000000000004 0 0  -0.8875000000000002 0 0  -0.875 0 0  -0.8624999999999998 0 0  -0.8499999999999996 0 0  -0.8375000000000004 0 0  -0.8250000000000002 0 0  -0.8125 0 0  -0.7999999999999998 0 0  -0.7874999999999996 0 0  -0.7750000000000004 0 0  -0.7625000000000002 0 0  -0.75 0 0  -0.7374999999999998 0 0  -0.7249999999999996 0 0  -0.7125000000000004 0 0  -0.7000000000000002 0 0  -0.6875 0 0  -0.6749999999999998 0 0  -0.6624999999999996 0 0  -0.6500000000000004 0 0  -0.6375000000000002 0 0  -0.625 0 0  -0.6124999999999998 0 0  -0.5999999999999996 0 0  -0.5875000000000004 0 0  -0.5750000000000002 0 0  -0.5625 0 0  -0.5499999999999998 0 0  -0.5374999999999996 0 0  -0.5250000000000004 0 0  -0.5125000000000002 0 0  -0.5 0 0  -0.4874999999999998 0 0  -0.4749999999999996 0 0  -0.4625000000000004 0 0  -0.4500000000000002 0 0  -0.4375 0 0  -0.4249999999999998 0 0  -0.4124999999999996 0 0  -0.4000000000000004 0 0  -0.3875000000000002 0 0  -0.375 0 0  -0.3624999999999998 0 0  -0.3499999999999996 0 0  -0.3375000000000004 0 0  -0.3250000000000002 0 0  -0.3125 0 0  -0.2999999999999998 0 0  -0.2874999999999996 0 0  -0.2750000000000004 0 0  -0.2625000000000002 0 0  -0.25 0 0  -0.2374999999999998 0 0  -0.2249999999999996 0 0  -0.2125000000000004 0 0  -0.2000000000000002 0 0  -0.1875 0 0  -0.1749999999999998 0 0  -0.1624999999999996 0 0  -0.1500000000000004 0 0  -0.1375000000000002 0 0  -0.125 0 0  -0.1124999999999998 0 0  -0.09999999999999964 0 0  -0.08750000000000036 0 0  -0.07500000000000018 0 0  -0.0625 0 0  -0.04999999999999982 0 0  -0.03749999999999964 0 0  -0.02500000000000036 0 0  -0.01250000000000018 0 0  0 0 0  0.01250000000000018 0 0  0.02500000000000036 0 0  0.03749999999999964 0 0  0.04999999999999982 0 0  0.0625 0 0  0.07500000000000018 0 0  0.08750000000000036 0 0  0.09999999999999964 0 0  0.1124999999999998 0 0  0.125 0 0  0.1375000000000002 0 0  0.1500000000000004 0 0  0.1624999999999996 0 0  0.1749999999999998 0 0  0.1875 0 0  0.2000000000000002 0 0  0.2125000000000004 0 0  0.2249999999999996 0 0  0.2374999999999998 0 0  0.25 0 0  0.2625000000000002 0 0  0.2750000000000004 0 0  0.2874999999999996 0 0  0.2999999999999998 0 0  0.3125 0 0  0.3250000000000002 0 0  0.3375000000000004 0 0  0.3499999999999996 0 0  0.3624999999999998 0 0  0.375 0 0  0.3875000000000002 0 0  0.4000000000000004 0 0  0.4124999999999996 0 0  0.4249999999999998 0 0  0.4375 0 0  0.4500000000000002 0 0  0.4625000000000004 0 0  0.4749999999999996 0 0  0.4874999999999998 0 0  0.5 0 0  0.5125000000000002 0 0  0.5250000000000004 0 0  0.5374999999999996 0 0  0.5499999999999998 0 0  0.5625 0 0  0.5750000000000002 0 0  0.5875000000000004 0 0  0.5999999999999996 0 0  0.6124999999999998 0 0  0.625 0 0  0.6375000000000002 0 0  0.6500000000000004 0 0  0.6624999999999996 0 0  0.6749999999999998 0 0  0.6875 0 0  0.7000000000000002 0 0  0.7125000000000004 0 0  0.7249999999999996 0 0  0.7374999999999998 0 0  0.75 0 0  0.7625000000000002 0 0  0.7750000000000004 0 0  0.7874999999999996 0 0  0.7999999999999998 0 0  0.8125 0 0  0.8250000000000002 0 0  0.8375000000000004 0 0  0.8499999999999996 0 0  0.8624999999999998 0 0  0.875 0 0  0.8875000000000002 0 0  0.9000000000000004 0 0  0.9124999999999996 0 0  0.9249999999999998 0 0  0.9375 0 0  0.9500000000000002 0 0  0.9625000000000004 0 0  0.9749999999999996 0 0  0.9874999999999998 0 0  1 0 0  1.0125 0 0  1.025 0 0  1.0375 0 0  1.05 0 0  1.0625 0 0  1.075 0 0  1.0875 0 0  1.1 0 0  1.1125 0 0  1.125 0 0  1.1375 0 0  1.15 0 0  1.1625 0 0  1.175 0 0  1.1875 0 0  1.2 0 0  1.2125 0 0  1.225 0 0  1.2375 0 0  1.25 0 0  1.2625 0 0  1.275 0 0  1.2875 0 0  1.3 0 0  1.3125 0 0  1.325 0 0  1.3375 0 0  1.35 0 0  1.3625 0 0  1.375 0 0  1.3875 0 0  1.4 0 0  1.4125 0 0  1.425 0 0  1.4375 0 0  1.45 0 0  1.4625 0 0  1.475 0 0  1.4875 0 0  1.5 0 0  1.5125 0 0  1.525 0 0  1.5375 0 0  1.55 0 0  1.5625 0 0  1.575 0 0  1.5875 0 0  1.6 0 0  1.6125 0 0  1.625 0 0  1.6375 0 0  1.65 0 0  1.6625 0 0  1.675 0 0  1.6875 0 0  1.7 0 0  1.7125 0 0  1.725 0 0  1.7375 0 0  1.75 0 0  1.7625 0 0  1.775 0 0  1.7875 0 0  1.8 0 0  1.8125 0 0  1.825 0 0  1.8375 0 0  1.85 0 0  1.8625 0 0  1.875 0 0  1.8875 0 0  1.9 0 0  1.9125 0 0  1.925 0 0  1.9375 0 0  1.95 0 0  1.9625 0 0  1.975 0 0  1.9875 0 0  2 0 0  2.0125 0 0  2.025 0 0  2.0375 0 0  2.05 0 0  2.0625 0 0  2.075 0 0  2.0875 0 0  2.1 0 0  2.1125 0 0  2.125 0 0  2.1375 0 0  2.15 0 0  2.1625 0 0  2.175 0 0  2.1875 0 0  2.2 0 0  2.2125 0 0  2.225 0 0  2.2375 0 0  2.25 0 0  2.2625 0 0  2.275 0 0  2.2875 0 0  2.3 0 0  2.3125 0 0  2.325 0 0  2.3375 0 0  2.35 0 0  2.3625 0 0  2.375 0 0  2.3875 0 0  2.4 0 0  2.4125 0 0  2.425 0 0  2.4375 0 0  2.45 0 0  2.4625 0 0  2.475 0 0  2.4875 0 0  2.5 0 0  2.5125 0 0  2.525 0 0  2.5375 0 0  2.55 0 0  2.5625 0 0  2.575 0 0  2.5875 0 0  2.6 0 0  2.6125 0 0  2.625 0 0  2.6375 0 0  2.65 0 0  2.6625 0 0  2.675 0 0  2.6875 0 0  2.7 0 0  2.7125 0 0  2.725 0 0  2.7375 0 0  2.75 0 0  2.7625 0 0  2.775 0 0  2.7875 0 0  2.8 0 0  2.8125 0 0  2.825 0 0  2.8375 0 0  2.85 0 0  2.8625 0 0  2.875 0 0  2.8875 0 0  2.9 0 0  2.9125 0 0  2.925 0 0  2.9375 0 0  2.95 0 0  2.9625 0 0  2.975 0 0  2.9875 0 0  3 0 0  3.012499999999999 0 0  3.025 0 0  3.0375 0 0  3.050000000000001 0 0  3.0625 0 0  3.074999999999999 0 0  3.0875 0 0  3.1 0 0  3.112500000000001 0 0  3.125 0 0  3.137499999999999 0 0  3.15 0 0  3.1625 0 0  3.175000000000001 0 0  3.1875 0 0  3.199999999999999 0 0  3.2125 0 0  3.225 0 0  3.237500000000001 0 0  3.25 0 0  3.262499999999999 0 0  3.275 0 0  3.2875 0 0  3.300000000000001 0 0  3.3125 0 0  3.324999999999999 0 0  3.3375 0 0  3.35 0 0  3.362500000000001 0 0  3.375 0 0  3.387499999999999 0 0  3.4 0 0  3.4125 0 0  3.425000000000001 0 0  3.4375 0 0  3.449999999999999 0 0  3.4625 0 0  3.475 0 0  3.4875
[...]
<PointData  Vectors="(h, u)"> 
<DataArray  type="Float64"  Name="(h, u)"  NumberOfComponents="3" format="ascii">5.5000000000000021e-02 0.0000000000000000e+00 0.0000000000000000e+00  5.5000000000000007e-02 -1.4439532980582634e-16 0.0000000000000000e+00  5.5000000000000021e-02 -6.6933724451117847e-17 0.0000000000000000e+00  5.5000000000000007e-02 -2.3972191956009115e-16 0.0000000000000000e+00  5.5000000000000028e-02 -1.2385289423895479e-17 0.0000000000000000e+00  5.5000000000000007e-02 -9.5974613916804963e-18 0.0000000000000000e+00  5.5000000000000028e-02 -2.2865406028932113e-16 0.0000000000000000e+00  5.5000000000000014e-02 -2.6552392266302288e-17 0.0000000000000000e+00  5.5000000000000028e-02 6.2191090456069388e-17 0.0000000000000000e+00  5.5000000000000014e-02 1.0819417976423631e-16 0.0000000000000000e+00  5.5000000000000021e-02 2.9902959061603827e-16 0.0000000000000000e+00  5.5000000000000007e-02 -1.2876180060052186e-16 0.0000000000000000e+00  5.5000000000000021e-02 1.0633936469739743e-16 0.0000000000000000e+00  5.5000000000000007e-02 3.1018556397731140e-18 0.0000000000000000e+00  5.5000000000000021e-02 1.6157169585344665e-17 0.0000000000000000e+00  5.5000000000000007e-02 7.3653097592807645e-17 0.0000000000000000e+00  5.5000000000000021e-02 -5.5237791652998495e-17 0.0000000000000000e+00  5.5000000000000007e-02 5.8217987938026892e-17 0.0000000000000000e+00  5.5000000000000021e-02 -4.7379809801040639e-16 0.0000000000000000e+00  5.5000000000000014e-02 -1.9008239294521841e-16 0.0000000000000000e+00  5.5000000000000028e-02 -3.5239053253651706e-16 0.0000000000000000e+00  5.5000000000000021e-02 1.8649747347682517e-16 0.0000000000000000e+00  5.5000000000000028e-02 -5.2196038917249440e-17 0.0000000000000000e+00  5.5000000000000021e-02 1.5994906582924266e-16 0.0000000000000000e+00  5.5000000000000028e-02 -1.2779496688052574e-16 0.0000000000000000e+00  5.5000000000000021e-02 2.2467672260722990e-16 0.0000000000000000e+00  5.5000000000000028e-02 -2.4890887126433941e-16 0.0000000000000000e+00  5.5000000000000028e-02 8.4237566508883364e-17 0.0000000000000000e+00  5.5000000000000014e-02 -7.5858739670599537e-17 0.0000000000000000e+00  5.5000000000000028e-02 1.6711298633101865e-16 0.0000000000000000e+00  5.5000000000000021e-02 7.9162484089956893e-17 0.0000000000000000e+00  5.5000000000000021e-02 -1.5665843470858726e-16 0.0000000000000000e+00  5.5000000000000028e-02 3.8981334663952651e-17 0.0000000000000000e+00  5.5000000000000007e-02 1.8026554208081067e-17 0.0000000000000000e+00  5.5000000000000028e-02 -3.9708381807612294e-17 0.0000000000000000e+00  5.5000000000000021e-02 1.7676770565224314e-16 0.0000000000000000e+00  5.5000000000000021e-02 -2.1605381437936559e-16 0.0000000000000000e+00  5.5000000000000028e-02 8.8128268754237791e-17 0.0000000000000000e+00  5.5000000000000007e-02 -2.6501536748066708e-18 0.0000000000000000e+00  5.5000000000000028e-02 -4.1481901965681096e-17 0.0000000000000000e+00  5.5000000000000021e-02 1.6561562949289027e-16 0.0000000000000000e+00  5.5000000000000021e-02 -1.9858377312188023e-16 0.0000000000000000e+00  5.5000000000000028e-02 -4.3322862902553392e-18 0.0000000000000000e+00  5.5000000000000014e-02 -4.1691096027125792e-18 0.0000000000000000e+00  5.5000000000000028e-02 5.4284764049477838e-17 0.0000000000000000e+00  5.5000000000000021e-02 1.4427994727511529e-16 0.0000000000000000e+00  5.5000000000000021e-02 -1.8339824899327309e-16 0.0000000000000000e+00  5.5000000000000028e-02 -1.5782118073829322e-17 0.0000000000000000e+00  5.5000000000000014e-02 2.7698569842746587e-18 0.0000000000000000e+00  5.5000000000000028e-02 4.8929965887552194e-17 0.0000000000000000e+00  5.5000000000000021e-02 1.5499758396291617e-16 0.0000000000000000e+00  5.5000000000000021e-02 -2.0461558228771589e-16 0.0000000000000000e+00  5.5000000000000028e-02 8.2047941519407103e-17 0.0000000000000000e+00  5.5000000000000007e-02 5.5677253803975082e-19 0.0000000000000000e+00  5.5000000000000028e-02 -4.3260762123778365e-17 0.0000000000000000e+00  5.5000000000000021e-02 1.6665655672915326e-16 0.0000000000000000e+00  5.5000000000000021e-02 -1.9833736477266305e-16 0.0000000000000000e+00  5.5000000000000028e-02 6.8526768845447520e-21 0.0000000000000000e+00  5.5000000000000014e-02 4.8779668986712428e-19 0.0000000000000000e+00  5.5000000000000028e-02 3.9403437495702305e-17 0.0000000000000000e+00  5.5000000000000021e-02 1.5715777953516152e-16 0.0000000000000000e+00  5.5000000000000021e-02 -2.0574878141407818e-16 0.0000000000000000e+00  5.5000000000000028e-02 2.8545079930249419e-17 0.0000000000000000e+00  5.5000000000000014e-02 -2.0294194641558154e-17 0.0000000000000000e+00  5.5000000000000028e-02 5.7484341908919546e-17 0.0000000000000000e+00  5.5000000000000021e-02 1.0118956974076743e-16 0.0000000000000000e+00  5.5000000000000021e-02 -4.4865881111903062e-17 0.0000000000000000e+00  5.5000000000000021e-02 -1.5185104220994568e-16 0.0000000000000000e+00  5.5000000000000021e-02 3.0552839379599662e-17 0.0000000000000000e+00  5.5000000000000021e-02 -5.3506784133368773e-17 0.0000000000000000e+00  5.5000000000000028e-02 1.5554941740738235e-16 0.0000000000000000e+00  5.5000000000000007e-02 2.0013270270870655e-16 0.0000000000000000e+00  5.5000000000000028e-02 -4.1949611572238875e-17 0.0000000000000000e+00  5.5000000000000007e-02 2.8044664657597149e-17 0.0000000000000000e+00  5.5000000000000028e-02 1.3322035029709084e-16 0.0000000000000000e+00  5.5000000000000000e-02 1.2722641551009797e-16 0.0000000000000000e+00  5.5000000000000042e-02 1.5326851878130530e-16 0.0000000000000000e+00  5.5000000000000021e-02 -2.8858024224833987e-16 0.0000000000000000e+00  5.5000000000000028e-02 2.2147062596628513e-16 0.0000000000000000e+00  5.5000000000000028e-02 -4.5450986424659424e-17 0.0000000000000000e+00  5.5000000000000014e-02 2.1048293454680605e-16 0.0000000000000000e+00  5.5000000000000007e-02 -1.3666734277394645e-17 0.0000000000000000e+00  5.5000000000000014e-02 7.5715975983930687e-18 0.0000000000000000e+00  5.5000000000000007e-02 -1.5073243767926666e-16 0.0000000000000000e+00  5.5000000000000028e-02 -4.7361361784547226e-20 0.0000000000000000e+00  5.5000000000000000e-02 -4.8296352353154415e-19 0.0000000000000000e+00  5.5000000000000028e-02 -3.6166379214344394e-16 0.0000000000000000e+00  5.5000000000000014e-02 1.1592468583038455e-17 0.0000000000000000e+00  5.5000000000000028e-02 -9.8152363121254312e-17 0.0000000000000000e+00  5.5000000000000014e-02 2.7137602803157541e-17 0.0000000000000000e+00  5.5000000000000028e-02 -1.6615725533162509e-16 0.0000000000000000e+00  5.5000000000000014e-02 2.5718910838326868e-16 0.0000000000000000e+00  5.5000000000000028e-02 1.8937537854190059e-16 0.0000000000000000e+00  5.5000000000000007e-02 -3.0935833512735583e-17 0.0000000000000000e+00  5.5000000000000035e-02 -2.2444051768126486e-16 0.0000000000000000e+00  5.5000000000000000e-02 1.6292047313512380e-16 0.0000000000000000e+00  5.5000000000000028e-02 -6.3822056968088884e-17 0.0000000000000000e+00  5.5000000000000028e-02 2.4688897474086264e-16 0.0000000000000000e+00  5.5000000000000049e-02 -3.9438338613309606e-17 0.0000000000000000e+00  5.5000000000000021e-02 -1.0136596404001425e-16 0.0000000000000000e+00  5.5000000000000014e-02 5.5947777400968172e-17 0.0000000000000000e+00  5.5000000000000014e-02 9.6173044828404655e-18 0.0000000000000000e+00  5.5000000000000028e-02 3.6080114555015140e-17 0.0000000000000000e+00  5.5000000000000028e-02 3.4348185409523648e-17 0.0000000000000000e+00  5.5000000000000021e-02 5.3683466107075940e-17 0.0000000000000000e+00  5.5000000000000007e-02 -8.1424875945973078e-17 0.0000000000000000e+00  5.5000000000000007e-02 -1.1692052567162983e-17 0.0000000000000000e+00  5.5000000000000028e-02 7.5567253249761806e-17 0.0000000000000000e+00  5.5000000000000028e-02 1.3778361723936705e-17 0.0000000000000000e+00  5.5000000000000014e-02 5.5868502077461417e-17 0.0000000000000000e+00  5.5000000000000007e-02 -2.0100720918945984e-16 0.0000000000000000e+00  5.5000000000000014e-02 3.9732032317737599e-17 0.0000000000000000e+00  5.5000000000000028e-02 7.3169647613190425e-17 0.0000000000000000e+00  5.5000000000000028e-02 3.7660655295778858e-17 0.0000000000000000e+00  5.5000000000000014e-02 4.7375277508646506e-17 0.0000000000000000e+00  5.5000000000000007e-02 -1.9626803205494801e-16 0.0000000000000000e+00  5.5000000000000014e-02 3.7205222198805679e-17 0.0000000000000000e+00  5.5000000000000028e-02 7.4453261403807069e-17 0.0000000000000000e+00  5.5000000000000028e-02 3.7026430376342177e-17 0.0000000000000000e+00  5.5000000000000014e-02 4.7682876622194928e-17 0.0000000000000000e+00  5.5000000000000007e-02 -1.9641505713882459e-16 0.0000000000000000e+00  5.5000000000000014e-02 3.7274634450658784e-17 0.0000000000000000e+00  5.5000000000000028e-02 7.4420841803903313e-17 0.0000000000000000e+00  5.5000000000000028e-02 3.7041428682544949e-17 0.0000000000000000e+00  5.5000000000000014e-02 4.7675996944814158e-17 0.0000000000000000e+00  5.5000000000000007e-02 -1.9641192581492489e-16 0.0000000000000000e+00  5.5000000000000014e-02 3.7273219325703588e-17 0.0000000000000000e+00  5.5000000000000028e-02 7.4421477109638950e-17 0.0000000000000000e+00  5.5000000000000028e-02 3.7041145245895041e-17 0.0000000000000000e+00  5.5000000000000014e-02 4.7676122644395843e-17 0.0000000000000000e+00  5.5000000000000007e-02 -1.9641198123845493e-16 0.0000000000000000e+00  5.5000000000000014e-02 3.7273243623944238e-17 0.0000000000000000e+00  5.5000000000000028e-02 7.4421466517768078e-17 0.0000000000000000e+00  5.5000000000000028e-02 3.7041149836194638e-17 0.0000000000000000e+00  5.5000000000000014e-02 4.7676120667041893e-17 0.0000000000000000e+00  5.5000000000000007e-02 -1.9641198039210431e-16 0.0000000000000000e+00  5.5000000000000014e-02 3.7273243264181011e-17 0.0000000000000000e+00  5.5000000000000028e-02 7.4421466669533995e-17 0.0000000000000000e+00  5.5000000000000028e-02 3.7041149772720535e-17 0.0000000000000000e+00  5.5000000000000014e-02 4.7676120693326313e-17 0.0000000000000000e+00  5.5000000000000007e-02 -1.9641198040286112e-16 0.0000000000000000e+00  5.5000000000000014e-02 3.7273243268520171e-17 0.0000000000000000e+00  5.5000000000000028e-02 7.4421466667815203e-17 0.0000000000000000e+00  5.5000000000000028e-02 3.7041149773385181e-17 0.0000000000000000e+00  5.5000000000000014e-02 4.7676120693077773e-17 0.0000000000000000e+00  5.5000000000000007e-02 -1.9641198040277257e-16 0.0000000000000000e+00  5.5000000000000014e-02 3.7273243268491187e-17 0.0000000000000000e+00  5.5000000000000028e-02 7.4421466667823239e-17 0.0000000000000000e+00  5.5000000000000028e-02 3.7041149773383856e-17 0.0000000000000000e+00  5.5000000000000014e-02 4.7676120693077372e-17 0.0000000000000000e+00  5.5000000000000007e-02 -1.9641198040277195e-16 0.0000000000000000e+00  5.5000000000000014e-02 3.7273243268490638e-17 0.0000000000000000e+00  5.5000000000000028e-02 7.4421466667823597e-17 0.0000000000000000e+00  5.5000000000000028e-02 3.7041149773383690e-17 0.0000000000000000e+00  5.5000000000000014e-02 4.7676120693077502e-17 0.0000000000000000e+00  5.5000000000000007e-02 -1.9641198040277188e-16 0.0000000000000000e+00  5.5000000000000014e-02 3.7273243268490688e-17 0.0000000000000000e+00  5.5000000000000028e-02 7.4421466667823683e-17 0.0000000000000000e+00  5.5000000000000028e-02 3.7041149773383641e-17 0.0000000000000000e+00  5.5000000000000014e-02 4.7676120693077489e-17 0.0000000000000000e+00  5.5000000000000007e-02 -1.9641198040277202e-16 0.0000000000000000e+00  5.5000000000000014e-02 3.7273243268490743e-17 0.0000000000000000e+00  5.5000000000000028e-02 7.4421466667823523e-17 0.0000000000000000e+00  5.5000000000000028e-02 3.7041149773383696e-17 0.0000000000000000e+00  5.5000000000000014e-02 4.7676120693077384e-17 0.0000000000000000e+00  5.5000000000000007e-02 -1.9641198040277188e-16 0.0000000000000000e+00  5.5000000000000014e-02 3.7273243268490571e-17 0.0000000000000000e+00  5.5000000000000028e-02 7.4421466667823535e-17 0.0000000000000000e+00  5.5000000000000028e-02 3.7041149773383665e-17 0.0000000000000000e+00  5.5000000000000014e-02 4.7676120693077471e-17 0.0000000000000000e+00  5.5000000000000007e-02 -1.9641198040277195e-16 0.0000000000000000e+00  5.5000000000000014e-02 3.7273243268490669e-17 0.0000000000000000e+00  5.5000000000000028e-02 7.4421466667823584e-17 0.0000000000000000e+00  5.5000000000000028e-02 3.7041149773383659e-17 0.0000000000000000e+00  5.5000000000000014e-02 4.7676120693077495e-17 0.0000000000000000e+00  5.5000000000000007e-02 -1.9641198040277195e-16 0.0000000000000000e+00  5.5000000000000014e-02 3.7273243268490638e-17 0.0000000000000000e+00  5.5000000000000028e-02 7.4421466667823609e-17 0.0000000000000000e+00  5.5000000000000028e-02 3.7041149773383647e-17 0.0000000000000000e+00  5.5000000000000014e-02 4.7676120693077489e-17 0.0000000000000000e+00  5.5000000000000007e-02 -1.9641198040277193e-16 0.0000000000000000e+00  5.5000000000000014e-02 3.7273243268490638e-17 0.0000000000000000e+00  5.5000000000000028e-02 7.4421466667823572e-17 0.0000000000000000e+00  5.5000000000000028e-02 3.7041149773383653e-17 0.0000000000000000e+00  5.5000000000000014e-02 4.7676120693077489e-17 0.0000000000000000e+00  5.5000000000000007e-02 -1.9641198040277193e-16 0.0000000000000000e+00  5.5000000000000014e-02 3.7273243268490657e-17 0.0000000000000000e+00  5.5000000000000028e-02 7.4421466667823572e-17 0.0000000000000000e+00  5.5000000000000028e-02 3.7041149773383653e-17 0.0000000000000000e+00  5.5000000000000014e-02 4.7676120693077502e-17 0.0000000000000000e+00  5.5000000000000007e-02 -1.9641198040277193e-16 0.0000000000000000e+00  5.5000000000000014e-02 3.7273243268490663e-17 0.0000000000000000e+00  5.5000000000000028e-02 7.4421466667823584e-17 0.0000000000000000e+00  5.5000000000000028e-02 3.7041149773383665e-17 0.0000000000000000e+00  5.5000000000000014e-02 4.7676120693077465e-17 0.0000000000000000e+00  5.5000000000000007e-02 -1.9641198040277195e-16 0.0000000000000000e+00  5.5000000000000014e-02 3.7273243268490657e-17 0.0000000000000000e+00  5.5000000000000028e-02 7.4421466667823572e-17 0.0000000000000000e+00  5.5000000000000028e-02 3.7041149773383647e-17 0.0000000000000000e+00  5.5000000000000014e-02 4.7676120693077471e-17 0.0000000000000000e+00  5.5000000000000007e-02 -1.9641198040277190e-16 0.0000000000000000e+00  5.5000000000000014e-02 3.7273243268490632e-17 0.0000000000000000e+00  5.5000000000000028e-02 7.4421466667823572e-17 0.0000000000000000e+00  5.5000000000000028e-02 3.7041149773383665e-17 0.0000000000000000e+00  5.5000000000000014e-02 4.7676120693077397e-17 0.0000000000000000e+00  5.5000000000000007e-02 -1.9641198040277202e-16 0.0000000000000000e+00  5.5000000000000014e-02 3.7273243268490632e-17 0.0000000000000000e+00  5.5000000000000028e-02 7.4421466667823560e-17 0.0000000000000000e+00  5.5000000000000028e-02 3.7041149773383678e-17 0.0000000000000000e+00  5.5000000000000014e-02 4.7676120693077465e-17 0.0000000000000000e+00  5.5000000000000007e-02 -1.9641198040277198e-16 0.0000000000000000e+00  5.5000000000000014e-02 3.7273243268490663e-17 0.0000000000000000e+00  5.5000000000000028e-02 7.4421466667823584e-17 0.0000000000000000e+00  5.5000000000000028e-02 3.7041149773383665e-17 0.0000000000000000e+00  5.5000000000000014e-02 4.7676120693077502e-17 0.0000000000000000e+00  5.5000000000000007e-02 -1.9641198040277188e-16 0.0000000000000000e+00  5.5000000000000014e-02 3.7273243268490546e-17 0.0000000000000000e+00  5.5000000000000028e-02 7.4421466667823671e-17 0.0000000000000000e+00  5.5000000000000028e-02 3.7041149773383296e-17 0.0000000000000000e+00  5.5000000000000014e-02 4.7676120693078340e-17 0.0000000000000000e+00  5.5000000000000007e-02 -1.9641198040277373e-16 0.0000000000000000e+00  5.5000000000000014e-02 3.7273243268494700e-17 0.0000000000000000e+00  5.5000000000000028e-02 7.4421466667814697e-17 0.0000000000000000e+00  5.5000000000000028e-02 3.7041149773403036e-17 0.0000000000000000e+00  5.5000000000000014e-02 4.7676120693035211e-17 0.0000000000000000e+00  5.5000000000000007e-02 -1.9641198040267983e-16 0.0000000000000000e+00  5.5000000000000014e-02 3.7273243268290261e-17 0.0000000000000000e+00  5.5000000000000028e-02 7.4421466668259097e-17 0.0000000000000000e+00  5.5000000000000028e-02 3.7041149772438382e-17 0.0000000000000000e+00  5.5000000000000014e-02 4.7676120695125668e-17 0.0000000000000000e+00  5.5000000000000007e-02 -1.9641198040720168e-16 0.0000000000000000e+00  5.5000000000000014e-02 3.7273243278052119e-17 0.0000000000000000e+00  5.5000000000000028e-02 7.4421466647231468e-17 0.0000000000000000e+00  5.5000000000000028e-02 3.7041149817621290e-17 0.0000000000000000e+00  5.5000000000000014e-02 4.7676120598307253e-17 0.0000000000000000e+00  5.5000000000000007e-02 -1.9641198020037886e-16 0.0000000000000000e+00  5.5000000000000014e-02 3.7273242837766396e-17 0.0000000000000000e+00  5.5000000000000028e-02 7.4421467580877586e-17 0.0000000000000000e+00  5.5000000000000028e-02 3.7041147846409423e-17 0.0000000000000000e+00  5.5000000000000014e-02 4.7676124739727171e-17 0.0000000000000000e+00  5.5000000000000007e-02 -1.9641198885316645e-16 0.0000000000000000e+00  5.5000000000000014e-02 3.7273260803109506e-17 0.0000000000000000e+00  5.5000000000000028e-02 7.4421430545688366e-17 0.0000000000000000e+00  5.5000000000000028e-02 3.7041223573268935e-17 0.0000000000000000e+00  5.5000000000000014e-02 4.7675971346264163e-17 0.0000000000000000e+00  5.5000000000000007e-02 -1.9641168150685453e-16 0.0000000000000000e+00  5.5000000000000014e-02 3.7272652825681739e-17 0.0000000000000000e+00  5.5000000000000028e-02 7.4422615001945609e-17 0.0000000000000000e+00  5.5000000000000028e-02 3.7038958405350279e-17 0.0000000000000000e+00  5.5000000000000014e-02 4.7680204408919681e-17 0.0000000000000000e+00  5.5000000000000007e-02 -1.9641936018847717e-16 0.0000000000000000e+00  5.5000000000000014e-02 3.7286032758267148e-17 0.0000000000000000e+00  5.5000000000000028e-02 7.4400620214243736e-17 0.0000000000000000e+00  5.5000000000000028e-02 3.7071866184318000e-17 0.0000000000000000e+00  5.5000000000000014e-02 4.7639303120569453e-17 0.0000000000000000e+00  5.5000000000000007e-02 -1.9639167041458488e-16 0.0000000000000000e+00  5.5000000000000014e-02 3.7344601332716569e-17 0.0000000000000000e+00  5.5000000000000028e-02 7.4042265902598590e-17 0.0000000000000000e+00  5.5000000000000028e-02 3.8387389688086939e-17 0.0000000000000000e+00  5.5000000000000014e-02 4.2565697298194095e-17 0.0000000000000000e+00  5.5000000000000007e-02 -1.6586452902837262e-16 0.0000000000000000e+00  5.5000000000000007e-02 6.9718062140668538e-17 0.0000000000000000e+00  5.5000000000000028e-02 -9.0287874126149856e-17 0.0000000000000000e+00  5.5000000000000042e-02 -7.1794164944210419e-17 0.0000000000000000e+00  5.5000000000000028e-02 1.7027492383319341e-17 0.0000000000000000e+00  5.5000000000000014e-02 1.8138779913494605e-16 0.0000000000000000e+00  5.5000000000000007e-02 -3.1605469553472396e-17 0.0000000000000000e+00  5.5000000000000028e-02 1.8455848000341714e-17 0.0000000000000000e+00  5.5000000000000021e-02 4.0122218227668756e-17 0.0000000000000000e+00  5.5000000000000028e-02 -1.7043260657702031e-16 0.0000000000000000e+00  5.5000000000000014e-02 3.0361503453192892e-17 0.0000000000000000e+00  5.5000000000000021e-02 3.1390631808294292e-17 0.0000000000000000e+00  5.5000000000000021e-02 1.0118210019943169e-16 0.0000000000000000e+00  5.5000000000000049e-02 7.9347731407914089e-17 0.0000000000000000e+00  5.5000000000000014e-02 -7.2564237196460071e-17 0.0000000000000000e+00  5.5000000000000007e-02 2.3758710727731311e-16 0.0000000000000000e+00  5.5000000000000007e-02 -2.9220800417839193e-16 0.0000000000000000e+00  5.5000000000000049e-02 6.2594274633963269e-17 0.0000000000000000e+00  5.5000000000000021e-02 -9.2057242219846331e-17 0.0000000000000000e+00  5.5000000000000028e-02 2.7059784866002631e-16 0.0000000000000000e+00  5.4999999999999986e-02 -1.6827164434111413e-16 0.0000000000000000e+00  5.5000000000000028e-02 -1.9629553791304256e-16 0.0000000000000000e+00  5.5000000000000063e-02 -8.0657805573857944e-16 0.00000000