<?xml version="1.0"?>
<VTKFile type="UnstructuredGrid"  version="0.1"  >
<UnstructuredGrid>
<Piece  NumberOfPoints="801" NumberOfCells="800">
<Points>
<DataArray  type="Float64"  NumberOfComponents="3"  format="ascii">-5 0 0  -4.9875 0 0  -4.975 0 0  -4.9625 0 0  -4.95 0 0  -4.9375 0 0  -4.925 0 0  -4.9125 0 0  -4.9 0 0  -4.8875 0 0  -4.875 0 0  -4.8625 0 0  -4.85 0 0  -4.8375 0 0  -4.825 0 0  -4.8125 0 0  -4.8 0 0  -4.7875 0 0  -4.775 0 0  -4.7625 0 0  -4.75 0 0  -4.7375 0 0  -4.725 0 0  -4.7125 0 0  -4.7 0 0  -4.6875 0 0  -4.675 0 0  -4.6625 0 0  -4.65 0 0  -4.6375 0 0  -4.625 0 0  -4.6125 0 0  -4.6 0 0  -4.5875 0 0  -4.575 0 0  -4.5625 0 0  -4.55 0 0  -4.5375 0 0  -4.525 0 0  -4.5125 0 0  -4.5 0 0  -4.4875 0 0  -4.475 0 0  -4.4625 0 0  -4.45 0 0  -4.4375 0 0  -4.425 0 0  -4.4125 0 0  -4.4 0 0  -4.3875 0 0  -4.375 0 0  -4.3625 0 0  -4.35 0 0  -4.3375 0 0  -4.325 0 0  -4.3125 0 0  -4.3 0 0  -4.2875 0 0  -4.275 0 0  -4.2625 0 0  -4.25 0 0  -4.2375 0 0  -4.225 0 0  -4.2125 0 0  -4.2 0 0  -4.1875 0 0  -4.175 0 0  -4.1625 0 0  -4.15 0 0  -4.1375 0 0  -4.125 0 0  -4.1125 0 0  -4.1 0 0  -4.0875 0 0  -4.075 0 0  -4.0625 0 0  -4.05 0 0  -4.0375 0 0  -4.025 0 0  -4.0125 0 0  -4 0 0  -3.9875 0 0  -3.975 0 0  -3.9625 0 0  -3.95 0 0  -3.9375 0 0  -3.925 0 0  -3.9125 0 0  -3.9 0 0  -3.8875 0 0  -3.875 0 0  -3.8625 0 0  -3.85 0 0  -3.8375 0 0  -3.825 0 0  -3.8125 0 0  -3.8 0 0  -3.7875 0 0  -3.775 0 0  -3.7625 0 0  -3.75 0 0  -3.7375 0 0  -3.725 0 0  -3.7125 0 0  -3.7 0 0  -3.6875 0 0  -3.675 0 0  -3.6625 0 0  -3.65 0 0  -3.6375 0 0  -3.625 0 0  -3.6125 0 0  -3.6 0 0  -3.5875 0 0  -3.575 0 0  -3.5625 0 0  -3.55 0 0  -3.5375 0 0  -3.525 0 0  -3.5125 0 0  -3.5 0 0  -3.4875 0 0  -3.475 0 0  -3.4625 0 0  -3.45 0 0  -3.4375 0 0  -3.425 0 0  -3.4125 0 0  -3.4 0 0  -3.3875 0 0  -3.375 0 0  -3.3625 0 0  -3.35 0 0  -3.3375 0 0  -3.325 0 0  -3.3125 0 0  -3.3 0 0  -3.2875 0 0  -3.275 0 0  -3.2625 0 0  -3.25 0 0  -3.2375 0 0  -3.225 0 0  -3.2125 0 0  -3.2 0 0  -3.1875 0 0  -3.175 0 0  -3.1625 0 0  -3.15 0 0  -3.1375 0 0  -3.125 0 0  -3.1125 0 0  -3.1 0 0  -3.0875 0 0  -3.075 0 0  -3.0625 0 0  -3.05 0 0  -3.0375 0 0  -3.025 0 0  -3.0125 0 0  -3 0 0  -2.9875 0 0  -2.975 0 0  -2.9625 0 0  -2.95 0 0  -2.9375 0 0  -2.925 0 0  -2.9125 0 0  -2.9 0 0  -2.8875 0 0  -2.875 0 0  -2.8625 0 0  -2.85 0 0  -2.8375 0 0  -2.825 0 0  -2.8125 0 0  -2.8 0 0  -2.7875 0 0  -2.775 0 0  -2.7625 0 0  -2.75 0 0  -2.7375 0 0  -2.725 0 0  -2.7125 0 0  -2.7 0 0  -2.6875 0 0  -2.675 0 0  -2.6625 0 0  -2.65 0 0  -2.6375 0 0  -2.625 0 0  -2.6125 0 0  -2.6 0 0  -2.5875 0 0  -2.575 0 0  -2.5625 0 0  -2.55 0 0  -2.5375 0 0  -2.525 0 0  -2.5125 0 0  -2.5 0 0  -2.4875 0 0  -2.475 0 0  -2.4625 0 0  -2.45 0 0  -2.4375 0 0  -2.425 0 0  -2.4125 0 0  -2.4 0 0  -2.3875 0 0  -2.375 0 0  -2.3625 0 0  -2.35 0 0  -2.3375 0 0  -2.325 0 0  -2.3125 0 0  -2.3 0 0  -2.2875 0 0  -2.275 0 0  -2.2625 0 0  -2.25 0 0  -2.2375 0 0  -2.225 0 0  -2.2125 0 0  -2.2 0 0  -2.1875 0 0  -2.175 0 0  -2.1625 0 0  -2.15 0 0  -2.1375 0 0  -2.125 0 0  -2.1125 0 0  -2.1 0 0  -2.0875 0 0  -2.075 0 0  -2.0625 0 0  -2.05 0 0  -2.0375 0 0  -2.025 0 0  -2.0125 0 0  -2 0 0  -1.9875 0 0  -1.975 0 0  -1.9625 0 0  -1.95 0 0  -1.9375 0 0  -1.925 0 0  -1.9125 0 0  -1.9 0 0  -1.8875 0 0  -1.875 0 0  -1.8625 0 0  -1.85 0 0  -1.8375 0 0  -1.825 0 0  -1.8125 0 0  -1.8 0 0  -1.7875 0 0  -1.775 0 0  -1.7625 0 0  -1.75 0 0  -1.7375 0 0  -1.725 0 0  -1.7125 0 0  -1.7 0 0  -1.6875 0 0  -1.675 0 0  -1.6625 0 0  -1.65 0 0  -1.6375 0 0  -1.625 0 0  -1.6125 0 0  -1.6 0 0  -1.5875 0 0  -1.575 0 0  -1.5625 0 0  -1.55 0 0  -1.5375 0 0  -1.525 0 0  -1.5125 0 0  -1.5 0 0  -1.4875 0 0  -1.475 0 0  -1.4625 0 0  -1.45 0 0  -1.4375 0 0  -1.425 0 0  -1.4125 0 0  -1.4 0 0  -1.3875 0 0  -1.375 0 0  -1.3625 0 0  -1.35 0 0  -1.3375 0 0  -1.325 0 0  -1.3125 0 0  -1.3 0 0  -1.2875 0 0  -1.275 0 0  -1.2625 0 0  -1.25 0 0  -1.2375 0 0  -1.225 0 0  -1.2125 0 0  -1.2 0 0  -1.1875 0 0  -1.175 0 0  -1.1625 0 0  -1.15 0 0  -1.1375 0 0  -1.125 0 0  -1.1125 0 0  -1.1 0 0  -1.0875 0 0  -1.075 0 0  -1.0625 0 0  -1.05 0 0  -1.0375 0 0  -1.025 0 0  -1.0125 0 0  -1 0 0  -0.9874999999999998 0 0  -0.9749999999999996 0 0  -0.9625000000000004 0 0  -0.9500000000000002 0 0  -0.9375 0 0  -0.9249999999999998 0 0  -0.9124999999999996 0 0  -0.9000000000000004 0 0  -0.8875000000000002 0 0  -0.875 0 0  -0.8624999999999998 0 0  -0.8499999999999996 0 0  -0.8375000000000004 0 0  -0.8250000000000002 0 0  -0.8125 0 0  -0.7999999999999998 0 0  -0.7874999999999996 0 0  -0.7750000000000004 0 0  -0.7625000000000002 0 0  -0.75 0 0  -0.7374999999999998 0 0  -0.7249999999999996 0 0  -0.7125000000000004 0 0  -0.7000000000000002 0 0  -0.6875 0 0  -0.6749999999999998 0 0  -0.6624999999999996 0 0  -0.6500000000000004 0 0  -0.6375000000000002 0 0  -0.625 0 0  -0.6124999999999998 0 0  -0.5999999999999996 0 0  -0.5875000000000004 0 0  -0.5750000000000002 0 0  -0.5625 0 0  -0.5499999999999998 0 0  -0.5374999999999996 0 0  -0.5250000000000004 0 0  -0.5125000000000002 0 0  -0.5 0 0  -0.4874999999999998 0 0  -0.4749999999999996 0 0  -0.4625000000000004 0 0  -0.4500000000000002 0 0  -0.4375 0 0  -0.4249999999999998 0 0  -0.4124999999999996 0 0  -0.4000000000000004 0 0  -0.3875000000000002 0 0  -0.375 0 0  -0.3624999999999998 0 0  -0.3499999999999996 0 0  -0.3375000000000004 0 0  -0.3250000000000002 0 0  -0.3125 0 0  -0.2999999999999998 0 0  -0.2874999999999996 0 0  -0.2750000000000004 0 0  -0.2625000000000002 0 0  -0.25 0 0  -0.2374999999999998 0 0  -0.2249999999999996 0 0  -0.2125000000000004 0 0  -0.2000000000000002 0 0  -0.1875 0 0  -0.1749999999999998 0 0  -0.1624999999999996 0 0  -0.1500000000000004 0 0  -0.1375000000000002 0 0  -0.125 0 0  -0.1124999999999998 0 0  -0.09999999999999964 0 0  -0.08750000000000036 0 0  -0.07500000000000018 0 0  -0.0625 0 0  -0.04999999999999982 0 0  -0.03749999999999964 0 0  -0.02500000000000036 0 0  -0.01250000000000018 0 0  0 0 0  0.01250000000000018 0 0  0.02500000000000036 0 0  0.03749999999999964 0 0  0.04999999999999982 0 0  0.0625 0 0  0.07500000000000018 0 0  0.08750000000000036 0 0  0.09999999999999964 0 0  0.1124999999999998 0 0  0.125 0 0  0.1375000000000002 0 0  0.1500000000000004 0 0  0.1624999999999996 0 0  0.1749999999999998 0 0  0.1875 0 0  0.2000000000000002 0 0  0.2125000000000004 0 0  0.2249999999999996 0 0  0.2374999999999998 0 0  0.25 0 0  0.2625000000000002 0 0  0.2750000000000004 0 0  0.2874999999999996 0 0  0.2999999999999998 0 0  0.3125 0 0  0.3250000000000002 0 0  0.3375000000000004 0 0  0.3499999999999996 0 0  0.3624999999999998 0 0  0.375 0 0  0.3875000000000002 0 0  0.4000000000000004 0 0  0.4124999999999996 0 0  0.4249999999999998 0 0  0.4375 0 0  0.4500000000000002 0 0  0.4625000000000004 0 0  0.4749999999999996 0 0  0.4874999999999998 0 0  0.5 0 0  0.5125000000000002 0 0  0.5250000000000004 0 0  0.5374999999999996 0 0  0.5499999999999998 0 0  0.5625 0 0  0.5750000000000002 0 0  0.5875000000000004 0 0  0.5999999999999996 0 0  0.6124999999999998 0 0  0.625 0 0  0.6375000000000002 0 0  0.6500000000000004 0 0  0.6624999999999996 0 0  0.6749999999999998 0 0  0.6875 0 0  0.7000000000000002 0 0  0.7125000000000004 0 0  0.7249999999999996 0 0  0.7374999999999998 0 0  0.75 0 0  0.7625000000000002 0 0  0.7750000000000004 0 0  0.7874999999999996 0 0  0.7999999999999998 0 0  0.8125 0 0  0.8250000000000002 0 0  0.8375000000000004 0 0  0.8499999999999996 0 0  0.8624999999999998 0 0  0.875 0 0  0.8875000000000002 0 0  0.9000000000000004 0 0  0.9124999999999996 0 0  0.9249999999999998 0 0  0.9375 0 0  0.9500000000000002 0 0  0.9625000000000004 0 0  0.9749999999999996 0 0  0.9874999999999998 0 0  1 0 0  1.0125 0 0  1.025 0 0  1.0375 0 0  1.05 0 0  1.0625 0 0  1.075 0 0  1.0875 0 0  1.1 0 0  1.1125 0 0  1.125 0 0  1.1375 0 0  1.15 0 0  1.1625 0 0  1.175 0 0  1.1875 0 0  1.2 0 0  1.2125 0 0  1.225 0 0  1.2375 0 0  1.25 0 0  1.2625 0 0  1.275 0 0  1.2875 0 0  1.3 0 0  1.3125 0 0  1.325 0 0  1.3375 0 0  1.35 0 0  1.3625 0 0  1.375 0 0  1.3875 0 0  1.4 0 0  1.4125 0 0  1.425 0 0  1.4375 0 0  1.45 0 0  1.4625 0 0  1.475 0 0  1.4875 0 0  1.5 0 0  1.5125 0 0  1.525 0 0  1.5375 0 0  1.55 0 0  1.5625 0 0  1.575 0 0  1.5875 0 0  1.6 0 0  1.6125 0 0  1.625 0 0  1.6375 0 0  1.65 0 0  1.6625 0 0  1.675 0 0  1.6875 0 0  1.7 0 0  1.7125 0 0  1.725 0 0  1.7375 0 0  1.75 0 0  1.7625 0 0  1.775 0 0  1.7875 0 0  1.8 0 0  1.8125 0 0  1.825 0 0  1.8375 0 0  1.85 0 0  1.8625 0 0  1.875 0 0  1.8875 0 0  1.9 0 0  1.9125 0 0  1.925 0 0  1.9375 0 0  1.95 0 0  1.9625 0 0  1.975 0 0  1.9875 0 0  2 0 0  2.0125 0 0  2.025 0 0  2.0375 0 0  2.05 0 0  2.0625 0 0  2.075 0 0  2.0875 0 0  2.1 0 0  2.1125 0 0  2.125 0 0  2.1375 0 0  2.15 0 0  2.1625 0 0  2.175 0 0  2.1875 0 0  2.2 0 0  2.2125 0 0  2.225 0 0  2.2375 0 0  2.25 0 0  2.2625 0 0  2.275 0 0  2.2875 0 0  2.3 0 0  2.3125 0 0  2.325 0 0  2.3375 0 0  2.35 0 0  2.3625 0 0  2.375 0 0  2.3875 0 0  2.4 0 0  2.4125 0 0  2.425 0 0  2.4375 0 0  2.45 0 0  2.4625 0 0  2.475 0 0  2.4875 0 0  2.5 0 0  2.5125 0 0  2.525 0 0  2.5375 0 0  2.55 0 0  2.5625 0 0  2.575 0 0  2.5875 0 0  2.6 0 0  2.6125 0 0  2.625 0 0  2.6375 0 0  2.65 0 0  2.6625 0 0  2.675 0 0  2.6875 0 0  2.7 0 0  2.7125 0 0  2.725 0 0  2.7375 0 0  2.75 0 0  2.7625 0 0  2.775 0 0  2.7875 0 0  2.8 0 0  2.8125 0 0  2.825 0 0  2.8375 0 0  2.85 0 0  2.8625 0 0  2.875 0 0  2.8875 0 0  2.9 0 0  2.9125 0 0  2.925 0 0  2.9375 0 0  2.95 0 0  2.9625 0 0  2.975 0 0  2.9875 0 0  3 0 0  3.012499999999999 0 0  3.025 0 0  3.0375 0 0  3.050000000000001 0 0  3.0625 0 0  3.074999999999999 0 0  3.0875 0 0  3.1 0 0  3.112500000000001 0 0  3.125 0 0  3.137499999999999 0 0  3.15 0 0  3.1625 0 0  3.175000000000001 0 0  3.1875 0 0  3.199999999999999 0 0  3.2125 0 0  3.225 0 0  3.237500000000001 0 0  3.25 0 0  3.262499999999999 0 0  3.275 0 0  3.2875 0 0  3.300000000000001 0 0  3.3125 0 0  3.324999999999999 0 0  3.3375 0 0  3.35 0 0  3.362500000000001 0 0  3.375 0 0  3.387499999999999 0 0  3.4 0 0  3.4125 0 0  3.425000000000001 0 0  3.4375 0 0  3.449999999999999 0 0  3.4625 0 0  3.475 0 0  3.4875
[...]
<PointData  Vectors="(h, u)"> 
<DataArray  type="Float64"  Name="(h, u)"  NumberOfComponents="3" format="ascii">3.1000513007426733e-01 0.0000000000000000e+00 0.0000000000000000e+00  3.1010379830529672e-01 8.2795531936111100e-03 0.0000000000000000e+00  3.1000122420324017e-01 1.6561821813344296e-02 0.0000000000000000e+00  3.1009593091570509e-01 2.4838963928686206e-02 0.0000000000000000e+00  3.0998950495620820e-01 3.3124254303261047e-02 0.0000000000000000e+00  3.1008019317084690e-01 4.1399288071947260e-02 0.0000000000000000e+00  3.0996996742898214e-01 4.9687909035991372e-02 0.0000000000000000e+00  3.1005657911933598e-01 5.7961135765322372e-02 0.0000000000000000e+00  3.0994260344024488e-01 6.6253399343260272e-02 0.0000000000000000e+00  3.1002507978706090e-01 7.4525118962966680e-02 0.0000000000000000e+00  3.0990740151363261e-01 8.2821341223233411e-02 0.0000000000000000e+00  3.0998568312653479e-01 9.1091852196952372e-02 0.0000000000000000e+00  3.0986434684786063e-01 9.9392354239320496e-02 0.0000000000000000e+00  3.0993837396625445e-01 1.0766195332723788e-01 0.0000000000000000e+00  3.0981342127485761e-01 1.1596706240062957e-01 0.0000000000000000e+00  3.0988313395885791e-01 1.2423604431867839e-01 0.0000000000000000e+00  3.0975460319525705e-01 1.3254609509011220e-01 0.0000000000000000e+00  3.0981994153318931e-01 1.4081475203159990e-01 0.0000000000000000e+00  3.0968786751185157e-01 1.4913008793562529e-01 0.0000000000000000e+00  3.0974877187003164e-01 1.5739870891178059e-01 0.0000000000000000e+00  3.0961318556204426e-01 1.6571968364582323e-01 0.0000000000000000e+00  3.0966959687509832e-01 1.7398855372306155e-01 0.0000000000000000e+00  3.0953052504253614e-01 1.8231553288706123e-01 0.0000000000000000e+00  3.0958238517533609e-01 1.9058493216159386e-01 0.0000000000000000e+00  3.0943984998377233e-01 1.9891829491706653e-01 0.0000000000000000e+00  3.0948710214561514e-01 2.0718849728721001e-01 0.0000000000000000e+00  3.0934112072425940e-01 2.1552863829955732e-01 0.0000000000000000e+00  3.0938370989880359e-01 2.2379991011910388e-01 0.0000000000000000e+00  3.0923429391186330e-01 2.3214724158454358e-01 0.0000000000000000e+00  3.0927216733732854e-01 2.4041983982113291e-01 0.0000000000000000e+00  3.0911932257359004e-01 2.4877479372314995e-01 0.0000000000000000e+00  3.0915243014375693e-01 2.5704896417859502e-01 0.0000000000000000e+00  3.0899615605922254e-01 2.6541199524746739e-01 0.0000000000000000e+00  3.0902445070220169e-01 2.7368797048146937e-01 0.0000000000000000e+00  3.0886474004199166e-01 2.8205955904996460e-01 0.0000000000000000e+00  3.0888817807882707e-01 2.9033755619531376e-01 0.0000000000000000e+00  3.0872501630776900e-01 2.9871821212521105e-01 0.0000000000000000e+00  3.0874355764253680e-01 3.0699843182948311e-01 0.0000000000000000e+00  3.0857692228374367e-01 3.1538869849070789e-01 0.0000000000000000e+00  3.0859053080214743e-01 3.2367132321876996e-01 0.0000000000000000e+00  3.0842039065553661e-01 3.3207178144299310e-01 0.0000000000000000e+00  3.0842903436411695e-01 3.4035697573733931e-01 0.0000000000000000e+00  3.0825534830294427e-01 3.4876824974300491e-01 0.0000000000000000e+00  3.0825899964430536e-01 3.5705615937248791e-01 0.0000000000000000e+00  3.0808171587506872e-01 3.6547892048844316e-01 0.0000000000000000e+00  3.0808035210139628e-01 3.7376967024078728e-01 0.0000000000000000e+00  3.0789940694712120e-01 3.8220464452747821e-01 0.0000000000000000e+00  3.0789301014438603e-01 3.9049833648015769e-01 0.0000000000000000e+00  3.0770832775001988e-01 3.9894630831792494e-01 0.0000000000000000e+00  3.0769688611248419e-01 4.0724301230793508e-01 0.0000000000000000e+00  3.0750837813506321e-01 4.1570482788433866e-01 0.0000000000000000e+00  3.0749188629339363e-01 4.2400457853597462e-01 0.0000000000000000e+00  3.0729945143738530e-01 4.3248114786697389e-01 0.0000000000000000e+00  3.0727791329366899e-01 4.4078393075421723e-01 0.0000000000000000e+00  3.0708143802975679e-01 4.4927621939243007e-01 0.0000000000000000e+00  3.0705486798248788e-01 4.5758196983645838e-01 0.0000000000000000e+00  3.0685422418270686e-01 4.6609100569226419e-01 0.0000000000000000e+00  3.0682264940285847e-01 4.7439960226388789e-01 0.0000000000000000e+00  3.0661769554631263e-01 4.8292646442422665e-01 0.0000000000000000e+00  3.0658115626685523e-01 4.9123772897575563e-01 0.0000000000000000e+00  3.0637173208288748e-01 4.9978358130534972e-01 0.0000000000000000e+00  3.0633027808958097e-01 5.0809729117328006e-01 0.0000000000000000e+00  3.0611620613491286e-01 5.1666338695795244e-01 0.0000000000000000e+00  3.0606989571792736e-01 5.2497926446154386e-01 0.0000000000000000e+00  3.0585097413595647e-01 5.3356700696168780e-01 0.0000000000000000e+00  3.0579986498950362e-01 5.4188475355745702e-01 0.0000000000000000e+00  3.0557587093866917e-01 5.5049569094608986e-01 0.0000000000000000e+00  3.0552002816137791e-01 5.5881493683210581e-01 0.0000000000000000e+00  3.0529071272437319e-01 5.6745078690279527e-01 0.0000000000000000e+00  3.0523020261154943e-01 5.7577114404821705e-01 0.0000000000000000e+00  3.0499529821633092e-01 5.8443372316145137e-01 0.0000000000000000e+00  3.0493021714188440e-01 5.9275466207216920e-01 0.0000000000000000e+00  3.0468943594092557e-01 6.0144584896437570e-01 0.0000000000000000e+00  3.0461989848508364e-01 6.0976681193259341e-01 0.0000000000000000e+00  3.0437293706805829e-01 6.1848848298002557e-01 0.0000000000000000e+00  3.0429911118242614e-01 6.2680870750790829e-01 0.0000000000000000e+00  3.0404564026446673e-01 6.3556279462186693e-01 0.0000000000000000e+00  3.0396769132891066e-01 6.4388160413720674e-01 0.0000000000000000e+00  3.0370735023407913e-01 6.5267018065837712e-01 0.0000000000000000e+00  3.0362547300937764e-01 6.6098672161025196e-01 0.0000000000000000e+00  3.0335784794988169e-01 6.6981222592270551e-01 0.0000000000000000e+00  3.0327216778079907e-01 6.7812591966672053e-01 0.0000000000000000e+00  3.0299682215651214e-01 6.8699108542292231e-01 0.0000000000000000e+00  3.0290749864750038e-01 6.9530095774411294e-01 0.0000000000000000e+00  3.0262395038896456e-01 7.0420898645762164e-01 0.0000000000000000e+00  3.0253108092536368e-01 7.1251422266208875e-01 0.0000000000000000e+00  3.0223892703222172e-01 7.2146800940522360e-01 0.0000000000000000e+00  3.0214274787860451e-01 7.2976693597965092e-01 0.0000000000000000e+00  3.0184149693085388e-01 7.3876984386388389e-01 0.0000000000000000e+00  3.0174220991730544e-01 7.4706113296970378e-01 0.0000000000000000e+00  3.0143149533565794e-01 7.5611554407546544e-01 0.0000000000000000e+00  3.0132938131562009e-01 7.6439779077417869e-01 0.0000000000000000e+00  3.0100844332834603e-01 7.7350788055762854e-01 0.0000000000000000e+00  3.0090374563320971e-01 7.8178037221391206e-01 0.0000000000000000e+00  3.0057203290037660e-01 7.9094867518247258e-01 0.0000000000000000e+00  3.0046481915018686e-01 7.9921207106109937e-01 0.0000000000000000e+00  3.0012131107309076e-01 8.0844358086577173e-01 0.0000000000000000e+00  3.0001215851612639e-01 8.1669565721738402e-01 0.0000000000000000e+00  2.9965635577603517e-01 8.2599259692435312e-01 0.0000000000000000e+00  2.9954512874139211e-01 8.3423476837352906e-01 0.0000000000000000e+00  2.9917652983858878e-01 8.4360003369906567e-01 0.0000000000000000e+00  2.9906419607094953e-01 8.5182656701749537e-01 0.0000000000000000e+00  2.9868170643879266e-01 8.6126741883661084e-01 0.0000000000000000e+00  2.9856757896011599e-01 8.6948103555505596e-01 0.0000000000000000e+00  2.9817154749087221e-01 8.7899746396287859e-01 0.0000000000000000e+00  2.9805549696676414e-01 8.8719683155146378e-01 0.0000000000000000e+00  2.9764357837777589e-01 8.9680488169476846e-01 0.0000000000000000e+00  2.9752661277869230e-01 9.0498199605243890e-01 0.0000000000000000e+00  2.9709994531253064e-01 9.1467717912095625e-01 0.0000000000000000e+00  2.9697969679783010e-01 9.2284495933055355e-01 0.0000000000000000e+00  2.9653780076023417e-01 9.3262942866737442e-01 0.0000000000000000e+00  2.9641818486874155e-01 9.4076817618344899e-01 0.0000000000000000e+00  2.9595625767605815e-01 9.5066554085794952e-01 0.0000000000000000e+00  2.9583527957817601e-01 9.5879127399777297e-01 0.0000000000000000e+00  2.9535843626020425e-01 9.6877009106736089e-01 0.0000000000000000e+00  2.9523188824442509e-01 9.7690426446168921e-01 0.0000000000000000e+00  2.9473544349684033e-01 9.8700172827575372e-01 0.0000000000000000e+00  2.9461285168863122e-01 9.9507398190465546e-01 0.0000000000000000e+00  2.9409344463479248e-01 1.0053232513560617e+00 0.0000000000000000e+00  2.9396529150930811e-01 1.0133923510048062e+00 0.0000000000000000e+00  2.9343441767739936e-01 1.0236861782938622e+00 0.0000000000000000e+00  2.9330090538321335e-01 1.0318459262164454e+00 0.0000000000000000e+00  2.9273065653491442e-01 1.0422008936371683e+00 0.0000000000000000e+00  2.9263109381247182e-01 1.0503760119449668e+00 0.0000000000000000e+00  2.9200186730931543e-01 1.0608442781230671e+00 0.0000000000000000e+00  2.9190590427643853e-01 1.0690371416863154e+00 0.0000000000000000e+00  2.9130478964654466e-01 1.0796701581458332e+00 0.0000000000000000e+00  2.9108967330103097e-01 1.0876003564044643e+00 0.0000000000000000e+00  2.9061970040053775e-01 1.0990550448410752e+00 0.0000000000000000e+00  2.9024806825968202e-01 1.1059560179764747e+00 0.0000000000000000e+00  2.8982263034759287e-01 1.1185196648780467e+00 0.0000000000000000e+00  2.8955808533043731e-01 1.1254219074628184e+00 0.0000000000000000e+00  2.8870042062106582e-01 1.1360907489478280e+00 0.0000000000000000e+00  2.8920490689730116e-01 1.1478799813961569e+00 0.0000000000000000e+00  2.8722217173953213e-01 1.1513349224190805e+00 0.0000000000000000e+00  2.8881613656246347e-01 1.1709137707910251e+00 0.0000000000000000e+00  2.8636251546202629e-01 1.1708431487865372e+00 0.0000000000000000e+00  2.8673622302195001e-01 1.1837574588192001e+00 0.0000000000000000e+00  2.8813171737959575e-01 1.2072576007802585e+00 0.0000000000000000e+00  2.8143023256623612e-01 1.1769415568396318e+00 0.0000000000000000e+00  2.9202639286171683e-01 1.2574470469251480e+00 0.0000000000000000e+00  2.7699808738200965e-01 1.1751951948697201e+00 0.0000000000000000e+00  2.8869193505539825e-01 1.2675955370785394e+00 0.0000000000000000e+00  2.8684916478314471e-01 1.2583145589426024e+00 0.0000000000000000e+00  2.6037783946259446e-01 1.1344037219818801e+00 0.0000000000000000e+00  3.0687527195514136e-01 1.3811471171286176e+00 0.0000000000000000e+00  9.6563829724131578e-02 -1.7618322713288004e-02 0.0000000000000000e+00  4.6501198577272716e-02 -1.4943260194314709e+00 0.0000000000000000e+00  5.2252651990923660e-02 -1.0012578977247184e+00 0.0000000000000000e+00  5.1804470668425438e-02 -1.1687504793157339e+00 0.0000000000000000e+00  5.0423854682175272e-02 -1.1209160711884656e+00 0.0000000000000000e+00  5.0602071031335336e-02 -1.1345324103904046e+00 0.0000000000000000e+00  4.9452068779221620e-02 -1.1348863156119995e+00 0.0000000000000000e+00  4.9603353903043733e-02 -1.1359093201317974e+00 0.0000000000000000e+00  4.8319617268719063e-02 -1.1377375202745175e+00 0.0000000000000000e+00  4.8630341012167164e-02 -1.1403157896862366e+00 0.0000000000000000e+00  4.7221952998970348e-02 -1.1406602071376233e+00 0.0000000000000000e+00  4.7618060477191942e-02 -1.1443692776871441e+00 0.0000000000000000e+00  4.6170428659813682e-02 -1.1441337613113052e+00 0.0000000000000000e+00  4.6598937180395081e-02 -1.1480844860497081e+00 0.0000000000000000e+00  4.5155576659166002e-02 -1.1476777020322535e+00 0.0000000000000000e+00  4.5603888235787142e-02 -1.1514704181034385e+00 0.0000000000000000e+00  4.4183644074425842e-02 -1.1509024059792206e+00 0.0000000000000000e+00  4.4655762145539422e-02 -1.1543347634398131e+00 0.0000000000000000e+00  4.3269861810052872e-02 -1.1534850285394755e+00 0.0000000000000000e+00  4.3773558146992124e-02 -1.1564070088753020e+00 0.0000000000000000e+00  4.2430355609168191e-02 -1.1551418683039865e+00 0.0000000000000000e+00  4.2972149071227164e-02 -1.1574372149521472e+00 0.0000000000000000e+00  4.1676911502578587e-02 -1.1556584638436156e+00 0.0000000000000000e+00  4.2260061274462683e-02 -1.1572598577266291e+00 0.0000000000000000e+00  4.1014306897455430e-02 -1.1549243161761178e+00 0.0000000000000000e+00  4.1638446967127256e-02 -1.1558202569183473e+00 0.0000000000000000e+00  4.0440270897903183e-02 -1.1529382122325000e+00 0.0000000000000000e+00  4.1102197377634521e-02 -1.1531632927894309e+00 0.0000000000000000e+00  3.9947411829779234e-02 -1.1497830331709118e+00 0.0000000000000000e+00  4.0642346442054687e-02 -1.1493994293243899e+00 0.0000000000000000e+00  3.9525759944879051e-02 -1.1455883488406604e+00 0.0000000000000000e+00  4.0248469346015447e-02 -1.1446683846521153e+00 0.0000000000000000e+00  3.9164839983272144e-02 -1.1404981074428444e+00 0.0000000000000000e+00  3.9910346514089701e-02 -1.1391126440759656e+00 0.0000000000000000e+00  3.8854910134759071e-02 -1.1346502240739540e+00 0.0000000000000000e+00  3.9618823470170858e-02 -1.1328628608131677e+00 0.0000000000000000e+00  3.8587498700430607e-02 -1.1281668801168163e+00 0.0000000000000000e+00  3.9366102146123350e-02 -1.1260320839004336e+00 0.0000000000000000e+00  3.8355507991359922e-02 -1.1211517382702734e+00 0.0000000000000000e+00  3.9145720616569436e-02 -1.1187150580512211e+00 0.0000000000000000e+00  3.8153106699463438e-02 -1.1136907336030162e+00 0.0000000000000000e+00  3.8952398437825733e-02 -1.1109898771737485e+00 0.0000000000000000e+00  3.7975545411830069e-02 -1.1058543188999355e+00 0.0000000000000000e+00  3.8781845154900775e-02 -1.1029204328597240e+00 0.0000000000000000e+00  3.7818963319167620e-02 -1.0977000441263247e+00 0.0000000000000000e+00  3.8630577125321239e-02 -1.0945588988545909e+00 0.0000000000000000e+00  3.7680214782484150e-02 -1.0892749657728145e+00 0.0000000000000000e+00  3.8495759312444616e-02 -1.0859479432886265e+00 0.0000000000000000e+00  3.7556724411898529e-02 -1.0806177066791307e+00 0.0000000000000000e+00  3.8375075156805112e-02 -1.0771225835748632e+00 0.0000000000000000e+00  3.7446370371703314e-02 -1.0717601393373031e+00 0.0000000000000000e+00  3.8266622077053357e-02 -1.0681116963618815e+00 0.0000000000000000e+00  3.7347392278508945e-02 -1.0627287280412037e+00 0.0000000000000000e+00  3.8168828437792179e-02 -1.0589392298474771e+00 0.0000000000000000e+00  3.7258319275058814e-02 -1.0535455846705211e+00 0.0000000000000000e+00  3.8080387775513515e-02 -1.0496251722105254e+00 0.0000000000000000e+00  3.7177914124564643e-02 -1.0442292936612825e+00 0.0000000000000000e+00  3.8000206643768464e-02 -1.0401863249048635e+00 0.0000000000000000e+00  3.7105129776326178e-02 -1.0347955554703001e+00 0.0000000000000000e+00  3.7927363150803868e-02 -1.0306369210328747e+00 0.0000000000000000e+00  3.7039075504955041e-02 -1.0252576897744725e+00 0.0000000000000000e+00  3.7861073923371617e-02 -1.0209891204275772e+00 0.0000000000000000e+00  3.6978990312655724e-02 -1.0156270318525209e+00 0.0000000000000000e+00  3.7800667775020391e-02 -1.0112534057201383e+00 0.0000000000000000e+00  3.6924221779730246e-02 -1.0059132487488520e+00 0.0000000000000000e+00  3.7745564775186896e-02 -1.0014388979231865e+00 0.0000000000000000e+00  3.6874208958338338e-02 -9.9612459599327563e-01 0.0000000000000000e+00  3.7695259722200156e-02 -9.9155360580888097e-01 0.0000000000000000e+00  3.6828468238429911e-02 -9.8626813080189191e-01 0.0000000000000000e+00  3.7649309237812636e-02 -9.8160462039465490e-01 0.0000000000000000e+00  3.6786581397454672e-02 -9.7634989349184431e-01 0.0000000000000000e+00  3.7607321836255092e-02 -9.7159826401984140e-01 0.0000000000000000e+00  3.6748185271982557e-02 -9.6637506544338014e-01 0.0000000000000000e+00  3.7568950430312609e-02 -9.6154020198533219e-01 0.0000000000000000e+00  3.6712962668326979e-02 -9.5634810923676894e-01 0.0000000000000000e+00  3.7533886763783060e-02 -9.5143552448216540e-01 0.0000000000000000e+00  3.6680634334122809e-02 -9.4627289341222454e-01 0.0000000000000000e+00  3.7501857310512594e-02 -9.4128880584587160e-01 0.0000000000000000e+00  3.6650951804103542e-02 -9.3615280456324534e-01 0.0000000000000000e+00  3.7472620316083949e-02 -9.3110414607158876e-01 0.0000000000000000e+00  3.6623691175212497e-02 -9.2599084562340606e-01 0.0000000000000000e+00  3.7445963299057652e-02 -9.2088520541125263e-01 0.0000000000000000e+00  3.6598648018880582e-02 -9.1578971679912946e-01 0.0000000000000000e+00  3.7421701068430117e-02 -9.1063523092579024e-01 0.0000000000000000e+00  3.6575632665955919e-02 -9.0555189149429216e-01 0.0000000000000000e+00  3.7399674085995545e-02 -9.0035707762919215e-01 0.0000000000000000e+00  3.6554467429383009e-02 -8.9527966159495598e-01 0.0000000000000000e+00  3.7379744866657419e-02 -8.9005326148898378e-01 0.0000000000000000e+00  3.6534985305970574e-02 -8.8497515959484629e-01 0.0000000000000000e+00  3.7361796951053593e-02 -8.7972597056639512e-01 0.0000000000000000e+00  3.6517025217290291e-02 -8.7464043802716873e-01 0.0000000000000000e+00  3.7345733493286216e-02 -8.6937708239745859e-01 0.0000000000000000e+00  3.6500437085872361e-02 -8.6427738901131035e-01 0.0000000000000000e+00  3.7331463212067657e-02 -8.5900838620170050e-01 0.0000000000000000e+00  3.6485087673145983e-02 -8.5388765251086163e-01 0.0000000000000000e+00  3.7318909108203353e-02 -8.4862143479650820e-01 0.0000000000000000e+00  3.6470835214678372e-02 -8.4347303452006506e-01 0.0000000000000000e+00  3.7308018563487991e-02 -8.3821737487648207e-01 0.0000000000000000e+00  3.6457562927832456e-02 -8.3303496320108750e-01 0.0000000000000000e+00  3.7298682704081931e-02 -8.2779825053845102e-01 0.0000000000000000e+00  3.6445242791164643e-02 -8.2257345388491832e-01 0.0000000000000000e+00  3.7290773755641514e-02 -8.1736638611813139e-01 0.0000000000000000e+00  3.6433765130613603e-02 -8.1208990099438960e-01 0.0000000000000000e+00  3.7284336575298165e-02 -8.0692126894531346e-01 0.0000000000000000e+00  3.6422945533801050e-02 -8.0158696310510968e-01 0.0000000000000000e+00  3.7279214567708975e-02 -7.9646562959256273e-01 0.0000000000000000e+00  3.6413155336510065e-02 -7.9105826751413788e-01 0.0000000000000000e+00  3.7274609909847670e-02 -7.8601256608087755e-01 0.0000000000000000e+00  3.6404996732984578e-02 -7.8049375573310775e-01 0.0000000000000000e+00  3.7270382807405612e-02 -7.7556439446723402e-01 0.0000000000000000e+00  3.6397588750470750e-02 -7.6990769280303362e-01 0.0000000000000000e+00  3.7267899200133375e-02 -7.6509891105399386e-01 0.0000000000000000e+00  3.6389951318393746e-02 -7.5931597021966812e-01 0.0000000000000000e+00  3.7265978264508240e-02 -7.5463532674735712e-01 0.0000000000000000e+00  3.6386439772452643e-02 -7.4864732739001494e-01 0.0000000000000000e+00  3.7256921566486113e-02 -7.4429867807575301e-01 0.0000000000000000e+00  3.6395872934162132e-02 -7.3775790954297216e-01 0.0000000000000000e+00  3.7234212536458845e-02 -7.3419440550965476e-01 0.0000000000000000e+00  3.6417963730157085e-02 -7.2665320472002803e-01 0.0000000000000000e+00  3.7207882510385731e-02 -7.2415856535888457e-01 0.0000000000000000e+00  3.6432153499718296e-02 -7.1566979570553391e-01 0.0000000000000000e+00  3.7206310662439103e-02 -7.1372902719594400e-01 0.0000000000000000e+00  3.6407303701367799e-02 -7.0531604997346353e-01 0.0000000000000000e+00  3.7256696529698805e-02 -7.0246407922796528e-01 0.0000000000000000e+00  3.6326293871047334e-02 -6.9587073685452583e-01 0.0000000000000000e+00  3.7361871241508270e-02 -6.9032015801202951e-01 0.0000000000000000e+00  3.6202105500580270e-02 -6.8712115950702812e-01 0.0000000000000000e+00  3.7495813386661456e-02 -6.7772283961755331e-01 0.0000000000000000e+00  3.6069317932810971e-02 -6.7850165156465947e-01 0.0000000000000000e+00  3.7622327406721244e-02 -6.6526034336231321e-01 0.0000000000000000e+00  3.5959866787829614e-02 -6.6948954671733818e-01 0.0000000000000000e+00  3.7717506167855346e-02 -6.5331851239567773e-01 0.0000000000000000e+00  3.5887407348500426e-02 -6.5986185383872853e-01 0.0000000000000000e+00  3.7776365303926362e-02 -6.4197520543686049e-01 0.0000000000000000e+00  3.5849369364447450e-02 -6.4966219326797081e-01 0.0000000000000000e+00  3.7805759386488953e-02 -6.3111672255485196e-01 0.0000000000000000e+00  3.5836292414