<?xml version="1.0"?>
<VTKFile type="UnstructuredGrid"  version="0.1"  >
<UnstructuredGrid>
<Piece  NumberOfPoints="801" NumberOfCells="800">
<Points>
<DataArray  type="Float64"  NumberOfComponents="3"  format="ascii">-5 0 0  -4.9875 0 0  -4.975 0 0  -4.9625 0 0  -4.95 0 0  -4.9375 0 0  -4.925 0 0  -4.9125 0 0  -4.9 0 0  -4.8875 0 0  -4.875 0 0  -4.8625 0 0  -4.85 0 0  -4.8375 0 0  -4.825 0 0  -4.8125 0 0  -4.8 0 0  -4.7875 0 0  -4.775 0 0  -4.7625 0 0  -4.75 0 0  -4.7375 0 0  -4.725 0 0  -4.7125 0 0  -4.7 0 0  -4.6875 0 0  -4.675 0 0  -4.6625 0 0  -4.65 0 0  -4.6375 0 0  -4.625 0 0  -4.6125 0 0  -4.6 0 0  -4.5875 0 0  -4.575 0 0  -4.5625 0 0  -4.55 0 0  -4.5375 0 0  -4.525 0 0  -4.5125 0 0  -4.5 0 0  -4.4875 0 0  -4.475 0 0  -4.4625 0 0  -4.45 0 0  -4.4375 0 0  -4.425 0 0  -4.4125 0 0  -4.4 0 0  -4.3875 0 0  -4.375 0 0  -4.3625 0 0  -4.35 0 0  -4.3375 0 0  -4.325 0 0  -4.3125 0 0  -4.3 0 0  -4.2875 0 0  -4.275 0 0  -4.2625 0 0  -4.25 0 0  -4.2375 0 0  -4.225 0 0  -4.2125 0 0  -4.2 0 0  -4.1875 0 0  -4.175 0 0  -4.1625 0 0  -4.15 0 0  -4.1375 0 0  -4.125 0 0  -4.1125 0 0  -4.1 0 0  -4.0875 0 0  -4.075 0 0  -4.0625 0 0  -4.05 0 0  -4.0375 0 0  -4.025 0 0  -4.0125 0 0  -4 0 0  -3.9875 0 0  -3.975 0 0  -3.9625 0 0  -3.95 0 0  -3.9375 0 0  -3.925 0 0  -3.9125 0 0  -3.9 0 0  -3.8875 0 0  -3.875 0 0  -3.8625 0 0  -3.85 0 0  -3.8375 0 0  -3.825 0 0  -3.8125 0 0  -3.8 0 0  -3.7875 0 0  -3.775 0 0  -3.7625 0 0  -3.75 0 0  -3.7375 0 0  -3.725 0 0  -3.7125 0 0  -3.7 0 0  -3.6875 0 0  -3.675 0 0  -3.6625 0 0  -3.65 0 0  -3.6375 0 0  -3.625 0 0  -3.6125 0 0  -3.6 0 0  -3.5875 0 0  -3.575 0 0  -3.5625 0 0  -3.55 0 0  -3.5375 0 0  -3.525 0 0  -3.5125 0 0  -3.5 0 0  -3.4875 0 0  -3.475 0 0  -3.4625 0 0  -3.45 0 0  -3.4375 0 0  -3.425 0 0  -3.4125 0 0  -3.4 0 0  -3.3875 0 0  -3.375 0 0  -3.3625 0 0  -3.35 0 0  -3.3375 0 0  -3.325 0 0  -3.3125 0 0  -3.3 0 0  -3.2875 0 0  -3.275 0 0  -3.2625 0 0  -3.25 0 0  -3.2375 0 0  -3.225 0 0  -3.2125 0 0  -3.2 0 0  -3.1875 0 0  -3.175 0 0  -3.1625 0 0  -3.15 0 0  -3.1375 0 0  -3.125 0 0  -3.1125 0 0  -3.1 0 0  -3.0875 0 0  -3.075 0 0  -3.0625 0 0  -3.05 0 0  -3.0375 0 0  -3.025 0 0  -3.0125 0 0  -3 0 0  -2.9875 0 0  -2.975 0 0  -2.9625 0 0  -2.95 0 0  -2.9375 0 0  -2.925 0 0  -2.9125 0 0  -2.9 0 0  -2.8875 0 0  -2.875 0 0  -2.8625 0 0  -2.85 0 0  -2.8375 0 0  -2.825 0 0  -2.8125 0 0  -2.8 0 0  -2.7875 0 0  -2.775 0 0  -2.7625 0 0  -2.75 0 0  -2.7375 0 0  -2.725 0 0  -2.7125 0 0  -2.7 0 0  -2.6875 0 0  -2.675 0 0  -2.6625 0 0  -2.65 0 0  -2.6375 0 0  -2.625 0 0  -2.6125 0 0  -2.6 0 0  -2.5875 0 0  -2.575 0 0  -2.5625 0 0  -2.55 0 0  -2.5375 0 0  -2.525 0 0  -2.5125 0 0  -2.5 0 0  -2.4875 0 0  -2.475 0 0  -2.4625 0 0  -2.45 0 0  -2.4375 0 0  -2.425 0 0  -2.4125 0 0  -2.4 0 0  -2.3875 0 0  -2.375 0 0  -2.3625 0 0  -2.35 0 0  -2.3375 0 0  -2.325 0 0  -2.3125 0 0  -2.3 0 0  -2.2875 0 0  -2.275 0 0  -2.2625 0 0  -2.25 0 0  -2.2375 0 0  -2.225 0 0  -2.2125 0 0  -2.2 0 0  -2.1875 0 0  -2.175 0 0  -2.1625 0 0  -2.15 0 0  -2.1375 0 0  -2.125 0 0  -2.1125 0 0  -2.1 0 0  -2.0875 0 0  -2.075 0 0  -2.0625 0 0  -2.05 0 0  -2.0375 0 0  -2.025 0 0  -2.0125 0 0  -2 0 0  -1.9875 0 0  -1.975 0 0  -1.9625 0 0  -1.95 0 0  -1.9375 0 0  -1.925 0 0  -1.9125 0 0  -1.9 0 0  -1.8875 0 0  -1.875 0 0  -1.8625 0 0  -1.85 0 0  -1.8375 0 0  -1.825 0 0  -1.8125 0 0  -1.8 0 0  -1.7875 0 0  -1.775 0 0  -1.7625 0 0  -1.75 0 0  -1.7375 0 0  -1.725 0 0  -1.7125 0 0  -1.7 0 0  -1.6875 0 0  -1.675 0 0  -1.6625 0 0  -1.65 0 0  -1.6375 0 0  -1.625 0 0  -1.6125 0 0  -1.6 0 0  -1.5875 0 0  -1.575 0 0  -1.5625 0 0  -1.55 0 0  -1.5375 0 0  -1.525 0 0  -1.5125 0 0  -1.5 0 0  -1.4875 0 0  -1.475 0 0  -1.4625 0 0  -1.45 0 0  -1.4375 0 0  -1.425 0 0  -1.4125 0 0  -1.4 0 0  -1.3875 0 0  -1.375 0 0  -1.3625 0 0  -1.35 0 0  -1.3375 0 0  -1.325 0 0  -1.3125 0 0  -1.3 0 0  -1.2875 0 0  -1.275 0 0  -1.2625 0 0  -1.25 0 0  -1.2375 0 0  -1.225 0 0  -1.2125 0 0  -1.2 0 0  -1.1875 0 0  -1.175 0 0  -1.1625 0 0  -1.15 0 0  -1.1375 0 0  -1.125 0 0  -1.1125 0 0  -1.1 0 0  -1.0875 0 0  -1.075 0 0  -1.0625 0 0  -1.05 0 0  -1.0375 0 0  -1.025 0 0  -1.0125 0 0  -1 0 0  -0.9874999999999998 0 0  -0.9749999999999996 0 0  -0.9625000000000004 0 0  -0.9500000000000002 0 0  -0.9375 0 0  -0.9249999999999998 0 0  -0.9124999999999996 0 0  -0.9000000000000004 0 0  -0.8875000000000002 0 0  -0.875 0 0  -0.8624999999999998 0 0  -0.8499999999999996 0 0  -0.8375000000000004 0 0  -0.8250000000000002 0 0  -0.8125 0 0  -0.7999999999999998 0 0  -0.7874999999999996 0 0  -0.7750000000000004 0 0  -0.7625000000000002 0 0  -0.75 0 0  -0.7374999999999998 0 0  -0.7249999999999996 0 0  -0.7125000000000004 0 0  -0.7000000000000002 0 0  -0.6875 0 0  -0.6749999999999998 0 0  -0.6624999999999996 0 0  -0.6500000000000004 0 0  -0.6375000000000002 0 0  -0.625 0 0  -0.6124999999999998 0 0  -0.5999999999999996 0 0  -0.5875000000000004 0 0  -0.5750000000000002 0 0  -0.5625 0 0  -0.5499999999999998 0 0  -0.5374999999999996 0 0  -0.5250000000000004 0 0  -0.5125000000000002 0 0  -0.5 0 0  -0.4874999999999998 0 0  -0.4749999999999996 0 0  -0.4625000000000004 0 0  -0.4500000000000002 0 0  -0.4375 0 0  -0.4249999999999998 0 0  -0.4124999999999996 0 0  -0.4000000000000004 0 0  -0.3875000000000002 0 0  -0.375 0 0  -0.3624999999999998 0 0  -0.3499999999999996 0 0  -0.3375000000000004 0 0  -0.3250000000000002 0 0  -0.3125 0 0  -0.2999999999999998 0 0  -0.2874999999999996 0 0  -0.2750000000000004 0 0  -0.2625000000000002 0 0  -0.25 0 0  -0.2374999999999998 0 0  -0.2249999999999996 0 0  -0.2125000000000004 0 0  -0.2000000000000002 0 0  -0.1875 0 0  -0.1749999999999998 0 0  -0.1624999999999996 0 0  -0.1500000000000004 0 0  -0.1375000000000002 0 0  -0.125 0 0  -0.1124999999999998 0 0  -0.09999999999999964 0 0  -0.08750000000000036 0 0  -0.07500000000000018 0 0  -0.0625 0 0  -0.04999999999999982 0 0  -0.03749999999999964 0 0  -0.02500000000000036 0 0  -0.01250000000000018 0 0  0 0 0  0.01250000000000018 0 0  0.02500000000000036 0 0  0.03749999999999964 0 0  0.04999999999999982 0 0  0.0625 0 0  0.07500000000000018 0 0  0.08750000000000036 0 0  0.09999999999999964 0 0  0.1124999999999998 0 0  0.125 0 0  0.1375000000000002 0 0  0.1500000000000004 0 0  0.1624999999999996 0 0  0.1749999999999998 0 0  0.1875 0 0  0.2000000000000002 0 0  0.2125000000000004 0 0  0.2249999999999996 0 0  0.2374999999999998 0 0  0.25 0 0  0.2625000000000002 0 0  0.2750000000000004 0 0  0.2874999999999996 0 0  0.2999999999999998 0 0  0.3125 0 0  0.3250000000000002 0 0  0.3375000000000004 0 0  0.3499999999999996 0 0  0.3624999999999998 0 0  0.375 0 0  0.3875000000000002 0 0  0.4000000000000004 0 0  0.4124999999999996 0 0  0.4249999999999998 0 0  0.4375 0 0  0.4500000000000002 0 0  0.4625000000000004 0 0  0.4749999999999996 0 0  0.4874999999999998 0 0  0.5 0 0  0.5125000000000002 0 0  0.5250000000000004 0 0  0.5374999999999996 0 0  0.5499999999999998 0 0  0.5625 0 0  0.5750000000000002 0 0  0.5875000000000004 0 0  0.5999999999999996 0 0  0.6124999999999998 0 0  0.625 0 0  0.6375000000000002 0 0  0.6500000000000004 0 0  0.6624999999999996 0 0  0.6749999999999998 0 0  0.6875 0 0  0.7000000000000002 0 0  0.7125000000000004 0 0  0.7249999999999996 0 0  0.7374999999999998 0 0  0.75 0 0  0.7625000000000002 0 0  0.7750000000000004 0 0  0.7874999999999996 0 0  0.7999999999999998 0 0  0.8125 0 0  0.8250000000000002 0 0  0.8375000000000004 0 0  0.8499999999999996 0 0  0.8624999999999998 0 0  0.875 0 0  0.8875000000000002 0 0  0.9000000000000004 0 0  0.9124999999999996 0 0  0.9249999999999998 0 0  0.9375 0 0  0.9500000000000002 0 0  0.9625000000000004 0 0  0.9749999999999996 0 0  0.9874999999999998 0 0  1 0 0  1.0125 0 0  1.025 0 0  1.0375 0 0  1.05 0 0  1.0625 0 0  1.075 0 0  1.0875 0 0  1.1 0 0  1.1125 0 0  1.125 0 0  1.1375 0 0  1.15 0 0  1.1625 0 0  1.175 0 0  1.1875 0 0  1.2 0 0  1.2125 0 0  1.225 0 0  1.2375 0 0  1.25 0 0  1.2625 0 0  1.275 0 0  1.2875 0 0  1.3 0 0  1.3125 0 0  1.325 0 0  1.3375 0 0  1.35 0 0  1.3625 0 0  1.375 0 0  1.3875 0 0  1.4 0 0  1.4125 0 0  1.425 0 0  1.4375 0 0  1.45 0 0  1.4625 0 0  1.475 0 0  1.4875 0 0  1.5 0 0  1.5125 0 0  1.525 0 0  1.5375 0 0  1.55 0 0  1.5625 0 0  1.575 0 0  1.5875 0 0  1.6 0 0  1.6125 0 0  1.625 0 0  1.6375 0 0  1.65 0 0  1.6625 0 0  1.675 0 0  1.6875 0 0  1.7 0 0  1.7125 0 0  1.725 0 0  1.7375 0 0  1.75 0 0  1.7625 0 0  1.775 0 0  1.7875 0 0  1.8 0 0  1.8125 0 0  1.825 0 0  1.8375 0 0  1.85 0 0  1.8625 0 0  1.875 0 0  1.8875 0 0  1.9 0 0  1.9125 0 0  1.925 0 0  1.9375 0 0  1.95 0 0  1.9625 0 0  1.975 0 0  1.9875 0 0  2 0 0  2.0125 0 0  2.025 0 0  2.0375 0 0  2.05 0 0  2.0625 0 0  2.075 0 0  2.0875 0 0  2.1 0 0  2.1125 0 0  2.125 0 0  2.1375 0 0  2.15 0 0  2.1625 0 0  2.175 0 0  2.1875 0 0  2.2 0 0  2.2125 0 0  2.225 0 0  2.2375 0 0  2.25 0 0  2.2625 0 0  2.275 0 0  2.2875 0 0  2.3 0 0  2.3125 0 0  2.325 0 0  2.3375 0 0  2.35 0 0  2.3625 0 0  2.375 0 0  2.3875 0 0  2.4 0 0  2.4125 0 0  2.425 0 0  2.4375 0 0  2.45 0 0  2.4625 0 0  2.475 0 0  2.4875 0 0  2.5 0 0  2.5125 0 0  2.525 0 0  2.5375 0 0  2.55 0 0  2.5625 0 0  2.575 0 0  2.5875 0 0  2.6 0 0  2.6125 0 0  2.625 0 0  2.6375 0 0  2.65 0 0  2.6625 0 0  2.675 0 0  2.6875 0 0  2.7 0 0  2.7125 0 0  2.725 0 0  2.7375 0 0  2.75 0 0  2.7625 0 0  2.775 0 0  2.7875 0 0  2.8 0 0  2.8125 0 0  2.825 0 0  2.8375 0 0  2.85 0 0  2.8625 0 0  2.875 0 0  2.8875 0 0  2.9 0 0  2.9125 0 0  2.925 0 0  2.9375 0 0  2.95 0 0  2.9625 0 0  2.975 0 0  2.9875 0 0  3 0 0  3.012499999999999 0 0  3.025 0 0  3.0375 0 0  3.050000000000001 0 0  3.0625 0 0  3.074999999999999 0 0  3.0875 0 0  3.1 0 0  3.112500000000001 0 0  3.125 0 0  3.137499999999999 0 0  3.15 0 0  3.1625 0 0  3.175000000000001 0 0  3.1875 0 0  3.199999999999999 0 0  3.2125 0 0  3.225 0 0  3.237500000000001 0 0  3.25 0 0  3.262499999999999 0 0  3.275 0 0  3.2875 0 0  3.300000000000001 0 0  3.3125 0 0  3.324999999999999 0 0  3.3375 0 0  3.35 0 0  3.362500000000001 0 0  3.375 0 0  3.387499999999999 0 0  3.4 0 0  3.4125 0 0  3.425000000000001 0 0  3.4375 0 0  3.449999999999999 0 0  3.4625 0 0  3.475 0 0  3.4875
[...]
<PointData  Vectors="(h, u)"> 
<DataArray  type="Float64"  Name="(h, u)"  NumberOfComponents="3" format="ascii">1.5366020504021546e-01 0.0000000000000000e+00 0.0000000000000000e+00  1.5359953068838969e-01 5.0306033010020079e-03 0.0000000000000000e+00  1.5365844885582616e-01 1.0018718935058353e-02 0.0000000000000000e+00  1.5359646628191462e-01 1.5091279537203383e-02 0.0000000000000000e+00  1.5365322378861604e-01 2.0039491845051719e-02 0.0000000000000000e+00  1.5359025274638682e-01 2.5150327871798585e-02 0.0000000000000000e+00  1.5364465604609950e-01 3.0064429402283210e-02 0.0000000000000000e+00  1.5358072634367675e-01 3.5206555238662472e-02 0.0000000000000000e+00  1.5363294225278631e-01 4.0095738294187951e-02 0.0000000000000000e+00  1.5356765603509137e-01 4.5258654580582064e-02 0.0000000000000000e+00  1.5361833036879133e-01 5.0135726100245061e-02 0.0000000000000000e+00  1.5355076151818203e-01 5.5305240657757354e-02 0.0000000000000000e+00  1.5360109574256317e-01 6.0186757200975244e-02 0.0000000000000000e+00  1.5352973740170467e-01 6.5344940191423007e-02 0.0000000000000000e+00  1.5358151451169050e-01 7.0251152310690623e-02 0.0000000000000000e+00  1.5350428226877635e-01 7.5376524844235959e-02 0.0000000000000000e+00  1.5355983648486884e-01 8.0331036663981711e-02 0.0000000000000000e+00  1.5347412995535265e-01 8.5399069324720869e-02 0.0000000000000000e+00  1.5353625929507866e-01 9.0428157191176126e-02 0.0000000000000000e+00  1.5343907909950913e-01 9.5412115653702001e-02 0.0000000000000000e+00  1.5351090531229322e-01 1.0054370172702325e-01 0.0000000000000000e+00  1.5339901654900340e-01 1.0541582522191977e-01 0.0000000000000000e+00  1.5348380286788371e-01 1.1067815729214915e-01 0.0000000000000000e+00  1.5335393101435524e-01 1.1541109942095677e-01 0.0000000000000000e+00  1.5345487383536946e-01 1.2083123663066524e-01 0.0000000000000000e+00  1.5330391534035595e-01 1.2539964698349418e-01 0.0000000000000000e+00  1.5342393013068731e-01 1.3100188505540067e-01 0.0000000000000000e+00  1.5324915819479068e-01 1.3538397553774653e-01 0.0000000000000000e+00  1.5339068147557269e-01 1.4118836110981120e-01 0.0000000000000000e+00  1.5318992773743362e-01 1.4536729214053531e-01 0.0000000000000000e+00  1.5335475515913791e-01 1.5138837357206858e-01 0.0000000000000000e+00  1.5312655013556706e-01 1.5535331577502001e-01 0.0000000000000000e+00  1.5331572562335671e-01 1.6159925797446331e-01 0.0000000000000000e+00  1.5305938477419526e-01 1.6534602962989023e-01 0.0000000000000000e+00  1.5327314863343403e-01 1.7181818346987940e-01 0.0000000000000000e+00  1.5298879683735456e-01 1.7534942045842891e-01 0.0000000000000000e+00  1.5322659334107278e-01 1.8204238460380021e-01 0.0000000000000000e+00  1.5291512804743551e-01 1.8536725344375321e-01 0.0000000000000000e+00  1.5317566693431092e-01 1.9226940367887380e-01 0.0000000000000000e+00  1.5283866821821948e-01 1.9540290987111592e-01 0.0000000000000000e+00  1.5312003033847743e-01 2.0249731052100170e-01 0.0000000000000000e+00  1.5275963267286521e-01 2.0545928276509584e-01 0.0000000000000000e+00  1.5305940730811568e-01 2.1272485300315833e-01 0.0000000000000000e+00  1.5267815107614036e-01 2.1553870446732432e-01 0.0000000000000000e+00  1.5299359041794347e-01 2.2295150235315095e-01 0.0000000000000000e+00  1.5259427004257209e-01 2.2564288743733604e-01 0.0000000000000000e+00  1.5292244486525572e-01 2.3317739668973317e-01 0.0000000000000000e+00  1.5250796597413505e-01 2.3577289077809366e-01 0.0000000000000000e+00  1.5284590691117697e-01 2.4340323316032256e-01 0.0000000000000000e+00  1.5241915993247207e-01 2.4592915068319765e-01 0.0000000000000000e+00  1.5276397256167965e-01 2.5363017695866930e-01 0.0000000000000000e+00  1.5232772711029580e-01 2.5611160123088161e-01 0.0000000000000000e+00  1.5267667635333607e-01 2.6385982298862182e-01 0.0000000000000000e+00  1.5223350006554351e-01 2.6631985928071683e-01 0.0000000000000000e+00  1.5258406770474939e-01 2.7409418117693513e-01 0.0000000000000000e+00  1.5213627248640976e-01 2.7655339135129070e-01 0.0000000000000000e+00  1.5248619660302443e-01 2.8433561414062536e-01 0.0000000000000000e+00  1.5203581133853081e-01 2.8681157990344791e-01 0.0000000000000000e+00  1.5238311520857895e-01 2.9458668787639242e-01 0.0000000000000000e+00  1.5193187657770008e-01 2.9709368544297149e-01 0.0000000000000000e+00  1.5227488920658344e-01 3.0484998890905562e-01 0.0000000000000000e+00  1.5182423632549732e-01 3.0739880042326473e-01 0.0000000000000000e+00  1.5216160382624544e-01 3.1512802486943842e-01 0.0000000000000000e+00  1.5171266390341040e-01 3.1772591035568354e-01 0.0000000000000000e+00  1.5204335448323750e-01 3.2542327954188283e-01 0.0000000000000000e+00  1.5159691611023748e-01 3.2807407834687075e-01 0.0000000000000000e+00  1.5192022901346028e-01 3.3573835372509847e-01 0.0000000000000000e+00  1.5147671088643214e-01 3.3844262131304087e-01 0.0000000000000000e+00  1.5179230279548206e-01 3.4607600697103824e-01 0.0000000000000000e+00  1.5135172820424064e-01 3.4883110095957059e-01 0.0000000000000000e+00  1.5165966028336200e-01 3.5643897783661821e-01 0.0000000000000000e+00  1.5122163698486238e-01 3.5923912085965981e-01 0.0000000000000000e+00  1.5152242632346397e-01 3.6682970360938932e-01 0.0000000000000000e+00  1.5108612105673569e-01 3.6966615896864247e-01 0.0000000000000000e+00  1.5138077173788475e-01 3.7725021413202720e-01 0.0000000000000000e+00  1.5094487626156572e-01 3.8011167055964790e-01 0.0000000000000000e+00  1.5123487644038405e-01 3.8770232546227423e-01 0.0000000000000000e+00  1.5079758340411895e-01 3.9057543247736287e-01 0.0000000000000000e+00  1.5108487331971582e-01 3.9818793957652665e-01 0.0000000000000000e+00  1.5064389877441817e-01 4.0105779902850308e-01 0.0000000000000000e+00  1.5093082360052715e-01 4.0870903697318473e-01 0.0000000000000000e+00  1.5048350779252995e-01 4.1155950573098593e-01 0.0000000000000000e+00  1.5077274711549551e-01 4.1926717088072929e-01 0.0000000000000000e+00  1.5031622267786554e-01 4.2208117422263469e-01 0.0000000000000000e+00  1.5061064895774248e-01 4.2986293597093539e-01 0.0000000000000000e+00  1.5014203585681635e-01 4.3262322554106375e-01 0.0000000000000000e+00  1.5044446908007464e-01 4.4049601071452726e-01 0.0000000000000000e+00  1.4996109156547974e-01 4.4318649511061559e-01 0.0000000000000000e+00  1.5027398024925612e-01 4.5116558270285001e-01 0.0000000000000000e+00  1.4977363787787998e-01 4.5377303058049251e-01 0.0000000000000000e+00  1.5009872404117955e-01 4.6187045475817401e-01 0.0000000000000000e+00  1.4958004402616126e-01 4.6438636107037512e-01 0.0000000000000000e+00  1.4991806575281502e-01 4.7260820789162594e-01 0.0000000000000000e+00  1.4938093154428650e-01 4.7503080901979411e-01 0.0000000000000000e+00  1.4973134917319667e-01 4.8337361259378259e-01 0.0000000000000000e+00  1.4917729229662635e-01 4.8571082600989757e-01 0.0000000000000000e+00  1.4953792416236308e-01 4.9415817139633089e-01 0.0000000000000000e+00  1.4897037371923694e-01 4.9643208093722996e-01 0.0000000000000000e+00  1.4933696706107288e-01 5.0495149572483022e-01 0.0000000000000000e+00  1.4876148980765566e-01 5.0720296484248417e-01 0.0000000000000000e+00  1.4912740849706221e-01 5.1574202802979097e-01 0.0000000000000000e+00  1.4855205010655675e-01 5.1803408841657894e-01 0.0000000000000000e+00  1.4890807155616329e-01 5.2651632483732014e-01 0.0000000000000000e+00  1.4834372327532175e-01 5.2893639591030950e-01 0.0000000000000000e+00  1.4867790725932592e-01 5.3725785480001664e-01 0.0000000000000000e+00  1.4813865363291348e-01 5.3991852055184109e-01 0.0000000000000000e+00  1.4843620680779410e-01 5.4794631167105790e-01 0.0000000000000000e+00  1.4793934430107056e-01 5.5098651044343949e-01 0.0000000000000000e+00  1.4818226451757532e-01 5.5856171705988555e-01 0.0000000000000000e+00  1.4774795874591007e-01 5.6214796921702626e-01 0.0000000000000000e+00  1.4791506955108341e-01 5.6908859277707635e-01 0.0000000000000000e+00  1.4756633460232743e-01 5.7341014040973959e-01 0.0000000000000000e+00  1.4763412782832913e-01 5.7951116915819789e-01 0.0000000000000000e+00  1.4739659689057219e-01 5.8477293060788249e-01 0.0000000000000000e+00  1.4733992175947716e-01 5.8981165060444396e-01 0.0000000000000000e+00  1.4724078273550070e-01 5.9622992930649688e-01 0.0000000000000000e+00  1.4703365542513055e-01 5.9997428473292891e-01 0.0000000000000000e+00  1.4710053196058573e-01 6.0776899771016979e-01 0.0000000000000000e+00  1.4671716883066371e-01 6.0998788748659749e-01 0.0000000000000000e+00  1.4697633051176870e-01 6.1937678850841327e-01 0.0000000000000000e+00  1.4639197702237602e-01 6.1985518104276760e-01 0.0000000000000000e+00  1.4686716883109927e-01 6.3104032675377197e-01 0.0000000000000000e+00  1.4606084971437810e-01 6.2958085925172702e-01 0.0000000000000000e+00  1.4677323737781731e-01 6.4272439787571167e-01 0.0000000000000000e+00  1.4572921255726337e-01 6.3916038185909940e-01 0.0000000000000000e+00  1.4669396021800488e-01 6.5438779696961025e-01 0.0000000000000000e+00  1.4540092227711715e-01 6.4861404553540891e-01 0.0000000000000000e+00  1.4662551432025511e-01 6.6600460969924136e-01 0.0000000000000000e+00  1.4507989268569685e-01 6.5797231409754009e-01 0.0000000000000000e+00  1.4656488138604751e-01 6.7753294940474518e-01 0.0000000000000000e+00  1.4477162930616941e-01 6.6726094594876229e-01 0.0000000000000000e+00  1.4650823378810759e-01 6.8893090844404958e-01 0.0000000000000000e+00  1.4448159339116073e-01 6.7651130164484741e-01 0.0000000000000000e+00  1.4645305772395492e-01 7.0014263954909017e-01 0.0000000000000000e+00  1.4421664941276108e-01 6.8574461520932273e-01 0.0000000000000000e+00  1.4639400655224744e-01 7.1113640620799079e-01 0.0000000000000000e+00  1.4397702570782603e-01 6.9503382777317280e-01 0.0000000000000000e+00  1.4632360746164286e-01 7.2190310781359202e-01 0.0000000000000000e+00  1.4376938670745890e-01 7.0439142632615614e-01 0.0000000000000000e+00  1.4624465444630760e-01 7.3235922330376113e-01 0.0000000000000000e+00  1.4359899450639230e-01 7.1382945113620866e-01 0.0000000000000000e+00  1.4614862440892215e-01 7.4252799156904326e-01 0.0000000000000000e+00  1.4346163544659354e-01 7.2342198984841355e-01 0.0000000000000000e+00  1.4603447793144256e-01 7.5238873368956505e-01 0.0000000000000000e+00  1.4336318922630534e-01 7.3314050415211640e-01 0.0000000000000000e+00  1.4590220971306664e-01 7.6193256075395455e-01 0.0000000000000000e+00  1.4329991447494242e-01 7.4301428812854020e-01 0.0000000000000000e+00  1.4575321116898918e-01 7.7116080640320162e-01 0.0000000000000000e+00  1.4327314369502023e-01 7.5300837328128856e-01 0.0000000000000000e+00  1.4558475025068493e-01 7.8013050353796753e-01 0.0000000000000000e+00  1.4327036071454696e-01 7.6318052380864165e-01 0.0000000000000000e+00  1.4540388434641344e-01 7.8883844966607164e-01 0.0000000000000000e+00  1.4330322896935668e-01 7.7336966438539756e-01 0.0000000000000000e+00  1.4521573624181860e-01 7.9731464077053849e-01 0.0000000000000000e+00  1.4334493094116094e-01 7.8371737318129364e-01 0.0000000000000000e+00  1.4501599712572916e-01 8.0567929331750465e-01 0.0000000000000000e+00  1.4341073882944452e-01 7.9400744851325356e-01 0.0000000000000000e+00  1.4482490340877308e-01 8.1385779457676610e-01 0.0000000000000000e+00  1.4347596690290018e-01 8.0435021954092056e-01 0.0000000000000000e+00  1.4463249572565168e-01 8.2202486352671822e-01 0.0000000000000000e+00  1.4354967552027342e-01 8.1457971181419808e-01 0.0000000000000000e+00  1.4445248985172512e-01 8.3015459832213778e-01 0.0000000000000000e+00  1.4361080158243777e-01 8.2478801047762818e-01 0.0000000000000000e+00  1.4429266169726288e-01 8.3825832598110916e-01 0.0000000000000000e+00  1.4367457761275465e-01 8.3478193661749001e-01 0.0000000000000000e+00  1.4413667220721429e-01 8.4652968797489514e-01 0.0000000000000000e+00  1.4371164448546911e-01 8.4475502238225408e-01 0.0000000000000000e+00  1.4402390363107789e-01 8.5468275314510600e-01 0.0000000000000000e+00  1.4374963369026075e-01 8.5445155163161846e-01 0.0000000000000000e+00  1.4390041784016847e-01 8.6318027996071978e-01 0.0000000000000000e+00  1.4376343401145117e-01 8.6407204899525492e-01 0.0000000000000000e+00  1.4383183266760802e-01 8.7147749632461347e-01 0.0000000000000000e+00  1.4376060009392394e-01 8.7356764734169567e-01 0.0000000000000000e+00  1.4375095465956492e-01 8.8010784922852603e-01 0.0000000000000000e+00  1.4376443436790928e-01 8.8277494233790588e-01 0.0000000000000000e+00  1.4369739056702940e-01 8.8870898713356661e-01 0.0000000000000000e+00  1.4372838507828639e-01 8.9211939037500554e-01 0.0000000000000000e+00  1.4367539315021513e-01 8.9720134075797453e-01 0.0000000000000000e+00  1.4370807197169949e-01 9.0118858965827131e-01 0.0000000000000000e+00  1.4361127439732518e-01 9.0614621837944342e-01 0.0000000000000000e+00  1.4369483598892985e-01 9.1010106981686634e-01 0.0000000000000000e+00  1.4361274439500829e-01 9.1460829510752129e-01 0.0000000000000000e+00  1.4362111501104147e-01 9.1945839856547551e-01 0.0000000000000000e+00  1.4359428743568489e-01 9.2325465280225716e-01 0.0000000000000000e+00  1.4362772128621246e-01 9.2813165855432878e-01 0.0000000000000000e+00  1.4353449084046624e-01 9.3223342271120868e-01 0.0000000000000000e+00  1.4360313844946745e-01 9.3706621247722399e-01 0.0000000000000000e+00  1.4354446141289925e-01 9.4060786648354677e-01 0.0000000000000000e+00  1.4352701189556213e-01 9.4644335468976448e-01 0.0000000000000000e+00  1.4355040814715356e-01 9.4898040431386366e-01 0.0000000000000000e+00  1.4352901317407976e-01 9.5519353497144199e-01 0.0000000000000000e+00  1.4345043654349116e-01 9.5819639856381711e-01 0.0000000000000000e+00  1.4357854582661209e-01 9.6356257144773005e-01 0.0000000000000000e+00  1.4342406612410424e-01 9.6678198355472200e-01 0.0000000000000000e+00  1.4348835354103798e-01 9.7308662139772673e-01 0.0000000000000000e+00  1.4348741296161041e-01 9.7461708177570194e-01 0.0000000000000000e+00  1.4342288107643675e-01 9.8239189662974469e-01 0.0000000000000000e+00  1.4343715985557270e-01 9.8339800731059945e-01 0.0000000000000000e+00  1.4349626682019798e-01 9.9051976036836054e-01 0.0000000000000000e+00  1.4327836039945335e-01 9.9309701057405675e-01 0.0000000000000000e+00  1.4360583539708408e-01 9.9830687758364456e-01 0.0000000000000000e+00  1.4320158877634528e-01 1.0021481903591705e+00 0.0000000000000000e+00  1.4351808114402603e-01 1.0076771314228639e+00 0.0000000000000000e+00  1.4337651222834805e-01 1.0091525776962758e+00 0.0000000000000000e+00  1.4322035277133008e-01 1.0187338870899800e+00 0.0000000000000000e+00  1.4366136453202552e-01 1.0152815882032196e+00 0.0000000000000000e+00  1.4290805932748135e-01 1.0298638086579990e+00 0.0000000000000000e+00  1.4389445423961908e-01 1.0218685316284717e+00 0.0000000000000000e+00  1.4269363295113746e-01 1.0401429424664836e+00 0.0000000000000000e+00  1.4398747851300819e-01 1.0296372389590138e+00 0.0000000000000000e+00  1.4264533804609128e-01 1.0490144347886090e+00 0.0000000000000000e+00  1.4392925427184605e-01 1.0386726054097490e+00 0.0000000000000000e+00  1.4270263037897551e-01 1.0569875618260653e+00 0.0000000000000000e+00  1.4382091650813716e-01 1.0481301516370476e+00 0.0000000000000000e+00  1.4277727141746557e-01 1.0648006114188180e+00 0.0000000000000000e+00  1.4370232493578944e-01 1.0576728237981032e+00 0.0000000000000000e+00  1.4286228034686035e-01 1.0725176199193693e+00 0.0000000000000000e+00  1.4358247541847075e-01 1.0672204577278084e+00 0.0000000000000000e+00  1.4292903897396927e-01 1.0803790556622161e+00 0.0000000000000000e+00  1.4349774731891907e-01 1.0764680674067930e+00 0.0000000000000000e+00  1.4295733091774307e-01 1.0885537969962007e+00 0.0000000000000000e+00  1.4343894308832186e-01 1.0854896600977286e+00 0.0000000000000000e+00  1.4297565344923063e-01 1.0968060193211084e+00 0.0000000000000000e+00  1.4337906596121799e-01 1.0945085848355729e+00 0.0000000000000000e+00  1.4299402045558041e-01 1.1050520686091059e+00 0.0000000000000000e+00  1.4332609473097405e-01 1.1034601246279268e+00 0.0000000000000000e+00  1.4299673945017247e-01 1.1134211532599712e+00 0.0000000000000000e+00  1.4329082810131150e-01 1.1122565782786527e+00 0.0000000000000000e+00  1.4298419410191734e-01 1.1219099017140106e+00 0.0000000000000000e+00  1.4326314439880833e-01 1.1209830658685427e+00 0.0000000000000000e+00  1.4297030541420347e-01 1.1304033517413572e+00 0.0000000000000000e+00  1.4323195175765654e-01 1.1297320048036708e+00 0.0000000000000000e+00  1.4296014861187670e-01 1.1388601947539732e+00 0.0000000000000000e+00  1.4319835484950327e-01 1.1384939408113908e+00 0.0000000000000000e+00  1.4294869867969684e-01 1.1473231109887736e+00 0.0000000000000000e+00  1.4316836813947492e-01 1.1472180008581805e+00 0.0000000000000000e+00  1.4293094087832744e-01 1.1558348832154235e+00 0.0000000000000000e+00  1.4314471295162481e-01 1.1558801964463701e+00 0.0000000000000000e+00  1.4290632040968307e-01 1.1644012778916562e+00 0.0000000000000000e+00  1.4312609185614558e-01 1.1644898965926904e+00 0.0000000000000000e+00  1.4287708666554730e-01 1.1730044930366650e+00 0.0000000000000000e+00  1.4310979559575024e-01 1.1730686121176244e+00 0.0000000000000000e+00  1.4284575273544878e-01 1.1816240313771365e+00 0.0000000000000000e+00  1.4309372099289411e-01 1.1816334792156644e+00 0.0000000000000000e+00  1.4281373283188636e-01 1.1902479522579406e+00 0.0000000000000000e+00  1.4307701265335040e-01 1.1901919468491808e+00 0.0000000000000000e+00  1.4278129105359916e-01 1.1988733885226270e+00 0.0000000000000000e+00  1.4305991785908626e-01 1.1987428217048772e+00 0.0000000000000000e+00  1.4274746269512634e-01 1.2075073818608710e+00 0.0000000000000000e+00  1.4304453793466701e-01 1.2072697908467762e+00 0.0000000000000000e+00  1.4270743978136366e-01 1.2161887791054709e+00 0.0000000000000000e+00  1.4304151842169632e-01 1.2156857209450478e+00 0.0000000000000000e+00  1.4264031245080616e-01 1.2250901030537289e+00 0.0000000000000000e+00  1.4308756696783009e-01 1.2236872555345639e+00 0.0000000000000000e+00  1.4248955243977415e-01 1.2346797994479966e+00 0.0000000000000000e+00  1.4326129399079857e-01 1.2306234711138169e+00 0.0000000000000000e+00  1.4216605255270784e-01 1.2456981344406310e+00 0.0000000000000000e+00  1.4364192692947728e-01 1.2358384143752872e+00 0.0000000000000000e+00  1.4164499165212918e-01 1.2583550196999072e+00 0.0000000000000000e+00  1.4416113170077538e-01 1.2398984187734212e+00 0.0000000000000000e+00  1.4111747062401792e-01 1.2710679583802009e+00 0.0000000000000000e+00  1.4450000271672861e-01 1.2454411710818913e+00 0.0000000000000000e+00  1.4094177181633771e-01 1.2808577504412255e+00 0.0000000000000000e+00  1.4436115000007024e-01 1.2549249183562221e+00 0.0000000000000000e+00  1.4119027906438539e-01 1.2871169267671763e+00 0.0000000000000000e+00  1.4397268209521732e-01 1.2664665211118038e+00 0.0000000000000000e+00  1.4144928230077464e-01 1.2932830016350443e+00 0.0000000000000000e+00  1.4375553993426590e-01 1.2765846534726417e+00 0.0000000000000000e+00  1.4152432747375862e-01 1.3009729001192205e+00 0.0000000000000000e+00  1.4362746933117745e-01 1.2859579253457512e+00 0.0000000000000000e+00  1.4163074359977554e-01 1.3083977997622591e+00 0.0000000000000000e+00  1.4341206395988601e-01 1.2960472298604082e+00 0.0000000000000000e+00  1.4179590795337518e-01 1.3153292799823659e+00 0.0000000000000000e+00  1.4318222703881900e-01 1.3062502192099641e+00 0.0000000000000000e+00  1.4196192275191108e-01 1.3222478525533621e+00 0.0000000000000000e+00  1.4291250416520765e-01 1.3167786901520246e+00 0.0000000000000000e+00  1.4222972061188846e-01 1.3283150007980093e+00 0.0000000000000000e+00  1.4247311124863893e-01 1.3287111578469954e+00 0.0000000000000000e+00  1.4273467424301484e-01 1.3324075463419707e+00 0.0000000000000000e+00  1.4171557635831764e-01 1.3432871943853857e+00 0.0000000000000000e+00  1.4366485958082773e-01 1.3329713127281160e+00 0.0000000000000000e+00  1.4042073924437334e-01 1.3623486733290628e+00 0.0000000000000000e+00  1.4527051102846089e-01 1.3279550007835843e+00 0.0000000000000000e+00  1.3837857760619840e-01 1.3876963624609020e+00 0.0000000000000000e+00  1.477189