<?xml version="1.0"?>
<VTKFile type="UnstructuredGrid"  version="0.1"  >
<UnstructuredGrid>
<Piece  NumberOfPoints="801" NumberOfCells="800">
<Points>
<DataArray  type="Float64"  NumberOfComponents="3"  format="ascii">-5 0 0  -4.9875 0 0  -4.975 0 0  -4.9625 0 0  -4.95 0 0  -4.9375 0 0  -4.925 0 0  -4.9125 0 0  -4.9 0 0  -4.8875 0 0  -4.875 0 0  -4.8625 0 0  -4.85 0 0  -4.8375 0 0  -4.825 0 0  -4.8125 0 0  -4.8 0 0  -4.7875 0 0  -4.775 0 0  -4.7625 0 0  -4.75 0 0  -4.7375 0 0  -4.725 0 0  -4.7125 0 0  -4.7 0 0  -4.6875 0 0  -4.675 0 0  -4.6625 0 0  -4.65 0 0  -4.6375 0 0  -4.625 0 0  -4.6125 0 0  -4.6 0 0  -4.5875 0 0  -4.575 0 0  -4.5625 0 0  -4.55 0 0  -4.5375 0 0  -4.525 0 0  -4.5125 0 0  -4.5 0 0  -4.4875 0 0  -4.475 0 0  -4.4625 0 0  -4.45 0 0  -4.4375 0 0  -4.425 0 0  -4.4125 0 0  -4.4 0 0  -4.3875 0 0  -4.375 0 0  -4.3625 0 0  -4.35 0 0  -4.3375 0 0  -4.325 0 0  -4.3125 0 0  -4.3 0 0  -4.2875 0 0  -4.275 0 0  -4.2625 0 0  -4.25 0 0  -4.2375 0 0  -4.225 0 0  -4.2125 0 0  -4.2 0 0  -4.1875 0 0  -4.175 0 0  -4.1625 0 0  -4.15 0 0  -4.1375 0 0  -4.125 0 0  -4.1125 0 0  -4.1 0 0  -4.0875 0 0  -4.075 0 0  -4.0625 0 0  -4.05 0 0  -4.0375 0 0  -4.025 0 0  -4.0125 0 0  -4 0 0  -3.9875 0 0  -3.975 0 0  -3.9625 0 0  -3.95 0 0  -3.9375 0 0  -3.925 0 0  -3.9125 0 0  -3.9 0 0  -3.8875 0 0  -3.875 0 0  -3.8625 0 0  -3.85 0 0  -3.8375 0 0  -3.825 0 0  -3.8125 0 0  -3.8 0 0  -3.7875 0 0  -3.775 0 0  -3.7625 0 0  -3.75 0 0  -3.7375 0 0  -3.725 0 0  -3.7125 0 0  -3.7 0 0  -3.6875 0 0  -3.675 0 0  -3.6625 0 0  -3.65 0 0  -3.6375 0 0  -3.625 0 0  -3.6125 0 0  -3.6 0 0  -3.5875 0 0  -3.575 0 0  -3.5625 0 0  -3.55 0 0  -3.5375 0 0  -3.525 0 0  -3.5125 0 0  -3.5 0 0  -3.4875 0 0  -3.475 0 0  -3.4625 0 0  -3.45 0 0  -3.4375 0 0  -3.425 0 0  -3.4125 0 0  -3.4 0 0  -3.3875 0 0  -3.375 0 0  -3.3625 0 0  -3.35 0 0  -3.3375 0 0  -3.325 0 0  -3.3125 0 0  -3.3 0 0  -3.2875 0 0  -3.275 0 0  -3.2625 0 0  -3.25 0 0  -3.2375 0 0  -3.225 0 0  -3.2125 0 0  -3.2 0 0  -3.1875 0 0  -3.175 0 0  -3.1625 0 0  -3.15 0 0  -3.1375 0 0  -3.125 0 0  -3.1125 0 0  -3.1 0 0  -3.0875 0 0  -3.075 0 0  -3.0625 0 0  -3.05 0 0  -3.0375 0 0  -3.025 0 0  -3.0125 0 0  -3 0 0  -2.9875 0 0  -2.975 0 0  -2.9625 0 0  -2.95 0 0  -2.9375 0 0  -2.925 0 0  -2.9125 0 0  -2.9 0 0  -2.8875 0 0  -2.875 0 0  -2.8625 0 0  -2.85 0 0  -2.8375 0 0  -2.825 0 0  -2.8125 0 0  -2.8 0 0  -2.7875 0 0  -2.775 0 0  -2.7625 0 0  -2.75 0 0  -2.7375 0 0  -2.725 0 0  -2.7125 0 0  -2.7 0 0  -2.6875 0 0  -2.675 0 0  -2.6625 0 0  -2.65 0 0  -2.6375 0 0  -2.625 0 0  -2.6125 0 0  -2.6 0 0  -2.5875 0 0  -2.575 0 0  -2.5625 0 0  -2.55 0 0  -2.5375 0 0  -2.525 0 0  -2.5125 0 0  -2.5 0 0  -2.4875 0 0  -2.475 0 0  -2.4625 0 0  -2.45 0 0  -2.4375 0 0  -2.425 0 0  -2.4125 0 0  -2.4 0 0  -2.3875 0 0  -2.375 0 0  -2.3625 0 0  -2.35 0 0  -2.3375 0 0  -2.325 0 0  -2.3125 0 0  -2.3 0 0  -2.2875 0 0  -2.275 0 0  -2.2625 0 0  -2.25 0 0  -2.2375 0 0  -2.225 0 0  -2.2125 0 0  -2.2 0 0  -2.1875 0 0  -2.175 0 0  -2.1625 0 0  -2.15 0 0  -2.1375 0 0  -2.125 0 0  -2.1125 0 0  -2.1 0 0  -2.0875 0 0  -2.075 0 0  -2.0625 0 0  -2.05 0 0  -2.0375 0 0  -2.025 0 0  -2.0125 0 0  -2 0 0  -1.9875 0 0  -1.975 0 0  -1.9625 0 0  -1.95 0 0  -1.9375 0 0  -1.925 0 0  -1.9125 0 0  -1.9 0 0  -1.8875 0 0  -1.875 0 0  -1.8625 0 0  -1.85 0 0  -1.8375 0 0  -1.825 0 0  -1.8125 0 0  -1.8 0 0  -1.7875 0 0  -1.775 0 0  -1.7625 0 0  -1.75 0 0  -1.7375 0 0  -1.725 0 0  -1.7125 0 0  -1.7 0 0  -1.6875 0 0  -1.675 0 0  -1.6625 0 0  -1.65 0 0  -1.6375 0 0  -1.625 0 0  -1.6125 0 0  -1.6 0 0  -1.5875 0 0  -1.575 0 0  -1.5625 0 0  -1.55 0 0  -1.5375 0 0  -1.525 0 0  -1.5125 0 0  -1.5 0 0  -1.4875 0 0  -1.475 0 0  -1.4625 0 0  -1.45 0 0  -1.4375 0 0  -1.425 0 0  -1.4125 0 0  -1.4 0 0  -1.3875 0 0  -1.375 0 0  -1.3625 0 0  -1.35 0 0  -1.3375 0 0  -1.325 0 0  -1.3125 0 0  -1.3 0 0  -1.2875 0 0  -1.275 0 0  -1.2625 0 0  -1.25 0 0  -1.2375 0 0  -1.225 0 0  -1.2125 0 0  -1.2 0 0  -1.1875 0 0  -1.175 0 0  -1.1625 0 0  -1.15 0 0  -1.1375 0 0  -1.125 0 0  -1.1125 0 0  -1.1 0 0  -1.0875 0 0  -1.075 0 0  -1.0625 0 0  -1.05 0 0  -1.0375 0 0  -1.025 0 0  -1.0125 0 0  -1 0 0  -0.9874999999999998 0 0  -0.9749999999999996 0 0  -0.9625000000000004 0 0  -0.9500000000000002 0 0  -0.9375 0 0  -0.9249999999999998 0 0  -0.9124999999999996 0 0  -0.9000000000000004 0 0  -0.8875000000000002 0 0  -0.875 0 0  -0.8624999999999998 0 0  -0.8499999999999996 0 0  -0.8375000000000004 0 0  -0.8250000000000002 0 0  -0.8125 0 0  -0.7999999999999998 0 0  -0.7874999999999996 0 0  -0.7750000000000004 0 0  -0.7625000000000002 0 0  -0.75 0 0  -0.7374999999999998 0 0  -0.7249999999999996 0 0  -0.7125000000000004 0 0  -0.7000000000000002 0 0  -0.6875 0 0  -0.6749999999999998 0 0  -0.6624999999999996 0 0  -0.6500000000000004 0 0  -0.6375000000000002 0 0  -0.625 0 0  -0.6124999999999998 0 0  -0.5999999999999996 0 0  -0.5875000000000004 0 0  -0.5750000000000002 0 0  -0.5625 0 0  -0.5499999999999998 0 0  -0.5374999999999996 0 0  -0.5250000000000004 0 0  -0.5125000000000002 0 0  -0.5 0 0  -0.4874999999999998 0 0  -0.4749999999999996 0 0  -0.4625000000000004 0 0  -0.4500000000000002 0 0  -0.4375 0 0  -0.4249999999999998 0 0  -0.4124999999999996 0 0  -0.4000000000000004 0 0  -0.3875000000000002 0 0  -0.375 0 0  -0.3624999999999998 0 0  -0.3499999999999996 0 0  -0.3375000000000004 0 0  -0.3250000000000002 0 0  -0.3125 0 0  -0.2999999999999998 0 0  -0.2874999999999996 0 0  -0.2750000000000004 0 0  -0.2625000000000002 0 0  -0.25 0 0  -0.2374999999999998 0 0  -0.2249999999999996 0 0  -0.2125000000000004 0 0  -0.2000000000000002 0 0  -0.1875 0 0  -0.1749999999999998 0 0  -0.1624999999999996 0 0  -0.1500000000000004 0 0  -0.1375000000000002 0 0  -0.125 0 0  -0.1124999999999998 0 0  -0.09999999999999964 0 0  -0.08750000000000036 0 0  -0.07500000000000018 0 0  -0.0625 0 0  -0.04999999999999982 0 0  -0.03749999999999964 0 0  -0.02500000000000036 0 0  -0.01250000000000018 0 0  0 0 0  0.01250000000000018 0 0  0.02500000000000036 0 0  0.03749999999999964 0 0  0.04999999999999982 0 0  0.0625 0 0  0.07500000000000018 0 0  0.08750000000000036 0 0  0.09999999999999964 0 0  0.1124999999999998 0 0  0.125 0 0  0.1375000000000002 0 0  0.1500000000000004 0 0  0.1624999999999996 0 0  0.1749999999999998 0 0  0.1875 0 0  0.2000000000000002 0 0  0.2125000000000004 0 0  0.2249999999999996 0 0  0.2374999999999998 0 0  0.25 0 0  0.2625000000000002 0 0  0.2750000000000004 0 0  0.2874999999999996 0 0  0.2999999999999998 0 0  0.3125 0 0  0.3250000000000002 0 0  0.3375000000000004 0 0  0.3499999999999996 0 0  0.3624999999999998 0 0  0.375 0 0  0.3875000000000002 0 0  0.4000000000000004 0 0  0.4124999999999996 0 0  0.4249999999999998 0 0  0.4375 0 0  0.4500000000000002 0 0  0.4625000000000004 0 0  0.4749999999999996 0 0  0.4874999999999998 0 0  0.5 0 0  0.5125000000000002 0 0  0.5250000000000004 0 0  0.5374999999999996 0 0  0.5499999999999998 0 0  0.5625 0 0  0.5750000000000002 0 0  0.5875000000000004 0 0  0.5999999999999996 0 0  0.6124999999999998 0 0  0.625 0 0  0.6375000000000002 0 0  0.6500000000000004 0 0  0.6624999999999996 0 0  0.6749999999999998 0 0  0.6875 0 0  0.7000000000000002 0 0  0.7125000000000004 0 0  0.7249999999999996 0 0  0.7374999999999998 0 0  0.75 0 0  0.7625000000000002 0 0  0.7750000000000004 0 0  0.7874999999999996 0 0  0.7999999999999998 0 0  0.8125 0 0  0.8250000000000002 0 0  0.8375000000000004 0 0  0.8499999999999996 0 0  0.8624999999999998 0 0  0.875 0 0  0.8875000000000002 0 0  0.9000000000000004 0 0  0.9124999999999996 0 0  0.9249999999999998 0 0  0.9375 0 0  0.9500000000000002 0 0  0.9625000000000004 0 0  0.9749999999999996 0 0  0.9874999999999998 0 0  1 0 0  1.0125 0 0  1.025 0 0  1.0375 0 0  1.05 0 0  1.0625 0 0  1.075 0 0  1.0875 0 0  1.1 0 0  1.1125 0 0  1.125 0 0  1.1375 0 0  1.15 0 0  1.1625 0 0  1.175 0 0  1.1875 0 0  1.2 0 0  1.2125 0 0  1.225 0 0  1.2375 0 0  1.25 0 0  1.2625 0 0  1.275 0 0  1.2875 0 0  1.3 0 0  1.3125 0 0  1.325 0 0  1.3375 0 0  1.35 0 0  1.3625 0 0  1.375 0 0  1.3875 0 0  1.4 0 0  1.4125 0 0  1.425 0 0  1.4375 0 0  1.45 0 0  1.4625 0 0  1.475 0 0  1.4875 0 0  1.5 0 0  1.5125 0 0  1.525 0 0  1.5375 0 0  1.55 0 0  1.5625 0 0  1.575 0 0  1.5875 0 0  1.6 0 0  1.6125 0 0  1.625 0 0  1.6375 0 0  1.65 0 0  1.6625 0 0  1.675 0 0  1.6875 0 0  1.7 0 0  1.7125 0 0  1.725 0 0  1.7375 0 0  1.75 0 0  1.7625 0 0  1.775 0 0  1.7875 0 0  1.8 0 0  1.8125 0 0  1.825 0 0  1.8375 0 0  1.85 0 0  1.8625 0 0  1.875 0 0  1.8875 0 0  1.9 0 0  1.9125 0 0  1.925 0 0  1.9375 0 0  1.95 0 0  1.9625 0 0  1.975 0 0  1.9875 0 0  2 0 0  2.0125 0 0  2.025 0 0  2.0375 0 0  2.05 0 0  2.0625 0 0  2.075 0 0  2.0875 0 0  2.1 0 0  2.1125 0 0  2.125 0 0  2.1375 0 0  2.15 0 0  2.1625 0 0  2.175 0 0  2.1875 0 0  2.2 0 0  2.2125 0 0  2.225 0 0  2.2375 0 0  2.25 0 0  2.2625 0 0  2.275 0 0  2.2875 0 0  2.3 0 0  2.3125 0 0  2.325 0 0  2.3375 0 0  2.35 0 0  2.3625 0 0  2.375 0 0  2.3875 0 0  2.4 0 0  2.4125 0 0  2.425 0 0  2.4375 0 0  2.45 0 0  2.4625 0 0  2.475 0 0  2.4875 0 0  2.5 0 0  2.5125 0 0  2.525 0 0  2.5375 0 0  2.55 0 0  2.5625 0 0  2.575 0 0  2.5875 0 0  2.6 0 0  2.6125 0 0  2.625 0 0  2.6375 0 0  2.65 0 0  2.6625 0 0  2.675 0 0  2.6875 0 0  2.7 0 0  2.7125 0 0  2.725 0 0  2.7375 0 0  2.75 0 0  2.7625 0 0  2.775 0 0  2.7875 0 0  2.8 0 0  2.8125 0 0  2.825 0 0  2.8375 0 0  2.85 0 0  2.8625 0 0  2.875 0 0  2.8875 0 0  2.9 0 0  2.9125 0 0  2.925 0 0  2.9375 0 0  2.95 0 0  2.9625 0 0  2.975 0 0  2.9875 0 0  3 0 0  3.012499999999999 0 0  3.025 0 0  3.0375 0 0  3.050000000000001 0 0  3.0625 0 0  3.074999999999999 0 0  3.0875 0 0  3.1 0 0  3.112500000000001 0 0  3.125 0 0  3.137499999999999 0 0  3.15 0 0  3.1625 0 0  3.175000000000001 0 0  3.1875 0 0  3.199999999999999 0 0  3.2125 0 0  3.225 0 0  3.237500000000001 0 0  3.25 0 0  3.262499999999999 0 0  3.275 0 0  3.2875 0 0  3.300000000000001 0 0  3.3125 0 0  3.324999999999999 0 0  3.3375 0 0  3.35 0 0  3.362500000000001 0 0  3.375 0 0  3.387499999999999 0 0  3.4 0 0  3.4125 0 0  3.425000000000001 0 0  3.4375 0 0  3.449999999999999 0 0  3.4625 0 0  3.475 0 0  3.4875
[...]
<PointData  Vectors="(h, u)"> 
<DataArray  type="Float64"  Name="(h, u)"  NumberOfComponents="3" format="ascii">2.5684026636317242e-01 0.0000000000000000e+00 0.0000000000000000e+00  2.5679008478598064e-01 7.2225966690489009e-03 0.0000000000000000e+00  2.5683730102468388e-01 1.4471034665120478e-02 0.0000000000000000e+00  2.5678419537261971e-01 2.1668046452961050e-02 0.0000000000000000e+00  2.5682840360446157e-01 2.8942583441404535e-02 0.0000000000000000e+00  2.5677241366589182e-01 3.6114266724638716e-02 0.0000000000000000e+00  2.5681356986239900e-01 4.3415162429427757e-02 0.0000000000000000e+00  2.5675473390404679e-01 5.0561774906950199e-02 0.0000000000000000e+00  2.5679279266052524e-01 5.7889291379324352e-02 0.0000000000000000e+00  2.5673114745260706e-01 6.5011093769107450e-02 0.0000000000000000e+00  2.5676606190686957e-01 7.2365494792280480e-02 0.0000000000000000e+00  2.5670164284063990e-01 7.9462752810879153e-02 0.0000000000000000e+00  2.5673336457033369e-01 8.6844302377288865e-02 0.0000000000000000e+00  2.5666620583851890e-01 9.3917288672533031e-02 0.0000000000000000e+00  2.5669468483325597e-01 1.0132624888671438e-01 0.0000000000000000e+00  2.5662481958771555e-01 1.0837524428717500e-01 0.0000000000000000e+00  2.5665000441212754e-01 1.1581187339233590e-01 0.0000000000000000e+00  2.5657746479246585e-01 1.2283716686170487e-01 0.0000000000000000e+00  2.5659930300243833e-01 1.3030171803327362e-01 0.0000000000000000e+00  2.5652411998395558e-01 1.3730360531609317e-01 0.0000000000000000e+00  2.5654255871209447e-01 1.4479632627574326e-01 0.0000000000000000e+00  2.5646476184653494e-01 1.5177510834786026e-01 0.0000000000000000e+00  2.5647974827631015e-01 1.5929624094726152e-01 0.0000000000000000e+00  2.5639936553659742e-01 1.6625222451400126e-01 0.0000000000000000e+00  2.5641084685310972e-01 1.7380200273887828e-01 0.0000000000000000e+00  2.5632790484302476e-01 1.8073550533934360e-01 0.0000000000000000e+00  2.5633582730589516e-01 1.8831415038032925e-01 0.0000000000000000e+00  2.5625035196214352e-01 1.9522551152119669e-01 0.0000000000000000e+00  2.5625465906332501e-01 2.0283322396368628e-01 0.0000000000000000e+00  2.5616667667402165e-01 2.0972282097440867e-01 0.0000000000000000e+00  2.5616730687143513e-01 2.1735977230953948e-01 0.0000000000000000e+00  2.5607684488280180e-01 2.2422803617268464e-01 0.0000000000000000e+00  2.5607372990597177e-01 2.3189436374998512e-01 0.0000000000000000e+00  2.5598081678642126e-01 2.3874178776975408e-01 0.0000000000000000e+00  2.5597388170858670e-01 2.4643759754769984e-01 0.0000000000000000e+00  2.5587854531221438e-01 2.5326473199275629e-01 0.0000000000000000e+00  2.5586771123689722e-01 2.6099011109730902e-01 0.0000000000000000e+00  2.5576997566855036e-01 2.6779754111664078e-01 0.0000000000000000e+00  2.5575516490232736e-01 2.7555257791911159e-01 0.0000000000000000e+00  2.5565504666933375e-01 2.8234088940125346e-01 0.0000000000000000e+00  2.5563618896677742e-01 2.9012569388719472e-01 0.0000000000000000e+00  2.5553369389076980e-01 2.9689543979444000e-01 0.0000000000000000e+00  2.5551073122663692e-01 3.0471015420765463e-01 0.0000000000000000e+00  2.5540585370228680e-01 3.1146183916723291e-01 0.0000000000000000e+00  2.5537874067296762e-01 3.1930663021847461e-01 0.0000000000000000e+00  2.5527146634563264e-01 3.2604072932891892e-01 0.0000000000000000e+00  2.5524016430085839e-01 3.3391575822039055e-01 0.0000000000000000e+00  2.5513047611837641e-01 3.4063277607385933e-01 0.0000000000000000e+00  2.5509494125905191e-01 3.4853815089152235e-01 0.0000000000000000e+00  2.5498282751768964e-01 3.5523871062379953e-01 0.0000000000000000e+00  2.5494299617904198e-01 3.6317443238198549e-01 0.0000000000000000e+00  2.5482845840495411e-01 3.6985936592975927e-01 0.0000000000000000e+00  2.5478423521317978e-01 3.7782528340374638e-01 0.0000000000000000e+00  2.5466729323378989e-01 3.8449568470142359e-01 0.0000000000000000e+00  2.5461854826499913e-01 3.9249147431852555e-01 0.0000000000000000e+00  2.5449924016701103e-01 3.9914868100972550e-01 0.0000000000000000e+00  2.5444581924865156e-01 4.0717386419611135e-01 0.0000000000000000e+00  2.5432419440069909e-01 4.1381935631365646e-01 0.0000000000000000e+00  2.5426594144668691e-01 4.2187336520573765e-01 0.0000000000000000e+00  2.5414204536279933e-01 4.2850860538305086e-01 0.0000000000000000e+00  2.5407883023090649e-01 4.3659089879646196e-01 0.0000000000000000e+00  2.5395268206939819e-01 4.4321716776801756e-01 0.0000000000000000e+00  2.5388442349321061e-01 4.5132738656566235e-01 0.0000000000000000e+00  2.5375598952626438e-01 4.5794568111790751e-01 0.0000000000000000e+00  2.5368266406898521e-01 4.6608380541108568e-01 0.0000000000000000e+00  2.5355183635129902e-01 4.7269483407908014e-01 0.0000000000000000e+00  2.5347347109034862e-01 4.8086127263766909e-01 0.0000000000000000e+00  2.5334006276597243e-01 4.8746554603193426e-01 0.0000000000000000e+00  2.5325671566505109e-01 4.9566108777397516e-01 0.0000000000000000e+00  2.5312048374945167e-01 5.0225905434869511e-01 0.0000000000000000e+00  2.5303222155683452e-01 5.1048463310706937e-01 0.0000000000000000e+00  2.5289291700691846e-01 5.1707681756591506e-01 0.0000000000000000e+00  2.5279979228443694e-01 5.2533315420355742e-01 0.0000000000000000e+00  2.5265721959158494e-01 5.3192030834677639e-01 0.0000000000000000e+00  2.5255924450671435e-01 5.4020756627520883e-01 0.0000000000000000e+00  2.5241330395879541e-01 5.4679086480987205e-01 0.0000000000000000e+00  2.5231041210976640e-01 5.5510851232345937e-01 0.0000000000000000e+00  2.5216109969681527e-01 5.6168981552170150e-01 0.0000000000000000e+00  2.5205310866127056e-01 5.7003673568306545e-01 0.0000000000000000e+00  2.5190048467234066e-01 5.7661875371028015e-01 0.0000000000000000e+00  2.5178708562352387e-01 5.8499350379261594e-01 0.0000000000000000e+00  2.5163123117777109e-01 5.9157971292885048e-01 0.0000000000000000e+00  2.5151203809108974e-01 5.9998072100729227e-01 0.0000000000000000e+00  2.5135304118342644e-01 6.0657482206993985e-01 0.0000000000000000e+00  2.5122769717230409e-01 6.1500044751687344e-01 0.0000000000000000e+00  2.5106563320616304e-01 6.2160570725273323e-01 0.0000000000000000e+00  2.5093390512013403e-01 6.3005444427537816e-01 0.0000000000000000e+00  2.5076879159148369e-01 6.3667321631606033e-01 0.0000000000000000e+00  2.5063059936757326e-01 6.4514419572548054e-01 0.0000000000000000e+00  2.5046227481441885e-01 6.5177811166922217e-01 0.0000000000000000e+00  2.5031763157904802e-01 6.6027188453337504e-01 0.0000000000000000e+00  2.5014568804323362e-01 6.6692205330903942e-01 0.0000000000000000e+00  2.4999469153157125e-01 6.7544066327345431e-01 0.0000000000000000e+00  2.4981850021164312e-01 6.8210770762233142e-01 0.0000000000000000e+00  2.4966135446017387e-01 6.9065414775954670e-01 0.0000000000000000e+00  2.4948026147071833e-01 6.9733758468413709e-01 0.0000000000000000e+00  2.4931736213259237e-01 7.0591448492621356e-01 0.0000000000000000e+00  2.4913077077466164e-01 7.1261312696271917e-01 0.0000000000000000e+00  2.4896251116365950e-01 7.2122295624444110e-01 0.0000000000000000e+00  2.4876988163014141e-01 7.2793597394048692e-01 0.0000000000000000e+00  2.4859646491469567e-01 7.3658116113293826e-01 0.0000000000000000e+00  2.4839716183162924e-01 7.4331004236369158e-01 0.0000000000000000e+00  2.4821837226848731e-01 7.5199351745400100e-01 0.0000000000000000e+00  2.4801197629630023e-01 7.5874085657422885e-01 0.0000000000000000e+00  2.4782754394519724e-01 7.6746320883559727e-01 0.0000000000000000e+00  2.4761395939267419e-01 7.7423236230885562e-01 0.0000000000000000e+00  2.4742349086001389e-01 7.8299218417624328e-01 0.0000000000000000e+00  2.4720314262603610e-01 7.8978587010869927e-01 0.0000000000000000e+00  2.4700606304751507e-01 7.9858053080263347e-01 0.0000000000000000e+00  2.4677898319091829e-01 8.0540593623336287e-01 0.0000000000000000e+00  2.4657408908013115e-01 8.1423524913968304e-01 0.0000000000000000e+00  2.4634057419108168e-01 8.2109886704181656e-01 0.0000000000000000e+00  2.4612666779462034e-01 8.2996225939446810e-01 0.0000000000000000e+00  2.4588675785074246e-01 8.3687192848018355e-01 0.0000000000000000e+00  2.4566324001308892e-01 8.4576597829156097e-01 0.0000000000000000e+00  2.4541796420450671e-01 8.5272175830687980e-01 0.0000000000000000e+00  2.4518380095479494e-01 8.6164790930741741e-01 0.0000000000000000e+00  2.4493256364383506e-01 8.6865752148376185e-01 0.0000000000000000e+00  2.4468714743921538e-01 8.7761754281764714e-01 0.0000000000000000e+00  2.4442962774117419e-01 8.8468367910850165e-01 0.0000000000000000e+00  2.4417108196085877e-01 8.9369086574029022e-01 0.0000000000000000e+00  2.4390709859420073e-01 9.0081182325905584e-01 0.0000000000000000e+00  2.4363705758832799e-01 9.0986067785497793e-01 0.0000000000000000e+00  2.4336577248479452e-01 9.1703571766940639e-01 0.0000000000000000e+00  2.4308212929470183e-01 9.2614734148037881e-01 0.0000000000000000e+00  2.4280388702163688e-01 9.3336581199113766e-01 0.0000000000000000e+00  2.4250634617345188e-01 9.4255172197350545e-01 0.0000000000000000e+00  2.4221674856026565e-01 9.4983186523474772e-01 0.0000000000000000e+00  2.4190595427614367e-01 9.5909820580998795e-01 0.0000000000000000e+00  2.4160942061774512e-01 9.6640231869936299e-01 0.0000000000000000e+00  2.4128163729589727e-01 9.7578234847191403e-01 0.0000000000000000e+00  2.4097433058979500e-01 9.8312675688072881e-01 0.0000000000000000e+00  2.4063349722499774e-01 9.9260276181727380e-01 0.0000000000000000e+00  2.4031238312005496e-01 1.0000014246198550e+00 0.0000000000000000e+00  2.3994926677291556e-01 1.0096366112047446e+00 0.0000000000000000e+00  2.3962517987614324e-01 1.0170184488078104e+00 0.0000000000000000e+00  2.3924212780754481e-01 1.0267983859703922e+00 0.0000000000000000e+00  2.3890109585608890e-01 1.0342548312714073e+00 0.0000000000000000e+00  2.3850130934167724e-01 1.0441556260594151e+00 0.0000000000000000e+00  2.3815279518191748e-01 1.0516320495882023e+00 0.0000000000000000e+00  2.3771228897276941e-01 1.0618005849142238e+00 0.0000000000000000e+00  2.3736983031520165e-01 1.0692192942956229e+00 0.0000000000000000e+00  2.3690701699465075e-01 1.0795277451977563e+00 0.0000000000000000e+00  2.3653924251921879e-01 1.0871018942543156e+00 0.0000000000000000e+00  2.3605401250074518e-01 1.0975395390671252e+00 0.0000000000000000e+00  2.3569368066986834e-01 1.1050709502287561e+00 0.0000000000000000e+00  2.3514037711315014e-01 1.1159204954760495e+00 0.0000000000000000e+00  2.3481378885823151e-01 1.1232515547095963e+00 0.0000000000000000e+00  2.3422885028077606e-01 1.1342674779904700e+00 0.0000000000000000e+00  2.3386203594966948e-01 1.1418867475774626e+00 0.0000000000000000e+00  2.3328143613589469e-01 1.1528278002959200e+00 0.0000000000000000e+00  2.3292303954490312e-01 1.1604284273545815e+00 0.0000000000000000e+00  2.3226023981795521e-01 1.1718504694810974e+00 0.0000000000000000e+00  2.3201244584473177e-01 1.1787726360232444e+00 0.0000000000000000e+00  2.3124022075741341e-01 1.1908525419462990e+00 0.0000000000000000e+00  2.3101893332306228e-01 1.1976416421473912e+00 0.0000000000000000e+00  2.3032192406903648e-01 1.2091805479710973e+00 0.0000000000000000e+00  2.3000778459661270e-01 1.2166107840231069e+00 0.0000000000000000e+00  2.2942089381737887e-01 1.2273845605234530e+00 0.0000000000000000e+00  2.2910243457057086e-01 1.2348724295305311e+00 0.0000000000000000e+00  2.2844457473952481e-01 1.2460719642596609e+00 0.0000000000000000e+00  2.2840677510125118e-01 1.2517403047856024e+00 0.0000000000000000e+00  2.2745230988760698e-01 1.2648606718838151e+00 0.0000000000000000e+00  2.2779701955412210e-01 1.2680159925128007e+00 0.0000000000000000e+00  2.2654651677845603e-01 1.2830842346132905e+00 0.0000000000000000e+00  2.2724855879567132e-01 1.2838582709473452e+00 0.0000000000000000e+00  2.2578648143618052e-01 1.3003436131811474e+00 0.0000000000000000e+00  2.2667576794633554e-01 1.2998525639317227e+00 0.0000000000000000e+00  2.2517147943927476e-01 1.3166018199183456e+00 0.0000000000000000e+00  2.2616447299252398e-01 1.3154821797343783e+00 0.0000000000000000e+00  2.2462415729901242e-01 1.3323340250211269e+00 0.0000000000000000e+00  2.2567442484111805e-01 1.3309891463905630e+00 0.0000000000000000e+00  2.2419655620400378e-01 1.3473253874919047e+00 0.0000000000000000e+00  2.2520603373942807e-01 1.3460991426095810e+00 0.0000000000000000e+00  2.2381956575619580e-01 1.3624242881007984e+00 0.0000000000000000e+00  2.2476293535928379e-01 1.3604062958203798e+00 0.0000000000000000e+00  2.2354454620067749e-01 1.3773814540495688e+00 0.0000000000000000e+00  2.2430959513195783e-01 1.3747544014462971e+00 0.0000000000000000e+00  2.2324183581506737e-01 1.3913378440374111e+00 0.0000000000000000e+00  2.2413022330918034e-01 1.3902169565586560e+00 0.0000000000000000e+00  2.2256261952439024e-01 1.4029574433967336e+00 0.0000000000000000e+00  2.2442082691028345e-01 1.4081732571971777e+00 0.0000000000000000e+00  2.2165211762654249e-01 1.4124181015979025e+00 0.0000000000000000e+00  2.2446073302985778e-01 1.4247245268602411e+00 0.0000000000000000e+00  2.2194365291605098e-01 1.4292318805224895e+00 0.0000000000000000e+00  2.2211186374407088e-01 1.4251080201380304e+00 0.0000000000000000e+00  2.2569250383416323e-01 1.4690587182633843e+00 0.0000000000000000e+00  2.1613313200645534e-01 1.4006117467430417e+00 0.0000000000000000e+00  2.3082142129076222e-01 1.5165257879320930e+00 0.0000000000000000e+00  2.1281595596397254e-01 1.3996445991400417e+00 0.0000000000000000e+00  2.1989777837111499e-01 1.4421066715372814e+00 0.0000000000000000e+00  2.0044564737430645e-01 1.3990496082394830e+00 0.0000000000000000e+00  3.3782667198113688e-02 -6.8391250785405211e-01 0.0000000000000000e+00  3.4337852395076675e-02 -1.0039655225921149e+00 0.0000000000000000e+00  3.2927070525834795e-02 -9.6752595692376753e-01 0.0000000000000000e+00  3.3245264893227121e-02 -9.4875473338254168e-01 0.0000000000000000e+00  3.3088450895216788e-02 -9.6140188112123959e-01 0.0000000000000000e+00  3.3314298231582391e-02 -9.4768966219301043e-01 0.0000000000000000e+00  3.2851669002210336e-02 -9.4641832927901515e-01 0.0000000000000000e+00  3.3415918746589050e-02 -9.4309561506256323e-01 0.0000000000000000e+00  3.2712973495487511e-02 -9.3546741427718116e-01 0.0000000000000000e+00  3.3428184631319448e-02 -9.3562291024307098e-01 0.0000000000000000e+00  3.2640425165835256e-02 -9.2606178407951811e-01 0.0000000000000000e+00  3.3408631541310609e-02 -9.2727828733682860e-01 0.0000000000000000e+00  3.2588883739301876e-02 -9.1699880621310381e-01 0.0000000000000000e+00  3.3383845965669096e-02 -9.1870274689785847e-01 0.0000000000000000e+00  3.2544042435399718e-02 -9.0797282192602446e-01 0.0000000000000000e+00  3.3360172885677969e-02 -9.1003947003516505e-01 0.0000000000000000e+00  3.2502740310170218e-02 -8.9892801438640557e-01 0.0000000000000000e+00  3.3338600656911854e-02 -9.0131717905865882e-01 0.0000000000000000e+00  3.2464226981508013e-02 -8.8985716382744584e-01 0.0000000000000000e+00  3.3319152914098399e-02 -8.9254452963238573e-01 0.0000000000000000e+00  3.2428196994389154e-02 -8.8076067752125653e-01 0.0000000000000000e+00  3.3301669701204295e-02 -8.8372614549350059e-01 0.0000000000000000e+00  3.2394494109745806e-02 -8.7164075731362367e-01 0.0000000000000000e+00  3.3285922946839908e-02 -8.7486488381374627e-01 0.0000000000000000e+00  3.2363037638000886e-02 -8.6250029179277410e-01 0.0000000000000000e+00  3.3271674221631270e-02 -8.6596274564294318e-01 0.0000000000000000e+00  3.2333765628883300e-02 -8.5334215119983325e-01 0.0000000000000000e+00  3.3258717019101311e-02 -8.5702147726223477e-01 0.0000000000000000e+00  3.2306601035493661e-02 -8.4416884728602970e-01 0.0000000000000000e+00  3.3246893866116449e-02 -8.4804278195198235e-01 0.0000000000000000e+00  3.2281441646551091e-02 -8.3498251722087824e-01 0.0000000000000000e+00  3.3236095251077361e-02 -8.3902830895864189e-01 0.0000000000000000e+00  3.2258162854312177e-02 -8.2578501552513239e-01 0.0000000000000000e+00  3.3226251373226733e-02 -8.2997961553461386e-01 0.0000000000000000e+00  3.2236624572649766e-02 -8.1657796646187575e-01 0.0000000000000000e+00  3.3217321749803359e-02 -8.2089819792182450e-01 0.0000000000000000e+00  3.2216679897854546e-02 -8.0736273396382219e-01 0.0000000000000000e+00  3.3209284458046821e-02 -8.1178557425275233e-01 0.0000000000000000e+00  3.2198183534180080e-02 -7.9814036870760408e-01 0.0000000000000000e+00  3.3202125176785023e-02 -8.0264337797373386e-01 0.0000000000000000e+00  3.2181002451013421e-02 -7.8891152518287511e-01 0.0000000000000000e+00  3.3195825022404167e-02 -7.9347345534404135e-01 0.0000000000000000e+00  3.2165023062935227e-02 -7.7967645787887152e-01 0.0000000000000000e+00  3.3190355559090896e-02 -7.8427782462784479e-01 0.0000000000000000e+00  3.2150156391777450e-02 -7.7043506001046058e-01 0.0000000000000000e+00  3.3185667434933667e-02 -7.7505874672957920e-01 0.0000000000000000e+00  3.2136345773219617e-02 -7.6118684821426641e-01 0.0000000000000000e+00  3.3181697012367312e-02 -7.6581850294586729e-01 0.0000000000000000e+00  3.2123546371884477e-02 -7.5193141153929410e-01 0.0000000000000000e+00  3.3178373336886155e-02 -7.5655919792956627e-01 0.0000000000000000e+00  3.2111747760804506e-02 -7.4266807804343016e-01 0.0000000000000000e+00  3.3175593470360150e-02 -7.4728314383764005e-01 0.0000000000000000e+00  3.2100941281612387e-02 -7.3339650533448852e-01 0.0000000000000000e+00  3.3173313462226670e-02 -7.3799128335153130e-01 0.0000000000000000e+00  3.2091069704474937e-02 -7.2411754080618118e-01 0.0000000000000000e+00  3.3171451414877519e-02 -7.2868489380756940e-01 0.0000000000000000e+00  3.2082203484180921e-02 -7.1483011874319868e-01 0.0000000000000000e+00  3.3169882324669948e-02 -7.1936572148332334e-01 0.0000000000000000e+00  3.2074220768716973e-02 -7.0553676398434340e-01 0.0000000000000000e+00  3.3168816464167264e-02 -7.1002951689815819e-01 0.0000000000000000e+00  3.2066927053704238e-02 -6.9624142555088375e-01 0.0000000000000000e+00  3.3167992230958170e-02 -7.0068006549773443e-01 0.0000000000000000e+00  3.2060833058103685e-02 -6.8693589323134807e-01 0.0000000000000000e+00  3.3167089715220366e-02 -6.9132208171640308e-01 0.0000000000000000e+00  3.2055306412817501e-02 -6.7763186824263344e-01 0.0000000000000000e+00  3.3167423612132020e-02 -6.8193206037312837e-01 0.0000000000000000e+00  3.2049462224990249e-02 -6.6834534836583359e-01 0.0000000000000000e+00  3.3167809592046675e-02 -6.7252981336616358e-01 0.0000000000000000e+00  3.2046535619829716e-02 -6.5902062120171101e-01 0.0000000000000000e+00  3.3165106295768000e-02 -6.6316897225634830e-01 0.0000000000000000e+00  3.2045905265540298e-02 -6.4966903079737204e-01 0.0000000000000000e+00  3.3165233555594115e-02 -6.5374667461395897e-01 0.0000000000000000e+00  3.2039243167298816e-02 -6.4043558605622852e-01 0.0000000000000000e+00  3.3171423372914191e-02 -6.4420704938070794e-01 0.0000000000000000e+00  3.2035467722446767e-02 -6.3116500556614186e-01 0.0000000000000000e+00  3.3161034426101701e-02 -6.3494145471576080e-01 0.0000000000000000e+00  3.2062491872321894e-02 -6.2137223968216926e-01 0.0000000000000000e+00  3.3115874828284098e-02 -6.2626363069548041e-01 0.0000000000000000e+00  3.2112906784468667e-02 -6.1118722393485869e-01 0.0000000000000000e+00  3.3076527065560600e-02 -6.1747127488646636e-01 0.0000000000000000e+00  3.2119104044983200e-02 -6.0178479013001629e-01 0.0000000000000000e+00  3.3118050144766834e-02 -6.0726773120812749e-01 0.0000000000000000e+00  3.2022912069164230e-02 -5.9417374498037934e-01 0.0000000000000000e+00  3.3260476344019893e-02 -5.9531197275429748e-01 0.0000000000000000e+00  3.1850390328454298e-02 -5.8789985409338408e-01 0.0000000000000000e+00  3.3442634962185233e-02 -5.8266674570515209e-01 0.0000000000000000e+00  3.1683068774860372e-02 -5.8154353412905313e-01 0.0000000000000000e+00  3.3588286047778269e-02 -5.7064866366641409e-01 0.0000000000000000e+00  3.1577990858302762e-02 -5.7410944109979545e-01 0.0000000000000000e+00  3.3665587798947690e-02 -5.5980401341155150e-01 0.0000000000000000e+00  3.1539951892559370e-02 -5.6551318764607206e-01 0.000000000