<?xml version="1.0"?>
<VTKFile type="UnstructuredGrid"  version="0.1"  >
<UnstructuredGrid>
<Piece  NumberOfPoints="801" NumberOfCells="800">
<Points>
<DataArray  type="Float64"  NumberOfComponents="3"  format="ascii">-5 0 0  -4.9875 0 0  -4.975 0 0  -4.9625 0 0  -4.95 0 0  -4.9375 0 0  -4.925 0 0  -4.9125 0 0  -4.9 0 0  -4.8875 0 0  -4.875 0 0  -4.8625 0 0  -4.85 0 0  -4.8375 0 0  -4.825 0 0  -4.8125 0 0  -4.8 0 0  -4.7875 0 0  -4.775 0 0  -4.7625 0 0  -4.75 0 0  -4.7375 0 0  -4.725 0 0  -4.7125 0 0  -4.7 0 0  -4.6875 0 0  -4.675 0 0  -4.6625 0 0  -4.65 0 0  -4.6375 0 0  -4.625 0 0  -4.6125 0 0  -4.6 0 0  -4.5875 0 0  -4.575 0 0  -4.5625 0 0  -4.55 0 0  -4.5375 0 0  -4.525 0 0  -4.5125 0 0  -4.5 0 0  -4.4875 0 0  -4.475 0 0  -4.4625 0 0  -4.45 0 0  -4.4375 0 0  -4.425 0 0  -4.4125 0 0  -4.4 0 0  -4.3875 0 0  -4.375 0 0  -4.3625 0 0  -4.35 0 0  -4.3375 0 0  -4.325 0 0  -4.3125 0 0  -4.3 0 0  -4.2875 0 0  -4.275 0 0  -4.2625 0 0  -4.25 0 0  -4.2375 0 0  -4.225 0 0  -4.2125 0 0  -4.2 0 0  -4.1875 0 0  -4.175 0 0  -4.1625 0 0  -4.15 0 0  -4.1375 0 0  -4.125 0 0  -4.1125 0 0  -4.1 0 0  -4.0875 0 0  -4.075 0 0  -4.0625 0 0  -4.05 0 0  -4.0375 0 0  -4.025 0 0  -4.0125 0 0  -4 0 0  -3.9875 0 0  -3.975 0 0  -3.9625 0 0  -3.95 0 0  -3.9375 0 0  -3.925 0 0  -3.9125 0 0  -3.9 0 0  -3.8875 0 0  -3.875 0 0  -3.8625 0 0  -3.85 0 0  -3.8375 0 0  -3.825 0 0  -3.8125 0 0  -3.8 0 0  -3.7875 0 0  -3.775 0 0  -3.7625 0 0  -3.75 0 0  -3.7375 0 0  -3.725 0 0  -3.7125 0 0  -3.7 0 0  -3.6875 0 0  -3.675 0 0  -3.6625 0 0  -3.65 0 0  -3.6375 0 0  -3.625 0 0  -3.6125 0 0  -3.6 0 0  -3.5875 0 0  -3.575 0 0  -3.5625 0 0  -3.55 0 0  -3.5375 0 0  -3.525 0 0  -3.5125 0 0  -3.5 0 0  -3.4875 0 0  -3.475 0 0  -3.4625 0 0  -3.45 0 0  -3.4375 0 0  -3.425 0 0  -3.4125 0 0  -3.4 0 0  -3.3875 0 0  -3.375 0 0  -3.3625 0 0  -3.35 0 0  -3.3375 0 0  -3.325 0 0  -3.3125 0 0  -3.3 0 0  -3.2875 0 0  -3.275 0 0  -3.2625 0 0  -3.25 0 0  -3.2375 0 0  -3.225 0 0  -3.2125 0 0  -3.2 0 0  -3.1875 0 0  -3.175 0 0  -3.1625 0 0  -3.15 0 0  -3.1375 0 0  -3.125 0 0  -3.1125 0 0  -3.1 0 0  -3.0875 0 0  -3.075 0 0  -3.0625 0 0  -3.05 0 0  -3.0375 0 0  -3.025 0 0  -3.0125 0 0  -3 0 0  -2.9875 0 0  -2.975 0 0  -2.9625 0 0  -2.95 0 0  -2.9375 0 0  -2.925 0 0  -2.9125 0 0  -2.9 0 0  -2.8875 0 0  -2.875 0 0  -2.8625 0 0  -2.85 0 0  -2.8375 0 0  -2.825 0 0  -2.8125 0 0  -2.8 0 0  -2.7875 0 0  -2.775 0 0  -2.7625 0 0  -2.75 0 0  -2.7375 0 0  -2.725 0 0  -2.7125 0 0  -2.7 0 0  -2.6875 0 0  -2.675 0 0  -2.6625 0 0  -2.65 0 0  -2.6375 0 0  -2.625 0 0  -2.6125 0 0  -2.6 0 0  -2.5875 0 0  -2.575 0 0  -2.5625 0 0  -2.55 0 0  -2.5375 0 0  -2.525 0 0  -2.5125 0 0  -2.5 0 0  -2.4875 0 0  -2.475 0 0  -2.4625 0 0  -2.45 0 0  -2.4375 0 0  -2.425 0 0  -2.4125 0 0  -2.4 0 0  -2.3875 0 0  -2.375 0 0  -2.3625 0 0  -2.35 0 0  -2.3375 0 0  -2.325 0 0  -2.3125 0 0  -2.3 0 0  -2.2875 0 0  -2.275 0 0  -2.2625 0 0  -2.25 0 0  -2.2375 0 0  -2.225 0 0  -2.2125 0 0  -2.2 0 0  -2.1875 0 0  -2.175 0 0  -2.1625 0 0  -2.15 0 0  -2.1375 0 0  -2.125 0 0  -2.1125 0 0  -2.1 0 0  -2.0875 0 0  -2.075 0 0  -2.0625 0 0  -2.05 0 0  -2.0375 0 0  -2.025 0 0  -2.0125 0 0  -2 0 0  -1.9875 0 0  -1.975 0 0  -1.9625 0 0  -1.95 0 0  -1.9375 0 0  -1.925 0 0  -1.9125 0 0  -1.9 0 0  -1.8875 0 0  -1.875 0 0  -1.8625 0 0  -1.85 0 0  -1.8375 0 0  -1.825 0 0  -1.8125 0 0  -1.8 0 0  -1.7875 0 0  -1.775 0 0  -1.7625 0 0  -1.75 0 0  -1.7375 0 0  -1.725 0 0  -1.7125 0 0  -1.7 0 0  -1.6875 0 0  -1.675 0 0  -1.6625 0 0  -1.65 0 0  -1.6375 0 0  -1.625 0 0  -1.6125 0 0  -1.6 0 0  -1.5875 0 0  -1.575 0 0  -1.5625 0 0  -1.55 0 0  -1.5375 0 0  -1.525 0 0  -1.5125 0 0  -1.5 0 0  -1.4875 0 0  -1.475 0 0  -1.4625 0 0  -1.45 0 0  -1.4375 0 0  -1.425 0 0  -1.4125 0 0  -1.4 0 0  -1.3875 0 0  -1.375 0 0  -1.3625 0 0  -1.35 0 0  -1.3375 0 0  -1.325 0 0  -1.3125 0 0  -1.3 0 0  -1.2875 0 0  -1.275 0 0  -1.2625 0 0  -1.25 0 0  -1.2375 0 0  -1.225 0 0  -1.2125 0 0  -1.2 0 0  -1.1875 0 0  -1.175 0 0  -1.1625 0 0  -1.15 0 0  -1.1375 0 0  -1.125 0 0  -1.1125 0 0  -1.1 0 0  -1.0875 0 0  -1.075 0 0  -1.0625 0 0  -1.05 0 0  -1.0375 0 0  -1.025 0 0  -1.0125 0 0  -1 0 0  -0.9874999999999998 0 0  -0.9749999999999996 0 0  -0.9625000000000004 0 0  -0.9500000000000002 0 0  -0.9375 0 0  -0.9249999999999998 0 0  -0.9124999999999996 0 0  -0.9000000000000004 0 0  -0.8875000000000002 0 0  -0.875 0 0  -0.8624999999999998 0 0  -0.8499999999999996 0 0  -0.8375000000000004 0 0  -0.8250000000000002 0 0  -0.8125 0 0  -0.7999999999999998 0 0  -0.7874999999999996 0 0  -0.7750000000000004 0 0  -0.7625000000000002 0 0  -0.75 0 0  -0.7374999999999998 0 0  -0.7249999999999996 0 0  -0.7125000000000004 0 0  -0.7000000000000002 0 0  -0.6875 0 0  -0.6749999999999998 0 0  -0.6624999999999996 0 0  -0.6500000000000004 0 0  -0.6375000000000002 0 0  -0.625 0 0  -0.6124999999999998 0 0  -0.5999999999999996 0 0  -0.5875000000000004 0 0  -0.5750000000000002 0 0  -0.5625 0 0  -0.5499999999999998 0 0  -0.5374999999999996 0 0  -0.5250000000000004 0 0  -0.5125000000000002 0 0  -0.5 0 0  -0.4874999999999998 0 0  -0.4749999999999996 0 0  -0.4625000000000004 0 0  -0.4500000000000002 0 0  -0.4375 0 0  -0.4249999999999998 0 0  -0.4124999999999996 0 0  -0.4000000000000004 0 0  -0.3875000000000002 0 0  -0.375 0 0  -0.3624999999999998 0 0  -0.3499999999999996 0 0  -0.3375000000000004 0 0  -0.3250000000000002 0 0  -0.3125 0 0  -0.2999999999999998 0 0  -0.2874999999999996 0 0  -0.2750000000000004 0 0  -0.2625000000000002 0 0  -0.25 0 0  -0.2374999999999998 0 0  -0.2249999999999996 0 0  -0.2125000000000004 0 0  -0.2000000000000002 0 0  -0.1875 0 0  -0.1749999999999998 0 0  -0.1624999999999996 0 0  -0.1500000000000004 0 0  -0.1375000000000002 0 0  -0.125 0 0  -0.1124999999999998 0 0  -0.09999999999999964 0 0  -0.08750000000000036 0 0  -0.07500000000000018 0 0  -0.0625 0 0  -0.04999999999999982 0 0  -0.03749999999999964 0 0  -0.02500000000000036 0 0  -0.01250000000000018 0 0  0 0 0  0.01250000000000018 0 0  0.02500000000000036 0 0  0.03749999999999964 0 0  0.04999999999999982 0 0  0.0625 0 0  0.07500000000000018 0 0  0.08750000000000036 0 0  0.09999999999999964 0 0  0.1124999999999998 0 0  0.125 0 0  0.1375000000000002 0 0  0.1500000000000004 0 0  0.1624999999999996 0 0  0.1749999999999998 0 0  0.1875 0 0  0.2000000000000002 0 0  0.2125000000000004 0 0  0.2249999999999996 0 0  0.2374999999999998 0 0  0.25 0 0  0.2625000000000002 0 0  0.2750000000000004 0 0  0.2874999999999996 0 0  0.2999999999999998 0 0  0.3125 0 0  0.3250000000000002 0 0  0.3375000000000004 0 0  0.3499999999999996 0 0  0.3624999999999998 0 0  0.375 0 0  0.3875000000000002 0 0  0.4000000000000004 0 0  0.4124999999999996 0 0  0.4249999999999998 0 0  0.4375 0 0  0.4500000000000002 0 0  0.4625000000000004 0 0  0.4749999999999996 0 0  0.4874999999999998 0 0  0.5 0 0  0.5125000000000002 0 0  0.5250000000000004 0 0  0.5374999999999996 0 0  0.5499999999999998 0 0  0.5625 0 0  0.5750000000000002 0 0  0.5875000000000004 0 0  0.5999999999999996 0 0  0.6124999999999998 0 0  0.625 0 0  0.6375000000000002 0 0  0.6500000000000004 0 0  0.6624999999999996 0 0  0.6749999999999998 0 0  0.6875 0 0  0.7000000000000002 0 0  0.7125000000000004 0 0  0.7249999999999996 0 0  0.7374999999999998 0 0  0.75 0 0  0.7625000000000002 0 0  0.7750000000000004 0 0  0.7874999999999996 0 0  0.7999999999999998 0 0  0.8125 0 0  0.8250000000000002 0 0  0.8375000000000004 0 0  0.8499999999999996 0 0  0.8624999999999998 0 0  0.875 0 0  0.8875000000000002 0 0  0.9000000000000004 0 0  0.9124999999999996 0 0  0.9249999999999998 0 0  0.9375 0 0  0.9500000000000002 0 0  0.9625000000000004 0 0  0.9749999999999996 0 0  0.9874999999999998 0 0  1 0 0  1.0125 0 0  1.025 0 0  1.0375 0 0  1.05 0 0  1.0625 0 0  1.075 0 0  1.0875 0 0  1.1 0 0  1.1125 0 0  1.125 0 0  1.1375 0 0  1.15 0 0  1.1625 0 0  1.175 0 0  1.1875 0 0  1.2 0 0  1.2125 0 0  1.225 0 0  1.2375 0 0  1.25 0 0  1.2625 0 0  1.275 0 0  1.2875 0 0  1.3 0 0  1.3125 0 0  1.325 0 0  1.3375 0 0  1.35 0 0  1.3625 0 0  1.375 0 0  1.3875 0 0  1.4 0 0  1.4125 0 0  1.425 0 0  1.4375 0 0  1.45 0 0  1.4625 0 0  1.475 0 0  1.4875 0 0  1.5 0 0  1.5125 0 0  1.525 0 0  1.5375 0 0  1.55 0 0  1.5625 0 0  1.575 0 0  1.5875 0 0  1.6 0 0  1.6125 0 0  1.625 0 0  1.6375 0 0  1.65 0 0  1.6625 0 0  1.675 0 0  1.6875 0 0  1.7 0 0  1.7125 0 0  1.725 0 0  1.7375 0 0  1.75 0 0  1.7625 0 0  1.775 0 0  1.7875 0 0  1.8 0 0  1.8125 0 0  1.825 0 0  1.8375 0 0  1.85 0 0  1.8625 0 0  1.875 0 0  1.8875 0 0  1.9 0 0  1.9125 0 0  1.925 0 0  1.9375 0 0  1.95 0 0  1.9625 0 0  1.975 0 0  1.9875 0 0  2 0 0  2.0125 0 0  2.025 0 0  2.0375 0 0  2.05 0 0  2.0625 0 0  2.075 0 0  2.0875 0 0  2.1 0 0  2.1125 0 0  2.125 0 0  2.1375 0 0  2.15 0 0  2.1625 0 0  2.175 0 0  2.1875 0 0  2.2 0 0  2.2125 0 0  2.225 0 0  2.2375 0 0  2.25 0 0  2.2625 0 0  2.275 0 0  2.2875 0 0  2.3 0 0  2.3125 0 0  2.325 0 0  2.3375 0 0  2.35 0 0  2.3625 0 0  2.375 0 0  2.3875 0 0  2.4 0 0  2.4125 0 0  2.425 0 0  2.4375 0 0  2.45 0 0  2.4625 0 0  2.475 0 0  2.4875 0 0  2.5 0 0  2.5125 0 0  2.525 0 0  2.5375 0 0  2.55 0 0  2.5625 0 0  2.575 0 0  2.5875 0 0  2.6 0 0  2.6125 0 0  2.625 0 0  2.6375 0 0  2.65 0 0  2.6625 0 0  2.675 0 0  2.6875 0 0  2.7 0 0  2.7125 0 0  2.725 0 0  2.7375 0 0  2.75 0 0  2.7625 0 0  2.775 0 0  2.7875 0 0  2.8 0 0  2.8125 0 0  2.825 0 0  2.8375 0 0  2.85 0 0  2.8625 0 0  2.875 0 0  2.8875 0 0  2.9 0 0  2.9125 0 0  2.925 0 0  2.9375 0 0  2.95 0 0  2.9625 0 0  2.975 0 0  2.9875 0 0  3 0 0  3.012499999999999 0 0  3.025 0 0  3.0375 0 0  3.050000000000001 0 0  3.0625 0 0  3.074999999999999 0 0  3.0875 0 0  3.1 0 0  3.112500000000001 0 0  3.125 0 0  3.137499999999999 0 0  3.15 0 0  3.1625 0 0  3.175000000000001 0 0  3.1875 0 0  3.199999999999999 0 0  3.2125 0 0  3.225 0 0  3.237500000000001 0 0  3.25 0 0  3.262499999999999 0 0  3.275 0 0  3.2875 0 0  3.300000000000001 0 0  3.3125 0 0  3.324999999999999 0 0  3.3375 0 0  3.35 0 0  3.362500000000001 0 0  3.375 0 0  3.387499999999999 0 0  3.4 0 0  3.4125 0 0  3.425000000000001 0 0  3.4375 0 0  3.449999999999999 0 0  3.4625 0 0  3.475 0 0  3.4875
[...]
<PointData  Vectors="(h, u)"> 
<DataArray  type="Float64"  Name="(h, u)"  NumberOfComponents="3" format="ascii">5.4565346411460969e-01 0.0000000000000000e+00 0.0000000000000000e+00  5.4391805987523678e-01 1.2556254293977073e-02 0.0000000000000000e+00  5.4548319584720728e-01 2.4227990743422998e-02 0.0000000000000000e+00  5.4413038004657277e-01 3.7527677383579171e-02 0.0000000000000000e+00  5.4529994812965354e-01 4.8812891967147304e-02 0.0000000000000000e+00  5.4406112768660464e-01 6.1730439349142734e-02 0.0000000000000000e+00  5.4549892703570013e-01 7.4482165602633377e-02 0.0000000000000000e+00  5.4363938366343156e-01 8.5111851742699876e-02 0.0000000000000000e+00  5.4572978514054860e-01 1.0011692304946239e-01 0.0000000000000000e+00  5.4354672454317465e-01 1.0976590169560003e-01 0.0000000000000000e+00  5.4529754507566885e-01 1.2333892905121437e-01 0.0000000000000000e+00  5.4409616000676786e-01 1.3702772736477745e-01 0.0000000000000000e+00  5.4451953319864288e-01 1.4533629035155332e-01 0.0000000000000000e+00  5.4431136969081917e-01 1.6301280085258490e-01 0.0000000000000000e+00  5.4472628207981266e-01 1.7133030224889037e-01 0.0000000000000000e+00  5.4315968307101492e-01 1.8336424898000583e-01 0.0000000000000000e+00  5.4599632086634164e-01 2.0199523186903606e-01 0.0000000000000000e+00  5.4179908361657314e-01 2.0297841834968852e-01 0.0000000000000000e+00  5.4609494087414678e-01 2.2783799984409259e-01 0.0000000000000000e+00  5.4276714007765947e-01 2.3236744183840891e-01 0.0000000000000000e+00  5.4348715815627413e-01 2.4219777668311299e-01 0.0000000000000000e+00  5.4550101684805596e-01 2.6955480650802710e-01 0.0000000000000000e+00  5.4111773450936973e-01 2.5781249365376330e-01 0.0000000000000000e+00  5.4527815979114747e-01 2.9427018696421481e-01 0.0000000000000000e+00  5.4378598821544988e-01 2.9465856817977126e-01 0.0000000000000000e+00  5.3970508044458587e-01 2.9617026926002171e-01 0.0000000000000000e+00  5.4956935024093545e-01 3.4507657071695275e-01 0.0000000000000000e+00  5.3525269123157138e-01 3.0314788094691403e-01 0.0000000000000000e+00  5.4890621136969919e-01 3.6818841624026044e-01 0.0000000000000000e+00  5.4118399785949811e-01 3.5418309358365735e-01 0.0000000000000000e+00  5.3743196623242773e-01 3.4541390526342103e-01 0.0000000000000000e+00  5.5336454358829235e-01 4.3209995557100767e-01 0.0000000000000000e+00  5.2814064199767241e-01 3.3168855801172631e-01 0.0000000000000000e+00  5.5289764839100841e-01 4.5624565145088436e-01 0.0000000000000000e+00  5.3954240582820245e-01 4.0694130508465554e-01 0.0000000000000000e+00  5.2998242015633268e-01 3.8587383689181753e-01 0.0000000000000000e+00  5.6530211146384712e-01 5.4213247423109356e-01 0.0000000000000000e+00  5.0874408199505261e-01 3.1848145238861669e-01 0.0000000000000000e+00  5.6876875596111909e-01 5.8257085224928473e-01 0.0000000000000000e+00  5.2693996866194193e-01 4.2767461969938708e-01 0.0000000000000000e+00  5.2500973795983752e-01 4.2891661714916979e-01 0.0000000000000000e+00  5.8047901749453823e-01 6.7926967396164473e-01 0.0000000000000000e+00  4.7458630978747368e-01 2.2365177481666718e-01 0.0000000000000000e+00  6.0036846913944741e-01 7.8507820861386868e-01 0.0000000000000000e+00  4.9410424229487743e-01 3.5768889834606099e-01 0.0000000000000000e+00  5.2220302116200235e-01 5.0298430551136086e-01 0.0000000000000000e+00  6.0084630834332498e-01 8.3679631173116220e-01 0.0000000000000000e+00  3.9845384251922233e-01 -4.1921358290064055e-02 0.0000000000000000e+00  6.8444637841210554e-01 1.0604623588258186e+00 0.0000000000000000e+00  2.8154436804185723e-01 -1.5369945467775981e-01 0.0000000000000000e+00  1.5613870004494163e-01 -2.2995054165076803e+00 0.0000000000000000e+00  1.5368229384176324e-01 -1.5516947188678951e+00 0.0000000000000000e+00  1.6433719454731788e-01 -1.7716301488759454e+00 0.0000000000000000e+00  1.5732218929330849e-01 -1.7861895926858027e+00 0.0000000000000000e+00  1.5936111493300698e-01 -1.6764290423957349e+00 0.0000000000000000e+00  1.5523534002267186e-01 -1.8000566557797681e+00 0.0000000000000000e+00  1.6056861335084430e-01 -1.6801078693943259e+00 0.0000000000000000e+00  1.5097332381014025e-01 -1.7744933390088828e+00 0.0000000000000000e+00  1.6094714383329575e-01 -1.6912234214099697e+00 0.0000000000000000e+00  1.4886538686592304e-01 -1.7538840950534687e+00 0.0000000000000000e+00  1.5912882862136438e-01 -1.6946508781922338e+00 0.0000000000000000e+00  1.4840474664358100e-01 -1.7386533612027872e+00 0.0000000000000000e+00  1.5634929486181334e-01 -1.6958335699139102e+00 0.0000000000000000e+00  1.4835706470838883e-01 -1.7235942315909549e+00 0.0000000000000000e+00  1.5353118182066364e-01 -1.6978079635317145e+00 0.0000000000000000e+00  1.4816319377558065e-01 -1.7079983797540834e+00 0.0000000000000000e+00  1.5095450475393180e-01 -1.6997745289952486e+00 0.0000000000000000e+00  1.4771618790076058e-01 -1.6932786312883976e+00 0.0000000000000000e+00  1.4863885120580836e-01 -1.7003811252262750e+00 0.0000000000000000e+00  1.4702989289226132e-01 -1.6803887089777834e+00 0.0000000000000000e+00  1.4655819124761996e-01 -1.6991396696283612e+00 0.0000000000000000e+00  1.4613274120543054e-01 -1.6694065112056011e+00 0.0000000000000000e+00  1.4467919397607099e-01 -1.6962416287215929e+00 0.0000000000000000e+00  1.4506186745839109e-01 -1.6599776759020857e+00 0.0000000000000000e+00  1.4295961256861406e-01 -1.6921020624976388e+00 0.0000000000000000e+00  1.4386172163874344e-01 -1.6516781532267317e+00 0.0000000000000000e+00  1.4135453134432227e-01 -1.6871189341796395e+00 0.0000000000000000e+00  1.4257479931123296e-01 -1.6441512985568443e+00 0.0000000000000000e+00  1.3982537063972383e-01 -1.6816054035002874e+00 0.0000000000000000e+00  1.4123459389686849e-01 -1.6371317165538199e+00 0.0000000000000000e+00  1.3834391818211378e-01 -1.6757868736502675e+00 0.0000000000000000e+00  1.3986416682415589e-01 -1.6304362995629704e+00 0.0000000000000000e+00  1.3689165657158592e-01 -1.6698145901368124e+00 0.0000000000000000e+00  1.3847803850059073e-01 -1.6239474130699385e+00 0.0000000000000000e+00  1.3545727598886587e-01 -1.6637834693710505e+00 0.0000000000000000e+00  1.3708478092312212e-01 -1.6175946672281418e+00 0.0000000000000000e+00  1.3403422724056344e-01 -1.6577497833217625e+00 0.0000000000000000e+00  1.3568918432217758e-01 -1.6113385480894913e+00 0.0000000000000000e+00  1.3261889309938221e-01 -1.6517456182199874e+00 0.0000000000000000e+00  1.3429377169249371e-01 -1.6051581632498713e+00 0.0000000000000000e+00  1.3120935805141709e-01 -1.6457890332120801e+00 0.0000000000000000e+00  1.3289978615721590e-01 -1.5990431608611935e+00 0.0000000000000000e+00  1.2980463888308594e-01 -1.6398903320131881e+00 0.0000000000000000e+00  1.3150778893460091e-01 -1.5929889953041170e+00 0.0000000000000000e+00  1.2840422485805933e-01 -1.6340556623415312e+00 0.0000000000000000e+00  1.3011800756820596e-01 -1.5869942801347676e+00 0.0000000000000000e+00  1.2700782471797947e-01 -1.6282889439730068e+00 0.0000000000000000e+00  1.2873051722081019e-01 -1.5810594026178677e+00 0.0000000000000000e+00  1.2561523763058680e-01 -1.6225929323365031e+00 0.0000000000000000e+00  1.2734532840525006e-01 -1.5751857155943674e+00 0.0000000000000000e+00  1.2422630026522917e-01 -1.6169698429278148e+00 0.0000000000000000e+00  1.2596241403912370e-01 -1.5693750609194941e+00 0.0000000000000000e+00  1.2284087376628895e-01 -1.6114217650061613e+00 0.0000000000000000e+00  1.2458171433036998e-01 -1.5636294241053244e+00 0.0000000000000000e+00  1.2145884374845076e-01 -1.6059509318241774e+00 0.0000000000000000e+00  1.2320313426806416e-01 -1.5579507759277023e+00 0.0000000000000000e+00  1.2008011810573367e-01 -1.6005598069267768e+00 0.0000000000000000e+00  1.2182655302302896e-01 -1.5523410678964658e+00 0.0000000000000000e+00  1.1870461044026820e-01 -1.5952510243628140e+00 0.0000000000000000e+00  1.2045184314978072e-01 -1.5468023847650374e+00 0.0000000000000000e+00  1.1733221866891162e-01 -1.5900272083572307e+00 0.0000000000000000e+00  1.1907889097821649e-01 -1.5413371299656784e+00 0.0000000000000000e+00  1.1596280800558213e-01 -1.5848908583194712e+00 0.0000000000000000e+00  1.1770760310940057e-01 -1.5359480796007616e+00 0.0000000000000000e+00  1.1459621739014421e-01 -1.5798444080415412e+00 0.0000000000000000e+00  1.1633788513677908e-01 -1.5306382184219345e+00 0.0000000000000000e+00  1.1323229152451082e-01 -1.5748905319986362e+00 0.0000000000000000e+00  1.1496960012654235e-01 -1.5254103505208636e+00 0.0000000000000000e+00  1.1187092593705979e-01 -1.5700325851196046e+00 0.0000000000000000e+00  1.1360252470808169e-01 -1.5202667062316821e+00 0.0000000000000000e+00  1.1051209929791994e-01 -1.5652749152422742e+00 0.0000000000000000e+00  1.1223633445941755e-01 -1.5152088017232004e+00 0.0000000000000000e+00  1.0915586308405749e-01 -1.5606228151325487e+00 0.0000000000000000e+00  1.1087063848902499e-01 -1.5102377542894569e+00 0.0000000000000000e+00  1.0780228220388131e-01 -1.5560819927248599e+00 0.0000000000000000e+00  1.0950505683174133e-01 -1.5053550333734427e+00 0.0000000000000000e+00  1.0645134510543407e-01 -1.5516577468651866e+00 0.0000000000000000e+00  1.0813930924824915e-01 -1.5005633218506436e+00 0.0000000000000000e+00  1.0510288652291468e-01 -1.5473542494470931e+00 0.0000000000000000e+00  1.0677326640268069e-01 -1.4958670557306555e+00 0.0000000000000000e+00  1.0375656848498509e-01 -1.5431743447352626e+00 0.0000000000000000e+00  1.0540693001096417e-01 -1.4912722941127814e+00 0.0000000000000000e+00  1.0241193584067777e-01 -1.5391200742895763e+00 0.0000000000000000e+00  1.0404034457783225e-01 -1.4867859057144521e+00 0.0000000000000000e+00  1.0106852466535275e-01 -1.5351937242849971e+00 0.0000000000000000e+00  1.0267348024210084e-01 -1.4824144625189157e+00 0.0000000000000000e+00  9.9725970073983428e-02 -1.5313988887916024e+00 0.0000000000000000e+00  1.0130614645622914e-01 -1.4781633960347831e+00 0.0000000000000000e+00  9.8384058009778383e-02 -1.5277410301423926e+00 0.0000000000000000e+00  9.9937977760278379e-02 -1.4740368371881085e+00 0.0000000000000000e+00  9.7042700604160301e-02 -1.5242272952776457e+00 0.0000000000000000e+00  9.8568488900637907e-02 -1.4700381566868372e+00 0.0000000000000000e+00  9.5701859846100856e-02 -1.5208658084781961e+00 0.0000000000000000e+00  9.7197156944051566e-02 -1.4661707850378574e+00 0.0000000000000000e+00  9.4361473060697018e-02 -1.5176649678809693e+00 0.0000000000000000e+00  9.5823475319419094e-02 -1.4624387667980385e+00 0.0000000000000000e+00  9.3021426686233075e-02 -1.5146331936208710e+00 0.0000000000000000e+00  9.4446951761861075e-02 -1.4588467619970946e+00 0.0000000000000000e+00  9.1681582516353569e-02 -1.5117791886341685e+00 0.0000000000000000e+00  9.3067070910810151e-02 -1.4553996671703731e+00 0.0000000000000000e+00  9.0341816088272311e-02 -1.5091123292826651e+00 0.0000000000000000e+00  9.1683273467394202e-02 -1.4521023776431086e+00 0.0000000000000000e+00  8.9002015321062944e-02 -1.5066426399061794e+00 0.0000000000000000e+00  9.0294993718160188e-02 -1.4489601414091919e+00 0.0000000000000000e+00  8.7662018337002531e-02 -1.5043801093958855e+00 0.0000000000000000e+00  8.8901750699426005e-02 -1.4459794634199292e+00 0.0000000000000000e+00  8.6321524134996788e-02 -1.5023336740031632e+00 0.0000000000000000e+00  8.7503236396589759e-02 -1.4431689699848864e+00 0.0000000000000000e+00  8.4980048227024388e-02 -1.5005105875263942e+00 0.0000000000000000e+00  8.6099329461528998e-02 -1.4405394580771567e+00 0.0000000000000000e+00  8.3636982558110251e-02 -1.4989167992992110e+00 0.0000000000000000e+00  8.4690003588968665e-02 -1.4381027282598273e+00 0.0000000000000000e+00  8.2291758000915066e-02 -1.4975583489562982e+00 0.0000000000000000e+00  8.3275171633632461e-02 -1.4358695498510350e+00 0.0000000000000000e+00  8.0944039053509803e-02 -1.4964430309439605e+00 0.0000000000000000e+00  8.1854561021168448e-02 -1.4338477276913013e+00 0.0000000000000000e+00  7.9593852299494144e-02 -1.4955812184903681e+00 0.0000000000000000e+00  8.0427713862272820e-02 -1.4320412538051019e+00 0.0000000000000000e+00  7.8241586182994621e-02 -1.4949850602459851e+00 0.0000000000000000e+00  7.8994143544869180e-02 -1.4304508675933547e+00 0.0000000000000000e+00  7.6887880669525732e-02 -1.4946660842975878e+00 0.0000000000000000e+00  7.7553596963630692e-02 -1.4290754159888719e+00 0.0000000000000000e+00  7.5533499898250173e-02 -1.4946320318281370e+00 0.0000000000000000e+00  7.6106322619958061e-02 -1.4279127817541128e+00 0.0000000000000000e+00  7.4179301576411408e-02 -1.4948839882370819e+00 0.0000000000000000e+00  7.4653260339994615e-02 -1.4269592035629095e+00 0.0000000000000000e+00  7.2826374464115926e-02 -1.4954144398437148e+00 0.0000000000000000e+00  7.3196133773063540e-02 -1.4262064650242809e+00 0.0000000000000000e+00  7.1476341891754849e-02 -1.4962060776307446e+00 0.0000000000000000e+00  7.1737496245238189e-02 -1.4256372307569405e+00 0.0000000000000000e+00  7.0131770770166288e-02 -1.4972305384329692e+00 0.0000000000000000e+00  7.0280810816502157e-02 -1.4252192956954728e+00 0.0000000000000000e+00  6.8796607348525440e-02 -1.4984461989150129e+00 0.0000000000000000e+00  6.8830622648824155e-02 -1.4248995765937953e+00 0.0000000000000000e+00  6.7476572078671734e-02 -1.4997946201744612e+00 0.0000000000000000e+00  6.7392823760784301e-02 -1.4245985892591488e+00 0.0000000000000000e+00  6.6179453782266889e-02 -1.5011960001015312e+00 0.0000000000000000e+00  6.5974946957416958e-02 -1.4242062843684837e+00 0.0000000000000000e+00  6.4915226862518466e-02 -1.5025447265549541e+00 0.0000000000000000e+00  6.4586378585443555e-02 -1.4235805176770373e+00 0.0000000000000000e+00  6.3695890484690043e-02 -1.5037066542197610e+00 0.0000000000000000e+00  6.3238360085047657e-02 -1.4225496889823868e+00 0.0000000000000000e+00  6.2534941818793974e-02 -1.5045199003616689e+00 0.0000000000000000e+00  6.1943662450909084e-02 -1.4209206366140521e+00 0.0000000000000000e+00  6.1446464414411574e-02 -1.5048007863266348e+00 0.0000000000000000e+00  6.0715840328264756e-02 -1.4184919452720972e+00 0.0000000000000000e+00  6.0443874251064705e-02 -1.5043564873788009e+00 0.0000000000000000e+00  5.9567983445991429e-02 -1.4150722069164980e+00 0.0000000000000000e+00  5.9538405511684447e-02 -1.5030054291803052e+00 0.0000000000000000e+00  5.8511006154818128e-02 -1.4105016047100067e+00 0.0000000000000000e+00  5.8737561077773510e-02 -1.5006033296474701e+00 0.0000000000000000e+00  5.7551848664603653e-02 -1.4046722267548701e+00 0.0000000000000000e+00  5.8043975427968547e-02 -1.4970676137081596e+00 0.0000000000000000e+00  5.6692266837341534e-02 -1.3975399216648712e+00 0.0000000000000000e+00  5.7455171885601904e-02 -1.4923905570113858e+00 0.0000000000000000e+00  5.5928790242529225e-02 -1.3891220071725576e+00 0.0000000000000000e+00  5.6964363945592622e-02 -1.4866358982597545e+00 0.0000000000000000e+00  5.5253865316908964e-02 -1.3794812369041936e+00 0.0000000000000000e+00  5.6561946859902575e-02 -1.4799226290262633e+00 0.0000000000000000e+00  5.4657609761223878e-02 -1.3687021473483536e+00 0.0000000000000000e+00  5.6237080725947651e-02 -1.4724059088625903e+00 0.0000000000000000e+00  5.4129490127545317e-02 -1.3568662371981293e+00 0.0000000000000000e+00  5.5978904368064339e-02 -1.4642642004313224e+00 0.0000000000000000e+00  5.3659549444959341e-02 -1.3440296671702647e+00 0.0000000000000000e+00  5.5777227621512313e-02 -1.4556949408761688e+00 0.0000000000000000e+00  5.3239102881646613e-02 -1.3302076695828384e+00 0.0000000000000000e+00  5.5622878101606883e-02 -1.4469113808994565e+00 0.0000000000000000e+00  5.2860844014621301e-02 -1.3153747106800731e+00 0.0000000000000000e+00  5.5508073997488375e-02 -1.4381264335136805e+00 0.0000000000000000e+00  5.2518333293502355e-02 -1.2994907670853828e+00 0.0000000000000000e+00  5.5426978089199511e-02 -1.4295138744007139e+00 0.0000000000000000e+00  5.2205213382255131e-02 -1.2825533617187532e+00 0.0000000000000000e+00  5.5376021668244728e-02 -1.4211546025032504e+00 0.0000000000000000e+00  5.1914914487369082e-02 -1.2646558433531896e+00 0.0000000000000000e+00  5.5353364270896634e-02 -1.4129941240092367e+00 0.0000000000000000e+00  5.1641326319883829e-02 -1.2460197010388394e+00 0.0000000000000000e+00  5.5357574405094860e-02 -1.4048414818382149e+00 0.0000000000000000e+00  5.1379771204970809e-02 -1.2269734737830240e+00 0.0000000000000000e+00  5.5386856123801120e-02 -1.3964254890149339e+00 0.0000000000000000e+00  5.1126543760443392e-02 -1.2078701935335729e+00 0.0000000000000000e+00  5.5440677110988747e-02 -1.3875006962618879e+00 0.0000000000000000e+00  5.0875475324518846e-02 -1.1889587354215700e+00 0.0000000000000000e+00  5.5524628531402997e-02 -1.3779750304988789e+00 0.0000000000000000e+00  5.0611704415998451e-02 -1.1702440295513448e+00 0.0000000000000000e+00  5.5657150289814793e-02 -1.3680194783270230e+00 0.0000000000000000e+00  5.0305120909681526e-02 -1.1513825755296865e+00 0.0000000000000000e+00  5.5874753203915016e-02 -1.3581184975946214e+00 0.0000000000000000e+00  4.9907300891306017e-02 -1.1316579018067314e+00 0.0000000000000000e+00  5.6231943824036817e-02 -1.3490291950434843e+00 0.0000000000000000e+00  4.9355129798145783e-02 -1.1100606925947110e+00 0.0000000000000000e+00  5.6793729247262628e-02 -1.3416404729838038e+00 0.0000000000000000e+00  4.8581783569003931e-02 -1.0854638004175756e+00 0.0000000000000000e+00  5.7621688099547222e-02 -1.3367592310547518e+00 0.0000000000000000e+00  4.7532457507664903e-02 -1.0568484198820847e+00 0.0000000000000000e+00  5.8757603762999676e-02 -1.3348868409130235e+00 0.0000000000000000e+00  4.6179896029397927e-02 -1.0235224650140580e+00 0.0000000000000000e+00  6.0209940599002525e-02 -1.3360625322627431e+00 0.0000000000000000e+00  4.4534714475593526e-02 -9.8528385397059026e-01 0.0000000000000000e+00  6.1947218062751511e-02 -1.3398240152495910e+00 0.0000000000000000e+00  4.2647854206609638e-02 -9.4251294987010792e-01 0.0000000000000000e+00  6.3899206277987439e-02 -1.3452792820508299e+00 0.0000000000000000e+00  4.0606016017078986e-02 -8.9621285738983025e-01 0.0000000000000000e+00  6.5963558875360789e-02 -1.3512327084860820e+00 0.0000000000000000e+00  3.8523595221522711e-02 -8.4803529627953378e-01 0.0000000000000000e+00  6.8013901977208205e-02 -1.3562969812078365e+00 0.0000000000000000e+00  3.6534910130816847e-02 -8.0031734265138632e-01 0.0000000000000000e+00  6.9906557658433954e-02 -1.3589563253875201e+00 0.0000000000000000e+00  3.4788002679591618e-02 -7.5609696207132704e-01 0.0000000000000000e+00  7.1486661263224519e-02 -1.3576059844604205e+00 0.0000000000000000e+00  3.3437167638800565e-02 -7.1897736473187013e-01 0.0000000000000000e+00  7.2598463434322871e-02 -1.3506438190499632e+00 0.0000000000000000e+00  3.2628473866763645e-02 -6.9263966848636793e-01 0.0000000000000000e+00  7.3105517454731719e-02 -1.3366891908747256e+00 0.0000000000000000e+00  3.2474637205643503e-02 -6.7991206609825794e-01 0.0000000000000000e+00  7.2920890395922741e-02 -1.3149202303023295e+00 0.0000000000000000e+00  3.3024067158993316e-02 -6.8167823008020401e-01 0.0000000000000000e+00  7.2037006701344844e-02 -1.2853894373792991e+00 0.0000000000000000e+00  3.4238406728907329e-02 -6.9628209744043446e-01 0.0000000000000000e+00  7.0538181898679789e-02 -1.2491227406101912e+00 0.0000000000000000e+00  3.5993438729906270e-02 -7.1994013402668922e-01 0.0000000000000000e+00  6.8585293504576594e-02 -1.2079173599403064e+00 0.0000000000000000e+00  3.8106274858753730e-02 -7.4796713126068004e-01 0.0000000000000000e+00  6.6378122642722290e-02 -1.1639406097525569e+00 0.0000000000000000e+00  4.0376700041624698e-02 -7.7607333949568991e-01 0.0000000000000000e+00  6.4112695307532858e-02 -1.1193183669430840e+00 0.0000000000000000e+00  4.2625057950156219e-02 -8.0113118537810002e-01 0.0000000000000000e+00  6.1949651247606603e-02 -1.0758433978120852e+00 0.0000000000000000e+00  4.4715308098546160e-02 -8.2132244430939172e-01 0.0000000000000000e+00  5.9999804570179484e-02 -1.0348314768280034e+00 0.0000000000000000e+00  4.6561839699721511e-02 -8.3590984068445295e-01 0.0000000000000000e+00  5.8324235025690993e-02 -9.9709369524212044e-01 0.0000000