<?xml version="1.0"?>
<VTKFile type="UnstructuredGrid"  version="0.1"  >
<UnstructuredGrid>
<Piece  NumberOfPoints="801" NumberOfCells="800">
<Points>
<DataArray  type="Float64"  NumberOfComponents="3"  format="ascii">-5 0 0  -4.9875 0 0  -4.975 0 0  -4.9625 0 0  -4.95 0 0  -4.9375 0 0  -4.925 0 0  -4.9125 0 0  -4.9 0 0  -4.8875 0 0  -4.875 0 0  -4.8625 0 0  -4.85 0 0  -4.8375 0 0  -4.825 0 0  -4.8125 0 0  -4.8 0 0  -4.7875 0 0  -4.775 0 0  -4.7625 0 0  -4.75 0 0  -4.7375 0 0  -4.725 0 0  -4.7125 0 0  -4.7 0 0  -4.6875 0 0  -4.675 0 0  -4.6625 0 0  -4.65 0 0  -4.6375 0 0  -4.625 0 0  -4.6125 0 0  -4.6 0 0  -4.5875 0 0  -4.575 0 0  -4.5625 0 0  -4.55 0 0  -4.5375 0 0  -4.525 0 0  -4.5125 0 0  -4.5 0 0  -4.4875 0 0  -4.475 0 0  -4.4625 0 0  -4.45 0 0  -4.4375 0 0  -4.425 0 0  -4.4125 0 0  -4.4 0 0  -4.3875 0 0  -4.375 0 0  -4.3625 0 0  -4.35 0 0  -4.3375 0 0  -4.325 0 0  -4.3125 0 0  -4.3 0 0  -4.2875 0 0  -4.275 0 0  -4.2625 0 0  -4.25 0 0  -4.2375 0 0  -4.225 0 0  -4.2125 0 0  -4.2 0 0  -4.1875 0 0  -4.175 0 0  -4.1625 0 0  -4.15 0 0  -4.1375 0 0  -4.125 0 0  -4.1125 0 0  -4.1 0 0  -4.0875 0 0  -4.075 0 0  -4.0625 0 0  -4.05 0 0  -4.0375 0 0  -4.025 0 0  -4.0125 0 0  -4 0 0  -3.9875 0 0  -3.975 0 0  -3.9625 0 0  -3.95 0 0  -3.9375 0 0  -3.925 0 0  -3.9125 0 0  -3.9 0 0  -3.8875 0 0  -3.875 0 0  -3.8625 0 0  -3.85 0 0  -3.8375 0 0  -3.825 0 0  -3.8125 0 0  -3.8 0 0  -3.7875 0 0  -3.775 0 0  -3.7625 0 0  -3.75 0 0  -3.7375 0 0  -3.725 0 0  -3.7125 0 0  -3.7 0 0  -3.6875 0 0  -3.675 0 0  -3.6625 0 0  -3.65 0 0  -3.6375 0 0  -3.625 0 0  -3.6125 0 0  -3.6 0 0  -3.5875 0 0  -3.575 0 0  -3.5625 0 0  -3.55 0 0  -3.5375 0 0  -3.525 0 0  -3.5125 0 0  -3.5 0 0  -3.4875 0 0  -3.475 0 0  -3.4625 0 0  -3.45 0 0  -3.4375 0 0  -3.425 0 0  -3.4125 0 0  -3.4 0 0  -3.3875 0 0  -3.375 0 0  -3.3625 0 0  -3.35 0 0  -3.3375 0 0  -3.325 0 0  -3.3125 0 0  -3.3 0 0  -3.2875 0 0  -3.275 0 0  -3.2625 0 0  -3.25 0 0  -3.2375 0 0  -3.225 0 0  -3.2125 0 0  -3.2 0 0  -3.1875 0 0  -3.175 0 0  -3.1625 0 0  -3.15 0 0  -3.1375 0 0  -3.125 0 0  -3.1125 0 0  -3.1 0 0  -3.0875 0 0  -3.075 0 0  -3.0625 0 0  -3.05 0 0  -3.0375 0 0  -3.025 0 0  -3.0125 0 0  -3 0 0  -2.9875 0 0  -2.975 0 0  -2.9625 0 0  -2.95 0 0  -2.9375 0 0  -2.925 0 0  -2.9125 0 0  -2.9 0 0  -2.8875 0 0  -2.875 0 0  -2.8625 0 0  -2.85 0 0  -2.8375 0 0  -2.825 0 0  -2.8125 0 0  -2.8 0 0  -2.7875 0 0  -2.775 0 0  -2.7625 0 0  -2.75 0 0  -2.7375 0 0  -2.725 0 0  -2.7125 0 0  -2.7 0 0  -2.6875 0 0  -2.675 0 0  -2.6625 0 0  -2.65 0 0  -2.6375 0 0  -2.625 0 0  -2.6125 0 0  -2.6 0 0  -2.5875 0 0  -2.575 0 0  -2.5625 0 0  -2.55 0 0  -2.5375 0 0  -2.525 0 0  -2.5125 0 0  -2.5 0 0  -2.4875 0 0  -2.475 0 0  -2.4625 0 0  -2.45 0 0  -2.4375 0 0  -2.425 0 0  -2.4125 0 0  -2.4 0 0  -2.3875 0 0  -2.375 0 0  -2.3625 0 0  -2.35 0 0  -2.3375 0 0  -2.325 0 0  -2.3125 0 0  -2.3 0 0  -2.2875 0 0  -2.275 0 0  -2.2625 0 0  -2.25 0 0  -2.2375 0 0  -2.225 0 0  -2.2125 0 0  -2.2 0 0  -2.1875 0 0  -2.175 0 0  -2.1625 0 0  -2.15 0 0  -2.1375 0 0  -2.125 0 0  -2.1125 0 0  -2.1 0 0  -2.0875 0 0  -2.075 0 0  -2.0625 0 0  -2.05 0 0  -2.0375 0 0  -2.025 0 0  -2.0125 0 0  -2 0 0  -1.9875 0 0  -1.975 0 0  -1.9625 0 0  -1.95 0 0  -1.9375 0 0  -1.925 0 0  -1.9125 0 0  -1.9 0 0  -1.8875 0 0  -1.875 0 0  -1.8625 0 0  -1.85 0 0  -1.8375 0 0  -1.825 0 0  -1.8125 0 0  -1.8 0 0  -1.7875 0 0  -1.775 0 0  -1.7625 0 0  -1.75 0 0  -1.7375 0 0  -1.725 0 0  -1.7125 0 0  -1.7 0 0  -1.6875 0 0  -1.675 0 0  -1.6625 0 0  -1.65 0 0  -1.6375 0 0  -1.625 0 0  -1.6125 0 0  -1.6 0 0  -1.5875 0 0  -1.575 0 0  -1.5625 0 0  -1.55 0 0  -1.5375 0 0  -1.525 0 0  -1.5125 0 0  -1.5 0 0  -1.4875 0 0  -1.475 0 0  -1.4625 0 0  -1.45 0 0  -1.4375 0 0  -1.425 0 0  -1.4125 0 0  -1.4 0 0  -1.3875 0 0  -1.375 0 0  -1.3625 0 0  -1.35 0 0  -1.3375 0 0  -1.325 0 0  -1.3125 0 0  -1.3 0 0  -1.2875 0 0  -1.275 0 0  -1.2625 0 0  -1.25 0 0  -1.2375 0 0  -1.225 0 0  -1.2125 0 0  -1.2 0 0  -1.1875 0 0  -1.175 0 0  -1.1625 0 0  -1.15 0 0  -1.1375 0 0  -1.125 0 0  -1.1125 0 0  -1.1 0 0  -1.0875 0 0  -1.075 0 0  -1.0625 0 0  -1.05 0 0  -1.0375 0 0  -1.025 0 0  -1.0125 0 0  -1 0 0  -0.9874999999999998 0 0  -0.9749999999999996 0 0  -0.9625000000000004 0 0  -0.9500000000000002 0 0  -0.9375 0 0  -0.9249999999999998 0 0  -0.9124999999999996 0 0  -0.9000000000000004 0 0  -0.8875000000000002 0 0  -0.875 0 0  -0.8624999999999998 0 0  -0.8499999999999996 0 0  -0.8375000000000004 0 0  -0.8250000000000002 0 0  -0.8125 0 0  -0.7999999999999998 0 0  -0.7874999999999996 0 0  -0.7750000000000004 0 0  -0.7625000000000002 0 0  -0.75 0 0  -0.7374999999999998 0 0  -0.7249999999999996 0 0  -0.7125000000000004 0 0  -0.7000000000000002 0 0  -0.6875 0 0  -0.6749999999999998 0 0  -0.6624999999999996 0 0  -0.6500000000000004 0 0  -0.6375000000000002 0 0  -0.625 0 0  -0.6124999999999998 0 0  -0.5999999999999996 0 0  -0.5875000000000004 0 0  -0.5750000000000002 0 0  -0.5625 0 0  -0.5499999999999998 0 0  -0.5374999999999996 0 0  -0.5250000000000004 0 0  -0.5125000000000002 0 0  -0.5 0 0  -0.4874999999999998 0 0  -0.4749999999999996 0 0  -0.4625000000000004 0 0  -0.4500000000000002 0 0  -0.4375 0 0  -0.4249999999999998 0 0  -0.4124999999999996 0 0  -0.4000000000000004 0 0  -0.3875000000000002 0 0  -0.375 0 0  -0.3624999999999998 0 0  -0.3499999999999996 0 0  -0.3375000000000004 0 0  -0.3250000000000002 0 0  -0.3125 0 0  -0.2999999999999998 0 0  -0.2874999999999996 0 0  -0.2750000000000004 0 0  -0.2625000000000002 0 0  -0.25 0 0  -0.2374999999999998 0 0  -0.2249999999999996 0 0  -0.2125000000000004 0 0  -0.2000000000000002 0 0  -0.1875 0 0  -0.1749999999999998 0 0  -0.1624999999999996 0 0  -0.1500000000000004 0 0  -0.1375000000000002 0 0  -0.125 0 0  -0.1124999999999998 0 0  -0.09999999999999964 0 0  -0.08750000000000036 0 0  -0.07500000000000018 0 0  -0.0625 0 0  -0.04999999999999982 0 0  -0.03749999999999964 0 0  -0.02500000000000036 0 0  -0.01250000000000018 0 0  0 0 0  0.01250000000000018 0 0  0.02500000000000036 0 0  0.03749999999999964 0 0  0.04999999999999982 0 0  0.0625 0 0  0.07500000000000018 0 0  0.08750000000000036 0 0  0.09999999999999964 0 0  0.1124999999999998 0 0  0.125 0 0  0.1375000000000002 0 0  0.1500000000000004 0 0  0.1624999999999996 0 0  0.1749999999999998 0 0  0.1875 0 0  0.2000000000000002 0 0  0.2125000000000004 0 0  0.2249999999999996 0 0  0.2374999999999998 0 0  0.25 0 0  0.2625000000000002 0 0  0.2750000000000004 0 0  0.2874999999999996 0 0  0.2999999999999998 0 0  0.3125 0 0  0.3250000000000002 0 0  0.3375000000000004 0 0  0.3499999999999996 0 0  0.3624999999999998 0 0  0.375 0 0  0.3875000000000002 0 0  0.4000000000000004 0 0  0.4124999999999996 0 0  0.4249999999999998 0 0  0.4375 0 0  0.4500000000000002 0 0  0.4625000000000004 0 0  0.4749999999999996 0 0  0.4874999999999998 0 0  0.5 0 0  0.5125000000000002 0 0  0.5250000000000004 0 0  0.5374999999999996 0 0  0.5499999999999998 0 0  0.5625 0 0  0.5750000000000002 0 0  0.5875000000000004 0 0  0.5999999999999996 0 0  0.6124999999999998 0 0  0.625 0 0  0.6375000000000002 0 0  0.6500000000000004 0 0  0.6624999999999996 0 0  0.6749999999999998 0 0  0.6875 0 0  0.7000000000000002 0 0  0.7125000000000004 0 0  0.7249999999999996 0 0  0.7374999999999998 0 0  0.75 0 0  0.7625000000000002 0 0  0.7750000000000004 0 0  0.7874999999999996 0 0  0.7999999999999998 0 0  0.8125 0 0  0.8250000000000002 0 0  0.8375000000000004 0 0  0.8499999999999996 0 0  0.8624999999999998 0 0  0.875 0 0  0.8875000000000002 0 0  0.9000000000000004 0 0  0.9124999999999996 0 0  0.9249999999999998 0 0  0.9375 0 0  0.9500000000000002 0 0  0.9625000000000004 0 0  0.9749999999999996 0 0  0.9874999999999998 0 0  1 0 0  1.0125 0 0  1.025 0 0  1.0375 0 0  1.05 0 0  1.0625 0 0  1.075 0 0  1.0875 0 0  1.1 0 0  1.1125 0 0  1.125 0 0  1.1375 0 0  1.15 0 0  1.1625 0 0  1.175 0 0  1.1875 0 0  1.2 0 0  1.2125 0 0  1.225 0 0  1.2375 0 0  1.25 0 0  1.2625 0 0  1.275 0 0  1.2875 0 0  1.3 0 0  1.3125 0 0  1.325 0 0  1.3375 0 0  1.35 0 0  1.3625 0 0  1.375 0 0  1.3875 0 0  1.4 0 0  1.4125 0 0  1.425 0 0  1.4375 0 0  1.45 0 0  1.4625 0 0  1.475 0 0  1.4875 0 0  1.5 0 0  1.5125 0 0  1.525 0 0  1.5375 0 0  1.55 0 0  1.5625 0 0  1.575 0 0  1.5875 0 0  1.6 0 0  1.6125 0 0  1.625 0 0  1.6375 0 0  1.65 0 0  1.6625 0 0  1.675 0 0  1.6875 0 0  1.7 0 0  1.7125 0 0  1.725 0 0  1.7375 0 0  1.75 0 0  1.7625 0 0  1.775 0 0  1.7875 0 0  1.8 0 0  1.8125 0 0  1.825 0 0  1.8375 0 0  1.85 0 0  1.8625 0 0  1.875 0 0  1.8875 0 0  1.9 0 0  1.9125 0 0  1.925 0 0  1.9375 0 0  1.95 0 0  1.9625 0 0  1.975 0 0  1.9875 0 0  2 0 0  2.0125 0 0  2.025 0 0  2.0375 0 0  2.05 0 0  2.0625 0 0  2.075 0 0  2.0875 0 0  2.1 0 0  2.1125 0 0  2.125 0 0  2.1375 0 0  2.15 0 0  2.1625 0 0  2.175 0 0  2.1875 0 0  2.2 0 0  2.2125 0 0  2.225 0 0  2.2375 0 0  2.25 0 0  2.2625 0 0  2.275 0 0  2.2875 0 0  2.3 0 0  2.3125 0 0  2.325 0 0  2.3375 0 0  2.35 0 0  2.3625 0 0  2.375 0 0  2.3875 0 0  2.4 0 0  2.4125 0 0  2.425 0 0  2.4375 0 0  2.45 0 0  2.4625 0 0  2.475 0 0  2.4875 0 0  2.5 0 0  2.5125 0 0  2.525 0 0  2.5375 0 0  2.55 0 0  2.5625 0 0  2.575 0 0  2.5875 0 0  2.6 0 0  2.6125 0 0  2.625 0 0  2.6375 0 0  2.65 0 0  2.6625 0 0  2.675 0 0  2.6875 0 0  2.7 0 0  2.7125 0 0  2.725 0 0  2.7375 0 0  2.75 0 0  2.7625 0 0  2.775 0 0  2.7875 0 0  2.8 0 0  2.8125 0 0  2.825 0 0  2.8375 0 0  2.85 0 0  2.8625 0 0  2.875 0 0  2.8875 0 0  2.9 0 0  2.9125 0 0  2.925 0 0  2.9375 0 0  2.95 0 0  2.9625 0 0  2.975 0 0  2.9875 0 0  3 0 0  3.012499999999999 0 0  3.025 0 0  3.0375 0 0  3.050000000000001 0 0  3.0625 0 0  3.074999999999999 0 0  3.0875 0 0  3.1 0 0  3.112500000000001 0 0  3.125 0 0  3.137499999999999 0 0  3.15 0 0  3.1625 0 0  3.175000000000001 0 0  3.1875 0 0  3.199999999999999 0 0  3.2125 0 0  3.225 0 0  3.237500000000001 0 0  3.25 0 0  3.262499999999999 0 0  3.275 0 0  3.2875 0 0  3.300000000000001 0 0  3.3125 0 0  3.324999999999999 0 0  3.3375 0 0  3.35 0 0  3.362500000000001 0 0  3.375 0 0  3.387499999999999 0 0  3.4 0 0  3.4125 0 0  3.425000000000001 0 0  3.4375 0 0  3.449999999999999 0 0  3.4625 0 0  3.475 0 0  3.4875
[...]
<PointData  Vectors="(h, u)"> 
<DataArray  type="Float64"  Name="(h, u)"  NumberOfComponents="3" format="ascii">2.4787581342134160e-01 0.0000000000000000e+00 0.0000000000000000e+00  2.4777188380561999e-01 7.0384970338008635e-03 0.0000000000000000e+00  2.4787298514599468e-01 1.4104867517990430e-02 0.0000000000000000e+00  2.4776630388858648e-01 2.1115758342219276e-02 0.0000000000000000e+00  2.4786449850614303e-01 2.8210233253104261e-02 0.0000000000000000e+00  2.4775514146201366e-01 3.5193821046687071e-02 0.0000000000000000e+00  2.4785034823973245e-01 4.2316596000475930e-02 0.0000000000000000e+00  2.4773839132043526e-01 4.9273217990588931e-02 0.0000000000000000e+00  2.4783052612827489e-01 5.6424455871803475e-02 0.0000000000000000e+00  2.4771604564552169e-01 6.3354479028331426e-02 0.0000000000000000e+00  2.4780502166276000e-01 7.0534315037216952e-02 0.0000000000000000e+00  2.4768809410133333e-01 7.7438129042452897e-02 0.0000000000000000e+00  2.4777382266500081e-01 8.4646677929123323e-02 0.0000000000000000e+00  2.4765452410458133e-01 9.1524686802251232e-02 0.0000000000000000e+00  2.4773691560818098e-01 9.8762050296050743e-02 0.0000000000000000e+00  2.4761532129848668e-01 1.0561466610929029e-01 0.0000000000000000e+00  2.4769428542772337e-01 1.1288093698594849e-01 0.0000000000000000e+00  2.4757047014149169e-01 1.1970858018600410e-01 0.0000000000000000e+00  2.4764591476654177e-01 1.2700383931919737e-01 0.0000000000000000e+00  2.4751995436833271e-01 1.3380694904171764e-01 0.0000000000000000e+00  2.4759178282546460e-01 1.4113125395743989e-01 0.0000000000000000e+00  2.4746375697007011e-01 1.4791030803302588e-01 0.0000000000000000e+00  2.4753186421327028e-01 1.5526367558677787e-01 0.0000000000000000e+00  2.4740185937604697e-01 1.6201921465536481e-01 0.0000000000000000e+00  2.4746612830917170e-01 1.6940160492321790e-01 0.0000000000000000e+00  2.4733423975911523e-01 1.7613425042150366e-01 0.0000000000000000e+00  2.4739453957664545e-01 1.8354556146165971e-01 0.0000000000000000e+00  2.4726087078924319e-01 1.9025601581412321e-01 0.0000000000000000e+00  2.4731705899499404e-01 1.9769609759569881e-01 0.0000000000000000e+00  2.4718171758659349e-01 2.0438511852200567e-01 0.0000000000000000e+00  2.4723364636328393e-01 2.1185380852086588e-01 0.0000000000000000e+00  2.4709673683167763e-01 2.1852215796970861e-01 0.0000000000000000e+00  2.4714426279278290e-01 2.2601933220089887e-01 0.0000000000000000e+00  2.4700587778924796e-01 2.3266771158355692e-01 0.0000000000000000e+00  2.4704887241011292e-01 2.4019333634638951e-01 0.0000000000000000e+00  2.4690908535246597e-01 2.4682232934007145e-01 0.0000000000000000e+00  2.4694744225535256e-01 2.5437649459896217e-01 0.0000000000000000e+00  2.4680630426761399e-01 2.6098654235213864e-01 0.0000000000000000e+00  2.4683993968378121e-01 2.6856945997802262e-01 0.0000000000000000e+00  2.4669748291279855e-01 2.7516088779140396e-01 0.0000000000000000e+00  2.4672632733429828e-01 2.8277284697474236e-01 0.0000000000000000e+00  2.4658257481388604e-01 2.8934594669376162e-01 0.0000000000000000e+00  2.4660655674047022e-01 2.9698723233755259e-01 0.0000000000000000e+00  2.4646153677054697e-01 3.0354238433826752e-01 0.0000000000000000e+00  2.4648056276439911e-01 3.1121317720983971e-01 0.0000000000000000e+00  2.4633432402299429e-01 3.1775097661096796e-01 0.0000000000000000e+00  2.4634826169345678e-01 3.2545126262356699e-01 0.0000000000000000e+00  2.4620088445069199e-01 3.3197260500474957e-01 0.0000000000000000e+00  2.4620955531332595e-01 3.3970212270389843e-01 0.0000000000000000e+00  2.4606115451828472e-01 3.4620821035552346e-01 0.0000000000000000e+00  2.4606434139833971e-01 3.5396645968307533e-01 0.0000000000000000e+00  2.4591505880212769e-01 3.6045871205305202e-01 0.0000000000000000e+00  2.4591252773370434e-01 3.6824503667567116e-01 0.0000000000000000e+00  2.4576251231964485e-01 3.7472492224305809e-01 0.0000000000000000e+00  2.4575404355819114e-01 3.8253866163631506e-01 0.0000000000000000e+00  2.4560342245554526e-01 3.8900749893634706e-01 0.0000000000000000e+00  2.4558884133824987e-01 3.9684818687454959e-01 0.0000000000000000e+00  2.4543768663392382e-01 4.0330697764129897e-01 0.0000000000000000e+00  2.4541688475261025e-01 4.1117454122400748e-01 0.0000000000000000e+00  2.4526518535093131e-01 4.1762388557139968e-01 0.0000000000000000e+00  2.4523812648383853e-01 4.2551877823208378e-01 0.0000000000000000e+00  2.4508577596656023e-01 4.3195889079719868e-01 0.0000000000000000e+00  2.4505248653132355e-01 4.3988209300102299e-01 0.0000000000000000e+00  2.4489929608512231e-01 4.4631290477522434e-01 0.0000000000000000e+00  2.4485984470745534e-01 4.5426575097578403e-01 0.0000000000000000e+00  2.4470558309440135e-01 4.6068706519608876e-01 0.0000000000000000e+00  2.4466005310243449e-01 4.6867092336148136e-01 0.0000000000000000e+00  2.4450450288889092e-01 4.7508261424432924e-01 0.0000000000000000e+00  2.4445295821719626e-01 4.8309851891300359e-01 0.0000000000000000e+00  2.4429596852305835e-01 4.8950077534463371e-01 0.0000000000000000e+00  2.4423841222864659e-01 4.9754915339497119e-01 0.0000000000000000e+00  2.4407992652989191e-01 5.0394276604625932e-01 0.0000000000000000e+00  2.4401625696192572e-01 5.1202335563490120e-01 0.0000000000000000e+00  2.4385631021530216e-01 5.1840996482183543e-01 0.0000000000000000e+00  2.4378629447059819e-01 5.2652190161492662e-01 0.0000000000000000e+00  2.4362499011913760e-01 5.3290406759121633e-01 0.0000000000000000e+00  2.4354827612886593e-01 5.4104604307143600e-01 0.0000000000000000e+00  2.4338576290015354e-01 5.4742700675556388e-01 0.0000000000000000e+00  2.4330194470780775e-01 5.5559737692419497e-01 0.0000000000000000e+00  2.4313839921188990e-01 5.6198053584897534e-01 0.0000000000000000e+00  2.4304710605043375e-01 5.7017747289311838e-01 0.0000000000000000e+00  2.4288269553831515e-01 5.7656585428233731e-01 0.0000000000000000e+00  2.4278366085220959e-01 5.8478768060757391e-01 0.0000000000000000e+00  2.4261846964912412e-01 5.9118366726404792e-01 0.0000000000000000e+00  2.4251154153879445e-01 5.9942946175219947e-01 0.0000000000000000e+00  2.4234546792280837e-01 6.0583487912575706e-01 0.0000000000000000e+00  2.4223059420782897e-01 6.1410500602107343e-01 0.0000000000000000e+00  2.4206330812358215e-01 6.2052111632073959e-01 0.0000000000000000e+00  2.4194055077602697e-01 6.2881723394580991e-01 0.0000000000000000e+00  2.4177153521159425e-01 6.3524455671211555e-01 0.0000000000000000e+00  2.4164111984606559e-01 6.4356903707969637e-01 0.0000000000000000e+00  2.4146980014460109e-01 6.5000696594908858e-01 0.0000000000000000e+00  2.4133213066013895e-01 6.5836220605765117e-01 0.0000000000000000e+00  2.4115791416668558e-01 6.6480948364840853e-01 0.0000000000000000e+00  2.4101343088409688e-01 6.7319798056066960e-01 0.0000000000000000e+00  2.4083569003493063e-01 6.7965370079356047e-01 0.0000000000000000e+00  2.4068469447209362e-01 6.8807824693074748e-01 0.0000000000000000e+00  2.4050272046650814e-01 6.9454306173038327e-01 0.0000000000000000e+00  2.4034527564989622e-01 7.0300652202234326e-01 0.0000000000000000e+00  2.4015849404318027e-01 7.0948203899242024e-01 0.0000000000000000e+00  2.3999460760394242e-01 7.1798553140280619e-01 0.0000000000000000e+00  2.3980273006766464e-01 7.2447384856051744e-01 0.0000000000000000e+00  2.3963232597641837e-01 7.3301659008338760e-01 0.0000000000000000e+00  2.3943537596741654e-01 7.3952028118517099e-01 0.0000000000000000e+00  2.3925819549622693e-01 7.4810026133683671e-01 0.0000000000000000e+00  2.3905609424983165e-01 7.5462479393237214e-01 0.0000000000000000e+00  2.3887137081807508e-01 7.6324126738404352e-01 0.0000000000000000e+00  2.3866407744069021e-01 7.6979353134794726e-01 0.0000000000000000e+00  2.3847103973619926e-01 7.7844452214135007e-01 0.0000000000000000e+00  2.3825859696839949e-01 7.8503169803075290e-01 0.0000000000000000e+00  2.3805659791828848e-01 7.9371409868654497e-01 0.0000000000000000e+00  2.3783954191151338e-01 8.0034004943229109e-01 0.0000000000000000e+00  2.3762816768638872e-01 8.0904991772516899e-01 0.0000000000000000e+00  2.3740629601956570e-01 8.1572211575156772e-01 0.0000000000000000e+00  2.3718459879055107e-01 8.2446052241863743e-01 0.0000000000000000e+00  2.3695770792759865e-01 8.3118448298191872e-01 0.0000000000000000e+00  2.3672490458602280e-01 8.3995375474928191e-01 0.0000000000000000e+00  2.3649216727578007e-01 8.4673645599167657e-01 0.0000000000000000e+00  2.3624834866233621e-01 8.5553603609989426e-01 0.0000000000000000e+00  2.3601026881781795e-01 8.6237308189468709e-01 0.0000000000000000e+00  2.3575514726835212e-01 8.7120767092439855e-01 0.0000000000000000e+00  2.3551003950355090e-01 8.7810606320387419e-01 0.0000000000000000e+00  2.3524365474540898e-01 8.8698079274244457e-01 0.0000000000000000e+00  2.3499059370928838e-01 8.9394038211991611e-01 0.0000000000000000e+00  2.3471136884567936e-01 9.0287277867722504e-01 0.0000000000000000e+00  2.3444945954052168e-01 9.0989168307427615e-01 0.0000000000000000e+00  2.3416009641993427e-01 9.1887276230283910e-01 0.0000000000000000e+00  2.3388831423339360e-01 9.2594930905563688e-01 0.0000000000000000e+00  2.3358580803129458e-01 9.3500716080716451e-01 0.0000000000000000e+00  2.3330403916595394e-01 9.4213413075399410e-01 0.0000000000000000e+00  2.3298902875621252e-01 9.5127248683513588e-01 0.0000000000000000e+00  2.3269258148201957e-01 9.5847363323540813e-01 0.0000000000000000e+00  2.3236494493357981e-01 9.6769947853528659e-01 0.0000000000000000e+00  2.3206037574294311e-01 9.7492764952947364e-01 0.0000000000000000e+00  2.3171616397985703e-01 9.8427051142510458e-01 0.0000000000000000e+00  2.3139637209812766e-01 9.9156987570370769e-01 0.0000000000000000e+00  2.3103980549202255e-01 1.0010034241730559e+00 0.0000000000000000e+00  2.3070616276711997e-01 1.0083660049859307e+00 0.0000000000000000e+00  2.3032537817770601e-01 1.0179657942080276e+00 0.0000000000000000e+00  2.2998861626205827e-01 1.0253253839627567e+00 0.0000000000000000e+00  2.2959139904397979e-01 1.0350362820406853e+00 0.0000000000000000e+00  2.2923290034010690e-01 1.0425207130998826e+00 0.0000000000000000e+00  2.2881582115338564e-01 1.0523585231097039e+00 0.0000000000000000e+00  2.2845873514044573e-01 1.0598246666218618e+00 0.0000000000000000e+00  2.2800049624856913e-01 1.0699208047532023e+00 0.0000000000000000e+00  2.2764721882437278e-01 1.0773622067294670e+00 0.0000000000000000e+00  2.2717907038296103e-01 1.0875030798378118e+00 0.0000000000000000e+00  2.2679958310527731e-01 1.0951264135480614e+00 0.0000000000000000e+00  2.2630166703613247e-01 1.1054337694629064e+00 0.0000000000000000e+00  2.2596066301095688e-01 1.1128227077815953e+00 0.0000000000000000e+00  2.2540002931528788e-01 1.1235060613230137e+00 0.0000000000000000e+00  2.2508634115990486e-01 1.1307412431127191e+00 0.0000000000000000e+00  2.2453101150565682e-01 1.1413463446153409e+00 0.0000000000000000e+00  2.2417988783818735e-01 1.1488606263594616e+00 0.0000000000000000e+00  2.2363169605580449e-01 1.1593711946553369e+00 0.0000000000000000e+00  2.2336666807247976e-01 1.1663503639602395e+00 0.0000000000000000e+00  2.2270770977006571e-01 1.1775460056325227e+00 0.0000000000000000e+00  2.2257115161466520e-01 1.1837077875882467e+00 0.0000000000000000e+00  2.2187903938462752e-01 1.1950763126773465e+00 0.0000000000000000e+00  2.2173167758858359e-01 1.2013414970076253e+00 0.0000000000000000e+00  2.2119338649430653e-01 1.2116435589377601e+00 0.0000000000000000e+00  2.2095307842297932e-01 1.2185539923316620e+00 0.0000000000000000e+00  2.2046631651243265e-01 1.2284747594178698e+00 0.0000000000000000e+00  2.2037620890496709e-01 1.2344034770374599e+00 0.0000000000000000e+00  2.1969839208956055e-01 1.2455689132748935e+00 0.0000000000000000e+00  2.1996448162877358e-01 1.2491294297638473e+00 0.0000000000000000e+00  2.1892356674954674e-01 1.2627012850791819e+00 0.0000000000000000e+00  2.1961348695316485e-01 1.2634270547290798e+00 0.0000000000000000e+00  2.1829451450891560e-01 1.2788505884603651e+00 0.0000000000000000e+00  2.1923167267085278e-01 1.2779102557627144e+00 0.0000000000000000e+00  2.1776552235747595e-01 1.2943193886541142e+00 0.0000000000000000e+00  2.1886692216797124e-01 1.2922606205192813e+00 0.0000000000000000e+00  2.1735183593420676e-01 1.3090041620531521e+00 0.0000000000000000e+00  2.1846878244857446e-01 1.3068146295606520e+00 0.0000000000000000e+00  2.1701054726644894e-01 1.3231974901883907e+00 0.0000000000000000e+00  2.1812776529100639e-01 1.3209562770941905e+00 0.0000000000000000e+00  2.1668566710060880e-01 1.3372846914455827e+00 0.0000000000000000e+00  2.1779240823957743e-01 1.3350290746497433e+00 0.0000000000000000e+00  2.1643955916891117e-01 1.3508288474611485e+00 0.0000000000000000e+00  2.1746419527970665e-01 1.3490731390507960e+00 0.0000000000000000e+00  2.1618690236477622e-01 1.3643181151556372e+00 0.0000000000000000e+00  2.1720764139275311e-01 1.3627586663716100e+00 0.0000000000000000e+00  2.1593303748593473e-01 1.3776460117375999e+00 0.0000000000000000e+00  2.1694662851697666e-01 1.3765449767620594e+00 0.0000000000000000e+00  2.1574791602191321e-01 1.3906309499312355e+00 0.0000000000000000e+00  2.1664832252809829e-01 1.3900448937818926e+00 0.0000000000000000e+00  2.1563098303071188e-01 1.4041615183834095e+00 0.0000000000000000e+00  2.1629831906491359e-01 1.4024810054261267e+00 0.0000000000000000e+00  2.1559534899072530e-01 1.4183887779772779e+00 0.0000000000000000e+00  2.1594774149648271e-01 1.4148266620567649e+00 0.0000000000000000e+00  2.1540814383287010e-01 1.4310509275469647e+00 0.0000000000000000e+00  2.1606891138660983e-01 1.4305980228756199e+00 0.0000000000000000e+00  2.1442379080982304e-01 1.4380585175356508e+00 0.0000000000000000e+00  2.1718073566247564e-01 1.4527334174750479e+00 0.0000000000000000e+00  2.1275053360528920e-01 1.4406245114216607e+00 0.0000000000000000e+00  2.1785868838617006e-01 1.4715695597749707e+00 0.0000000000000000e+00  2.1359991723173172e-01 1.4603263732630010e+00 0.0000000000000000e+00  2.1296384448512218e-01 1.4535055145072049e+00 0.0000000000000000e+00  2.2234125695992810e-01 1.5306006675679940e+00 0.0000000000000000e+00  1.9712040902287237e-01 1.3669247556946824e+00 0.0000000000000000e+00  2.2794426016531263e-01 1.5487748133481187e+00 0.0000000000000000e+00  1.1888367104907405e-01 8.9137522998654228e-01 0.0000000000000000e+00  2.1001959280242195e-02 -1.4310575726204477e+00 0.0000000000000000e+00  3.4762237839474464e-02 -7.1462956296459956e-01 0.0000000000000000e+00  3.1914603429929196e-02 -9.7041299454425645e-01 0.0000000000000000e+00  3.2233437908175289e-02 -8.6871667747829762e-01 0.0000000000000000e+00  3.2035705135137406e-02 -8.9925200432210528e-01 0.0000000000000000e+00  3.2397249476002435e-02 -8.8462681431167223e-01 0.0000000000000000e+00  3.1853945720358469e-02 -8.8118421832465776e-01 0.0000000000000000e+00  3.2449074973817431e-02 -8.7940780998562584e-01 0.0000000000000000e+00  3.1792212844731979e-02 -8.7113405002722044e-01 0.0000000000000000e+00  3.2440276486045638e-02 -8.7117526475541618e-01 0.0000000000000000e+00  3.1757546901470521e-02 -8.6208507453110028e-01 0.0000000000000000e+00  3.2426212522351172e-02 -8.6259777863661824e-01 0.0000000000000000e+00  3.1725246077615468e-02 -8.5308005092694061e-01 0.0000000000000000e+00  3.2415076491341288e-02 -8.5398547947224557e-01 0.0000000000000000e+00  3.1693500877498969e-02 -8.4404140009730233e-01 0.0000000000000000e+00  3.2406324663332382e-02 -8.4534919868933400e-01 0.0000000000000000e+00  3.1662912675536198e-02 -8.3497821887496670e-01 0.0000000000000000e+00  3.2399323413334818e-02 -8.3668438536961554e-01 0.0000000000000000e+00  3.1633640153109550e-02 -8.2589543378448982e-01 0.0000000000000000e+00  3.2393859394799572e-02 -8.2799214216000483e-01 0.0000000000000000e+00  3.1605619274701569e-02 -8.1679429294445416e-01 0.0000000000000000e+00  3.2389813495580504e-02 -8.1927441917941646e-01 0.0000000000000000e+00  3.1578797044331162e-02 -8.0767644160602403e-01 0.0000000000000000e+00  3.2387038172334896e-02 -8.1053182591103212e-01 0.0000000000000000e+00  3.1553167271105943e-02 -7.9854469191764710e-01 0.0000000000000000e+00  3.2385368159199221e-02 -8.0176379148924859e-01 0.0000000000000000e+00  3.1528738761002921e-02 -7.8940247283528875e-01 0.0000000000000000e+00  3.2384650979424792e-02 -7.9296924351456288e-01 0.0000000000000000e+00  3.1505511358136992e-02 -7.8025324152739173e-01 0.0000000000000000e+00  3.2384759374569368e-02 -7.8414706342885765e-01 0.0000000000000000e+00  3.1483471902781168e-02 -7.7110018230645461e-01 0.0000000000000000e+00  3.2385584305810025e-02 -7.7529634783056656e-01 0.0000000000000000e+00  3.1462606788406199e-02 -7.6194597961526911e-01 0.0000000000000000e+00  3.2387021944501056e-02 -7.6641658375314248e-01 0.0000000000000000e+00  3.1442907386671888e-02 -7.5279277537712963e-01 0.0000000000000000e+00  3.2388969113068045e-02 -7.5750770069703155e-01 0.0000000000000000e+00  3.1424381772071512e-02 -7.4364195344040618e-01 0.0000000000000000e+00  3.2391306307836876e-02 -7.4857040475999204e-01 0.0000000000000000e+00  3.1407053278401882e-02 -7.3449410623802813e-01 0.0000000000000000e+00  3.2393926508712791e-02 -7.3960573705474542e-01 0.0000000000000000e+00  3.1390934161887221e-02 -7.2534943822345488e-01 0.0000000000000000e+00  3.2396713410260007e-02 -7.3061549628092093e-01 0.0000000000000000e+00  3.1376076209562724e-02 -7.1620685526549943e-01 0.0000000000000000e+00  3.2399553266699244e-02 -7.2160202476296342e-01 0.0000000000000000e+00  3.1362446990110822e-02 -7.0706617089044721e-01 0.0000000000000000e+00  3.2402450360110698e-02 -7.1256613609672315e-01 0.0000000000000000e+00  3.1350017167007596e-02 -6.9792664825262074e-01 0.0000000000000000e+00  3.2405254419750840e-02 -7.0351177864749748e-01 0.0000000000000000e+00  3.1338863448873495e-02 -6.8878532046339058e-01 0.0000000000000000e+00  3.2408047115076631e-02 -6.9443913208727326e-01 0.0000000000000000e+00  3.1328567835209750e-02 -6.7964770081937353e-01 0.0000000000000000e+00  3.2411123727273464e-02 -6.8534479143505977e-01 0.0000000000000000e+00  3.1319282312586912e-02 -6.7050921183381651e-01 0.0000000000000000e+00  3.2413786975486643e-02 -6.7624267686777206e-01 0.0000000000000000e+00  3.1311349590551520e-02 -6.6136205492464806e-01 0.0000000000000000e+00  3.2416841702275268e-02 -6.6712024182147300e-01 0.0000000000000000e+00  3.1302857226715386e-02 -6.5223832097683643e-01 0.0000000000000000e+00  3.2421461715540063e-02 -6.5795827515556016e-01 0.0000000000000000e+00  3.1295299497406705e-02 -6.4311045902940167e-01 0.0000000000000000e+00  3.2423376194225653e-02 -6.4883236912510200e-01 0.0000000000000000e+00  3.1292273055385879e-02 -6.3391448395769923e-01 0.0000000000000000e+00  3.2424214433706876e-02 -6.3971435186395087e-01 0.0000000000000000e+00  3.1285315035012008e-02 -6.2479898151897451e-01 0.0000000000000000e+00  3.2434032612342206e-02 -6.3042859638126458e-01 0.0000000000000000e+00  3.1272587860694777e-02 -6.1579598110843881e-01 0.0000000000000000e+00  3.2437924896065541e-02 -6.2123585479347054e-01 0.0000000000000000e+00  3.1284159850301869e-02 -6.0637682620024602e-01 0.0000000000000000e+00  3.2403710704964041e-02 -6.1269773352731405e-01 0.0000000000000000e+00  3.1333328008157635e-02 -5.9630951363675655e-01 0.0000000000000000e+00  3.2354489827566273e-02 -6.0440830862763006e-01 0.0000000000000000e+00  3.1357635220829072e-02 -5.8669418238162274e-01 0.0000000000000000e+00  3.2376433649117492e-02 -5.9485956018400366e-01 0.0000000000000000e+00  3.1275516966397174e-02 -5.7896455906500999e-01 0.0000000000000000e+00  3.2514517154317267e-02 -5.8326837719647118e-01 0.0000000000000000e+00  3.1095211762968814e-02 -5.7297589392496595e-01 0.0000000000000000e+00  3.2711769136897537e-02 -5.7063609562542383e-01 0.0000000000000000e+00  3.0907681658149857e-02 -5.6712770065494422e-01 0.0000000000000000e+00  3.2876595815206563e-02 -5.5856226283588040e-01 0.0000000000000000e+00  3.0787039127112281e-02 -5.6011338716625747e-01 0.0000000000000000e+00  3.2965107016617957e-02 -5.4780809570708955e-01 0.0000000000000000e+00  3.0743239522583097e-02 -5.5175758458427093e-01 0.0000000000000000e+0