<?xml version="1.0"?>
<VTKFile type="UnstructuredGrid"  version="0.1"  >
<UnstructuredGrid>
<Piece  NumberOfPoints="201" NumberOfCells="200">
<Points>
<DataArray  type="Float64"  NumberOfComponents="3"  format="ascii">-5 0 0  -4.95 0 0  -4.9 0 0  -4.85 0 0  -4.8 0 0  -4.75 0 0  -4.7 0 0  -4.65 0 0  -4.6 0 0  -4.55 0 0  -4.5 0 0  -4.45 0 0  -4.4 0 0  -4.35 0 0  -4.3 0 0  -4.25 0 0  -4.2 0 0  -4.15 0 0  -4.1 0 0  -4.05 0 0  -4 0 0  -3.95 0 0  -3.9 0 0  -3.85 0 0  -3.8 0 0  -3.75 0 0  -3.7 0 0  -3.65 0 0  -3.6 0 0  -3.55 0 0  -3.5 0 0  -3.45 0 0  -3.4 0 0  -3.35 0 0  -3.3 0 0  -3.25 0 0  -3.2 0 0  -3.15 0 0  -3.1 0 0  -3.05 0 0  -3 0 0  -2.95 0 0  -2.9 0 0  -2.85 0 0  -2.8 0 0  -2.75 0 0  -2.7 0 0  -2.65 0 0  -2.6 0 0  -2.55 0 0  -2.5 0 0  -2.45 0 0  -2.4 0 0  -2.35 0 0  -2.3 0 0  -2.25 0 0  -2.2 0 0  -2.15 0 0  -2.1 0 0  -2.05 0 0  -2 0 0  -1.95 0 0  -1.9 0 0  -1.85 0 0  -1.8 0 0  -1.75 0 0  -1.7 0 0  -1.65 0 0  -1.6 0 0  -1.55 0 0  -1.5 0 0  -1.45 0 0  -1.4 0 0  -1.35 0 0  -1.3 0 0  -1.25 0 0  -1.2 0 0  -1.15 0 0  -1.1 0 0  -1.05 0 0  -1 0 0  -0.9500000000000002 0 0  -0.9000000000000004 0 0  -0.8499999999999996 0 0  -0.7999999999999998 0 0  -0.75 0 0  -0.7000000000000002 0 0  -0.6500000000000004 0 0  -0.5999999999999996 0 0  -0.5499999999999998 0 0  -0.5 0 0  -0.4500000000000002 0 0  -0.4000000000000004 0 0  -0.3499999999999996 0 0  -0.2999999999999998 0 0  -0.25 0 0  -0.2000000000000002 0 0  -0.1500000000000004 0 0  -0.09999999999999964 0 0  -0.04999999999999982 0 0  0 0 0  0.04999999999999982 0 0  0.09999999999999964 0 0  0.1500000000000004 0 0  0.2000000000000002 0 0  0.25 0 0  0.2999999999999998 0 0  0.3499999999999996 0 0  0.4000000000000004 0 0  0.4500000000000002 0 0  0.5 0 0  0.5499999999999998 0 0  0.5999999999999996 0 0  0.6500000000000004 0 0  0.7000000000000002 0 0  0.75 0 0  0.7999999999999998 0 0  0.8499999999999996 0 0  0.9000000000000004 0 0  0.9500000000000002 0 0  1 0 0  1.05 0 0  1.1 0 0  1.15 0 0  1.2 0 0  1.25 0 0  1.3 0 0  1.35 0 0  1.4 0 0  1.45 0 0  1.5 0 0  1.55 0 0  1.6 0 0  1.65 0 0  1.7 0 0  1.75 0 0  1.8 0 0  1.85 0 0  1.9 0 0  1.95 0 0  2 0 0  2.05 0 0  2.1 0 0  2.15 0 0  2.2 0 0  2.25 0 0  2.3 0 0  2.35 0 0  2.4 0 0  2.45 0 0  2.5 0 0  2.55 0 0  2.6 0 0  2.65 0 0  2.7 0 0  2.75 0 0  2.8 0 0  2.85 0 0  2.9 0 0  2.95 0 0  3 0 0  3.050000000000001 0 0  3.1 0 0  3.15 0 0  3.199999999999999 0 0  3.25 0 0  3.300000000000001 0 0  3.35 0 0  3.4 0 0  3.449999999999999 0 0  3.5 0 0  3.550000000000001 0 0  3.6 0 0  3.65 0 0  3.699999999999999 0 0  3.75 0 0  3.800000000000001 0 0  3.85 0 0  3.9 0 0  3.949999999999999 0 0  4 0 0  4.050000000000001 0 0  4.1 0 0  4.15 0 0  4.199999999999999 0 0  4.25 0 0  4.300000000000001 0 0  4.35 0 0  4.4 0 0  4.449999999999999 0 0  4.5 0 0  4.550000000000001 0 0  4.6 0 0  4.65 0 0  4.699999999999999 0 0  4.75 0 0  4.800000000000001 0 0  4.85 0 0  4.9 0 0  4.949999999999999 0 0  5 0 0  </DataArray>
</Points>
<Cells>
<DataArray  type="UInt32"  Name="connectivity"  format="ascii">0 1  1 2  2 3  3 4  4 5  5 6  6 7  7 8  8 9  9 10  10 11  11 12  12 13  13 14  14 15  15 16  16 17  17 18  18 19  19 20  20 21  21 22  22 23  23 24  24 25  25 26  26 27  27 28  28 29  29 30  30 31  31 32  32 33  33 34  34 35  35 36  36 37  37 38  38 39  39 40  40 41  41 42  42 43  43 44  44 45  45 46  46 47  47 48  48 49  49 50  50 51  51 52  52 53  53 54  54 55  55 56  56 57  57 58  58 59  59 60  60 61  61 62  62 63  63 64  64 65  65 66  66 67  67 68  68 69  69 70  70 71  71 72  72 73  73 74  74 75  75 76  76 77  77 78  78 79  79 80  80 81  81 82  82 83  83 84  84 85  85 86  86 87  87 88  88 89  89 90  90 91  91 92  92 93  93 94  94 95  95 96  96 97  97 98  98 99  99 100  100 101  101 102  102 103  103 104  104 105  105 106  106 107  107 108  108 109  109 110  110 111  111 112  112 113  113 114  114 115  115 116  116 117  117 118  118 119  119 120  120 121  121 122  122 123  123 124  124 125  125 126  126 127  127 128  128 129  129 130  130 131  131 132  132 133  133 134  134 135  135 136  136 137  137 138  138 139  139 140  140 141  141 142  142 143  143 144  144 145  145 146  146 147  147 148  148 149  149 150  150 151  151 152  152 153  153 154  154 155  155 156  156 157  157 158  158 159  159 160  160 161  161 162  162 163  163 164  164 165  165 166  166 167  167 168  168 169  169 170  170 171  171 172  172 173  173 174  174 175  175 176  176 177  177 178  178 179  179 180  180 181  181 182  182 183  183 184  184 185  185 186  186 187  187 188  188 189  189 190  190 191  191 192  192 193  193 194  194 195  195 196  196 197  197 198  198 199  199 200  </DataArray>
<DataArray  type="UInt32"  Name="offsets"  format="ascii">2 4 6 8 10 12 14 16 18 20 22 24 26 28 30 32 34 36 38 40 42 44 46 48 50 52 54 56 58 60 62 64 66 68 70 72 74 76 78 80 82 84 86 88 90 92 94 96 98 100 102 104 106 108 110 112 114 116 118 120 122 124 126 128 130 132 134 136 138 140 142 144 146 148 150 152 154 156 158 160 162 164 166 168 170 172 174 176 178 180 182 184 186 188 190 192 194 196 198 200 202 204 206 208 210 212 214 216 218 220 222 224 226 228 230 232 234 236 238 240 242 244 246 248 250 252 254 256 258 260 262 264 266 268 270 272 274 276 278 280 282 284 286 288 290 292 294 296 298 300 302 304 306 308 310 312 314 316 318 320 322 324 326 328 330 332 334 336 338 340 342 344 346 348 350 352 354 356 358 360 362 364 366 368 370 372 374 376 378 380 382 384 386 388 390 392 394 396 398 400 </DataArray>
<DataArray  type="UInt8"  Name="types"  format="ascii">3 3 3 3 3 3 3 3 3 3 3 3 3 3 3 3 3 3 3 3 3 3 3 3 3 3 3 3 3 3 3 3 3 3 3 3 3 3 3 3 3 3 3 3 3 3 3 3 3 3 3 3 3 3 3 3 3 3 3 3 3 3 3 3 3 3 3 3 3 3 3 3 3 3 3 3 3 3 3 3 3 3 3 3 3 3 3 3 3 3 3 3 3 3 3 3 3 3 3 3 3 3 3 3 3 3 3 3 3 3 3 3 3 3 3 3 3 3 3 3 3 3 3 3 3 3 3 3 3 3 3 3 3 3 3 3 3 3 3 3 3 3 3 3 3 3 3 3 3 3 3 3 3 3 3 3 3 3 3 3 3 3 3 3 3 3 3 3 3 3 3 3 3 3 3 3 3 3 3 3 3 3 3 3 3 3 3 3 3 3 3 3 3 3 3 3 3 3 3 3 </DataArray>
</Cells>
<PointData  Vectors="(s, w)"> 
<DataArray  type="Float64"  Name="(s, w)"  NumberOfComponents="3" format="ascii">3.1752125189045750e+00 0.0000000000000000e+00 0.0000000000000000e+00  3.1511655178075721e+00 -1.8494506948957823e-01 0.0000000000000000e+00  3.1674713792361628e+00 3.0930171866282280e-01 0.0000000000000000e+00  3.1651067287195289e+00 -3.7320180231912831e-01 0.0000000000000000e+00  3.1517685086240044e+00 3.2247576660882177e-01 0.0000000000000000e+00  3.1791226366961278e+00 -2.0444185910351959e-01 0.0000000000000000e+00  3.1438251294242008e+00 3.9826068636122570e-02 0.0000000000000000e+00  3.1785879699862654e+00 1.3859208676078427e-01 0.0000000000000000e+00  3.1527021700894382e+00 -2.5517697476517209e-01 0.0000000000000000e+00  3.1627220340647479e+00 3.2367087286409946e-01 0.0000000000000000e+00  3.1708953842817187e+00 -2.9789695379592451e-01 0.0000000000000000e+00  3.1465718569877201e+00 2.1414899902087256e-01 0.0000000000000000e+00  3.1798391982967211e+00 -9.5449055809416691e-02 0.0000000000000000e+00  3.1468275517372781e+00 -1.9502222347313778e-02 0.0000000000000000e+00  3.1679741600158517e+00 1.3621629045841505e-01 0.0000000000000000e+00  3.1639425395672771e+00 -1.2213314393502216e-01 0.0000000000000000e+00  3.1437599738428310e+00 2.4628302070958688e-01 0.0000000000000000e+00  3.1787465805226582e+00 -1.8694075763504986e-02 0.0000000000000000e+00  3.1278403293138481e+00 3.0376509024872866e-01 0.0000000000000000e+00  3.1696471734896408e+00 2.0269837344691755e-01 0.0000000000000000e+00  3.1302206016270961e+00 4.5272041728558554e-01 0.0000000000000000e+00  3.1354533123879880e+00 5.1148567486598995e-01 0.0000000000000000e+00  3.1372200050116095e+00 6.8252465436593812e-01 0.0000000000000000e+00  3.0982782111831568e+00 9.9308599291351496e-01 0.0000000000000000e+00  3.1254105536076335e+00 8.9393281198610941e-01 0.0000000000000000e+00  3.0787682128472036e+00 1.6127500031059727e+00 0.0000000000000000e+00  3.0895952838054388e+00 1.1913157131385559e+00 0.0000000000000000e+00  3.0718307379490781e+00 2.0705045345634265e+00 0.0000000000000000e+00  3.0489926388873867e+00 1.8381062991063180e+00 0.0000000000000000e+00  3.0575372963524372e+00 2.1734784059472729e+00 0.0000000000000000e+00  3.0194641789951904e+00 2.7479186766007517e+00 0.0000000000000000e+00  3.0318475855821259e+00 2.2764791117559766e+00 0.0000000000000000e+00  2.9947282964622537e+00 3.3683434830504777e+00 0.0000000000000000e+00  3.0052904728257266e+00 2.8865998912959911e+00 0.0000000000000000e+00  2.9692545149942333e+00 3.4522754693882964e+00 0.0000000000000000e+00  2.9741185072936802e+00 3.8251930215609873e+00 0.0000000000000000e+00  2.9550344642774533e+00 3.5213427819287588e+00 0.0000000000000000e+00  2.9288078670879458e+00 4.4497589707526108e+00 0.0000000000000000e+00  2.9489902166365276e+00 4.0209671983882478e+00 0.0000000000000000e+00  2.8897742702619436e+00 4.7151073414642726e+00 0.0000000000000000e+00  2.9191250423290827e+00 4.6417545354208185e+00 0.0000000000000000e+00  2.8829883410528647e+00 5.0547274142330911e+00 0.0000000000000000e+00  2.8620269818475164e+00 5.1366637317161929e+00 0.0000000000000000e+00  2.8846393716611751e+00 5.3648579578894511e+00 0.0000000000000000e+00  2.8207928297694811e+00 5.8021650141951620e+00 0.0000000000000000e+00  2.8558244681821274e+00 5.4685585385821875e+00 0.0000000000000000e+00  2.8083485300530953e+00 6.4430307218593148e+00 0.0000000000000000e+00  2.8119835929777688e+00 5.9475113482730633e+00 0.0000000000000000e+00  2.7941772430927729e+00 6.4501564261907172e+00 0.0000000000000000e+00  2.7773678928906596e+00 6.9405270831134560e+00 0.0000000000000000e+00  2.7770809385006872e+00 6.3500274974854847e+00 0.0000000000000000e+00  2.7364590922875967e+00 7.5057929271306909e+00 0.0000000000000000e+00  2.7654121660749906e+00 6.9490916919681416e+00 0.0000000000000000e+00  2.7048390643949523e+00 7.5011721671229559e+00 0.0000000000000000e+00  2.7239019229906964e+00 7.6521474183753782e+00 0.0000000000000000e+00  2.7123446287893671e+00 7.7393025356367149e+00 0.0000000000000000e+00  2.6582910068064498e+00 8.0629807453023030e+00 0.0000000000000000e+00  2.7102149222110508e+00 7.9962991311999945e+00 0.0000000000000000e+00  2.6329355177195688e+00 8.6841724539195653e+00 0.0000000000000000e+00  2.6618942901305296e+00 8.1226556037008333e+00 0.0000000000000000e+00  2.6335212309005307e+00 8.9696525188565364e+00 0.0000000000000000e+00  2.6156830662704071e+00 8.9502698887492045e+00 0.0000000000000000e+00  2.6182520847720174e+00 8.6237977593725788e+00 0.0000000000000000e+00  2.5776786249780321e+00 9.7886818071554949e+00 0.0000000000000000e+00  2.6087865607759269e+00 8.9547056989935268e+00 0.0000000000000000e+00  2.5381588758209057e+00 9.7227836274324808e+00 0.0000000000000000e+00  2.5748457190879872e+00 9.7398682455033629e+00 0.0000000000000000e+00  2.5471270738595138e+00 9.8091881027620076e+00 0.0000000000000000e+00  2.4974826684862137e+00 1.0079941241049799e+01 0.0000000000000000e+00  2.5589148092643312e+00 1.0022465730517087e+01 0.0000000000000000e+00  2.4647217802813755e+00 1.0730419175274243e+01 0.0000000000000000e+00  2.5120517894482153e+00 9.9818625557150966e+00 0.0000000000000000e+00  2.4669262763179329e+00 1.1000712935605442e+01 0.0000000000000000e+00  2.4649934005351692e+00 1.0850211755535604e+01 0.0000000000000000e+00  2.4571255699688193e+00 1.0477061463762785e+01 0.0000000000000000e+00  2.4104471701782155e+00 1.1602170306198778e+01 0.0000000000000000e+00  2.4673699165458647e+00 1.0837429486661870e+01 0.0000000000000000e+00  2.3612606134474232e+00 1.1551734112753108e+01 0.0000000000000000e+00  2.4274409001588597e+00 1.1284377403576453e+01 0.0000000000000000e+00  2.3866872918892534e+00 1.1906964390300965e+01 0.0000000000000000e+00  2.3444948293999808e+00 1.1647770563021668e+01 0.0000000000000000e+00  2.3941014175830198e+00 1.1556018399891833e+01 0.0000000000000000e+00  2.3026994732532997e+00 1.2721250850755141e+01 0.0000000000000000e+00  2.3844007179513897e+00 1.1362067838248279e+01 0.0000000000000000e+00  2.2422989198334324e+00 1.2680519705893456e+01 0.0000000000000000e+00  2.3834392222999448e+00 1.2129493282589477e+01 0.0000000000000000e+00  2.2303839630065343e+00 1.2858613988490355e+01 0.0000000000000000e+00  2.3085090501899654e+00 1.1913235497369421e+01 0.0000000000000000e+00  2.2521956520704682e+00 1.3400953117805306e+01 0.0000000000000000e+00  2.2784801891166255e+00 1.2646933837752171e+01 0.0000000000000000e+00  2.2016240115474668e+00 1.2610979766054681e+01 0.0000000000000000e+00  2.2617797382545635e+00 1.3438152144790950e+01 0.0000000000000000e+00  2.2141315953211138e+00 1.3287277021475198e+01 0.0000000000000000e+00  2.1749208514728435e+00 1.2613887006610945e+01 0.0000000000000000e+00  2.2188770526004791e+00 1.3962631477385834e+01 0.0000000000000000e+00  2.1811270426590603e+00 1.3499672386848367e+01 0.0000000000000000e+00  2.1234146700371577e+00 1.2728123750221737e+01 0.0000000000000000e+00  2.1988567005376591e+00 1.4558601666667851e+01 0.0000000000000000e+00  2.1340412192525404e+00 1.3646857884211860e+01 0.0000000000000000e+00  2.0631613636574615e+00 1.2622999202746174e+01 0.0000000000000000e+00  2.1778220347491799e+00 1.5514637934476326e+01 0.0000000000000000e+00  2.0985313882028418e+00 1.3794682581392166e+01 0.0000000000000000e+00  1.9864638142958728e+00 1.2094841424772184e+01 0.0000000000000000e+00  2.2116466172141416e+00 1.6239291706898697e+01 0.0000000000000000e+00  2.1021968763046219e+00 1.4240894369289970e+01 0.0000000000000000e+00  1.9359875331417578e+00 1.0844990789435553e+01 0.0000000000000000e+00  2.2206556030948179e+00 1.6742163174217676e+01 0.0000000000000000e+00  2.1548946427907212e+00 1.5351287643590060e+01 0.0000000000000000e+00  1.8514931414868090e+00 9.5737238084679710e+00 0.0000000000000000e+00  2.1965894274305788e+00 1.6335178961804814e+01 0.0000000000000000e+00  2.2392056647794369e+00 1.7325229022018991e+01 0.0000000000000000e+00  1.8001715587553335e+00 8.6647621581493954e+00 0.0000000000000000e+00  2.1007176421762379e+00 1.4697688733103336e+01 0.0000000000000000e+00  2.3501191627053388e+00 1.9621149101286825e+01 0.0000000000000000e+00  1.8020695815405678e+00 8.9734075717048931e+00 0.0000000000000000e+00  1.9500249766669164e+00 1.1797398485640517e+01 0.0000000000000000e+00  2.4281724697094069e+00 2.1437871570768554e+01 0.0000000000000000e+00  1.8987290935326262e+00 1.0928808831236541e+01 0.0000000000000000e+00  1.7656669556870119e+00 8.4332927873568071e+00 0.0000000000000000e+00  2.4291090150471892e+00 2.1558428820979280e+01 0.0000000000000000e+00  2.0799150744106769e+00 1.4654865247078133e+01 0.0000000000000000e+00  1.6181205688815621e+00 5.7263855951956995e+00 0.0000000000000000e+00  2.2996001495076146e+00 1.9136082130117291e+01 0.0000000000000000e+00  2.3173188798656983e+00 1.9443031976340890e+01 0.0000000000000000e+00  1.5726518657770501e+00 5.1130997855175844e+00 0.0000000000000000e+00  2.0400035391795535e+00 1.4039821284252170e+01 0.0000000000000000e+00  2.5184226616734140e+00 2.3729912701922395e+01 0.0000000000000000e+00  1.7048742226514031e+00 7.7237133374516196e+00 0.0000000000000000e+00  1.7034644609155594e+00 7.7238144143359877e+00 0.0000000000000000e+00  2.5587387903967223e+00 2.4719445348160381e+01 0.0000000000000000e+00  2.0255173966029827e+00 1.4007683635504952e+01 0.0000000000000000e+00  1.4410046341636213e+00 3.0503970977444941e+00 0.0000000000000000e+00  2.3126766899571978e+00 1.9845934544272975e+01 0.0000000000000000e+00  2.4403279335817181e+00 2.2388369976731450e+01 0.0000000000000000e+00  1.4412595508529726e+00 3.3594689804079616e+00 0.0000000000000000e+00  1.8173248791267795e+00 1.0170941148761131e+01 0.0000000000000000e+00  2.6754586500466098e+00 2.7600890089467750e+01 0.0000000000000000e+00  1.8273859634508764e+00 1.0483378480274554e+01 0.0000000000000000e+00  1.3477747582688167e+00 1.9294153311917310e+00 0.0000000000000000e+00  2.4192755548191363e+00 2.2313718565195078e+01 0.0000000000000000e+00  2.4382315605944602e+00 2.2671782428090079e+01 0.0000000000000000e+00  1.3125867716030375e+00 1.6052677317716402e+00 0.0000000000000000e+00  1.7248817887740235e+00 8.7398044969584880e+00 0.0000000000000000e+00  2.7463709139415400e+00 2.9542946551862158e+01 0.0000000000000000e+00  1.8869805562076138e+00 1.1801930725132237e+01 0.0000000000000000e+00  1.1778766667039366e+00 -3.2479584733481193e-01 0.0000000000000000e+00  2.2368222140340701e+00 1.8729602530454013e+01 0.0000000000000000e+00  2.6570318342084289e+00 2.7639840103345300e+01 0.0000000000000000e+00  1.4060994969991476e+00 3.4497194025423386e+00 0.0000000000000000e+00  1.3498541276312286e+00 2.4747601328264124e+00 0.0000000000000000e+00  2.6263974384168280e+00 2.7131806949053132e+01 0.0000000000000000e+00  2.3312261423010812e+00 2.0603905968155527e+01 0.0000000000000000e+00  1.1263279657317464e+00 -6.0274661526172391e-01 0.0000000000000000e+00  1.6319116704750856e+00 7.1733269381020186e+00 0.0000000000000000e+00  2.8078780409991908e+00 3.1427024185207223e+01 0.0000000000000000e+00  1.9877708255058903e+00 1.3650697210716745e+01 0.0000000000000000e+00  1.0161829947135919e+00 -1.8260078034419216e+00 0.0000000000000000e+00  1.8859025273789400e+00 1.1726024310951457e+01 0.0000000000000000e+00  2.8422211031667204e+00 3.2375526486129324e+01 0.0000000000000000e+00  1.7324839420631715e+00 8.8686669098358060e+00 0.0000000000000000e+00  9.9308234682721186e-01 -1.9038215522671447e+00 0.0000000000000000e+00  2.0597562825170610e+00 1.5040473941194714e+01 0.0000000000000000e+00  2.8193983324370144e+00 3.1905509947084742e+01 0.0000000000000000e+00  1.5781165600782538e+00 6.1821542146230097e+00 0.0000000000000000e+00  1.0050164278419198e+00 -1.6677552120249872e+00 0.0000000000000000e+00  2.1701180665786932e+00 1.7236265071650180e+01 0.0000000000000000e+00  2.7807579833648175e+00 3.0968883047648895e+01 0.0000000000000000e+00  1.4828496327189025e+00 4.6673467517141978e+00 0.0000000000000000e+00  1.0677347665937356e+00 -1.0389747184916334e+00 0.0000000000000000e+00  2.3209614358889121e+00 2.0425459805367552e+01 0.0000000000000000e+00  2.6888389989709327e+00 2.8721452921056031e+01 0.0000000000000000e+00  1.3466680337489281e+00 2.6203012063081710e+00 0.0000000000000000e+00  1.1707631339309670e+00 1.9069879747205884e-01 0.0000000000000000e+00  2.5073117586388829e+00 2.4515741489051877e+01 0.0000000000000000e+00  2.5441342433998537e+00 2.5600637108661729e+01 0.0000000000000000e+00  1.2326755328683388e+00 3.4149384064360055e-01 0.0000000000000000e+00  9.4126510550712128e-01 2.3194868847773185e-02 0.0000000000000000e+00  1.0166620900551375e+00 -3.6006453650699821e-02 0.0000000000000000e+00  9.9448577689995921e-01 2.1232453066261245e-02 0.0000000000000000e+00  1.0023441214901290e+00 -1.2090688984047878e-02 0.0000000000000000e+00  9.9865230284972950e-01 7.9435615368685496e-03 0.0000000000000000e+00  1.0009745433053920e+00 -6.0059254427707910e-03 0.0000000000000000e+00  9.9921360712957918e-01 4.9080424207409079e-03 0.0000000000000000e+00  1.0006566069695262e+00 -4.1078901616239359e-03 0.0000000000000000e+00  9.9945098011986599e-01 3.4383808328300111e-03 0.0000000000000000e+00  1.0004545549243820e+00 -2.8461126897392332e-03 0.0000000000000000e+00  9.9962865664609546e-01 2.3256476531801832e-03 0.0000000000000000e+00  1.0002992474621364e+00 -1.8734408690184142e-03 0.0000000000000000e+00  9.9976202260776392e-01 1.4897079257218367e-03 0.0000000000000000e+00  1.0001869348457750e+00 -1.1693802547488507e-03 0.0000000000000000e+00  9.9985483630143368e-01 9.0720857694408827e-04 0.0000000000000000e+00  1.0001115539880097e+00 -6.9564654671140495e-04 0.0000000000000000e+00  9.9991507226021803e-01 5.2746711067177296e-04 0.0000000000000000e+00  1.0000641561069032e+00 -3.9522126973267008e-04 0.0000000000000000e+00  9.9995179477904406e-01 2.9224208744185932e-04 0.0000000000000000e+00  1.0000361772653303e+00 -2.1244357820463327e-04 0.0000000000000000e+00  9.9997267948367030e-01 1.5058227496350193e-04 0.0000000000000000e+00  1.0000210336201278e+00 -1.0209642963351071e-04 0.0000000000000000e+00  9.9998313998364241e-01 6.3071709891682066e-05 0.0000000000000000e+00  1.0000144809902531e+00 -3.0071496974180735e-05 0.0000000000000000e+00  9.9998629130618033e-01 0.0000000000000000e+00 0.0000000000000000e+00  </DataArray> 
</PointData> 
</Piece>
</UnstructuredGrid>
</VTKFile>