<?xml version="1.0"?>
<VTKFile type="UnstructuredGrid"  version="0.1"  >
<UnstructuredGrid>
<Piece  NumberOfPoints="201" NumberOfCells="200">
<Points>
<DataArray  type="Float64"  NumberOfComponents="3"  format="ascii">-5 0 0  -4.95 0 0  -4.9 0 0  -4.85 0 0  -4.8 0 0  -4.75 0 0  -4.7 0 0  -4.65 0 0  -4.6 0 0  -4.55 0 0  -4.5 0 0  -4.45 0 0  -4.4 0 0  -4.35 0 0  -4.3 0 0  -4.25 0 0  -4.2 0 0  -4.15 0 0  -4.1 0 0  -4.05 0 0  -4 0 0  -3.95 0 0  -3.9 0 0  -3.85 0 0  -3.8 0 0  -3.75 0 0  -3.7 0 0  -3.65 0 0  -3.6 0 0  -3.55 0 0  -3.5 0 0  -3.45 0 0  -3.4 0 0  -3.35 0 0  -3.3 0 0  -3.25 0 0  -3.2 0 0  -3.15 0 0  -3.1 0 0  -3.05 0 0  -3 0 0  -2.95 0 0  -2.9 0 0  -2.85 0 0  -2.8 0 0  -2.75 0 0  -2.7 0 0  -2.65 0 0  -2.6 0 0  -2.55 0 0  -2.5 0 0  -2.45 0 0  -2.4 0 0  -2.35 0 0  -2.3 0 0  -2.25 0 0  -2.2 0 0  -2.15 0 0  -2.1 0 0  -2.05 0 0  -2 0 0  -1.95 0 0  -1.9 0 0  -1.85 0 0  -1.8 0 0  -1.75 0 0  -1.7 0 0  -1.65 0 0  -1.6 0 0  -1.55 0 0  -1.5 0 0  -1.45 0 0  -1.4 0 0  -1.35 0 0  -1.3 0 0  -1.25 0 0  -1.2 0 0  -1.15 0 0  -1.1 0 0  -1.05 0 0  -1 0 0  -0.9500000000000002 0 0  -0.9000000000000004 0 0  -0.8499999999999996 0 0  -0.7999999999999998 0 0  -0.75 0 0  -0.7000000000000002 0 0  -0.6500000000000004 0 0  -0.5999999999999996 0 0  -0.5499999999999998 0 0  -0.5 0 0  -0.4500000000000002 0 0  -0.4000000000000004 0 0  -0.3499999999999996 0 0  -0.2999999999999998 0 0  -0.25 0 0  -0.2000000000000002 0 0  -0.1500000000000004 0 0  -0.09999999999999964 0 0  -0.04999999999999982 0 0  0 0 0  0.04999999999999982 0 0  0.09999999999999964 0 0  0.1500000000000004 0 0  0.2000000000000002 0 0  0.25 0 0  0.2999999999999998 0 0  0.3499999999999996 0 0  0.4000000000000004 0 0  0.4500000000000002 0 0  0.5 0 0  0.5499999999999998 0 0  0.5999999999999996 0 0  0.6500000000000004 0 0  0.7000000000000002 0 0  0.75 0 0  0.7999999999999998 0 0  0.8499999999999996 0 0  0.9000000000000004 0 0  0.9500000000000002 0 0  1 0 0  1.05 0 0  1.1 0 0  1.15 0 0  1.2 0 0  1.25 0 0  1.3 0 0  1.35 0 0  1.4 0 0  1.45 0 0  1.5 0 0  1.55 0 0  1.6 0 0  1.65 0 0  1.7 0 0  1.75 0 0  1.8 0 0  1.85 0 0  1.9 0 0  1.95 0 0  2 0 0  2.05 0 0  2.1 0 0  2.15 0 0  2.2 0 0  2.25 0 0  2.3 0 0  2.35 0 0  2.4 0 0  2.45 0 0  2.5 0 0  2.55 0 0  2.6 0 0  2.65 0 0  2.7 0 0  2.75 0 0  2.8 0 0  2.85 0 0  2.9 0 0  2.95 0 0  3 0 0  3.050000000000001 0 0  3.1 0 0  3.15 0 0  3.199999999999999 0 0  3.25 0 0  3.300000000000001 0 0  3.35 0 0  3.4 0 0  3.449999999999999 0 0  3.5 0 0  3.550000000000001 0 0  3.6 0 0  3.65 0 0  3.699999999999999 0 0  3.75 0 0  3.800000000000001 0 0  3.85 0 0  3.9 0 0  3.949999999999999 0 0  4 0 0  4.050000000000001 0 0  4.1 0 0  4.15 0 0  4.199999999999999 0 0  4.25 0 0  4.300000000000001 0 0  4.35 0 0  4.4 0 0  4.449999999999999 0 0  4.5 0 0  4.550000000000001 0 0  4.6 0 0  4.65 0 0  4.699999999999999 0 0  4.75 0 0  4.800000000000001 0 0  4.85 0 0  4.9 0 0  4.949999999999999 0 0  5 0 0  </DataArray>
</Points>
<Cells>
<DataArray  type="UInt32"  Name="connectivity"  format="ascii">0 1  1 2  2 3  3 4  4 5  5 6  6 7  7 8  8 9  9 10  10 11  11 12  12 13  13 14  14 15  15 16  16 17  17 18  18 19  19 20  20 21  21 22  22 23  23 24  24 25  25 26  26 27  27 28  28 29  29 30  30 31  31 32  32 33  33 34  34 35  35 36  36 37  37 38  38 39  39 40  40 41  41 42  42 43  43 44  44 45  45 46  46 47  47 48  48 49  49 50  50 51  51 52  52 53  53 54  54 55  55 56  56 57  57 58  58 59  59 60  60 61  61 62  62 63  63 64  64 65  65 66  66 67  67 68  68 69  69 70  70 71  71 72  72 73  73 74  74 75  75 76  76 77  77 78  78 79  79 80  80 81  81 82  82 83  83 84  84 85  85 86  86 87  87 88  88 89  89 90  90 91  91 92  92 93  93 94  94 95  95 96  96 97  97 98  98 99  99 100  100 101  101 102  102 103  103 104  104 105  105 106  106 107  107 108  108 109  109 110  110 111  111 112  112 113  113 114  114 115  115 116  116 117  117 118  118 119  119 120  120 121  121 122  122 123  123 124  124 125  125 126  126 127  127 128  128 129  129 130  130 131  131 132  132 133  133 134  134 135  135 136  136 137  137 138  138 139  139 140  140 141  141 142  142 143  143 144  144 145  145 146  146 147  147 148  148 149  149 150  150 151  151 152  152 153  153 154  154 155  155 156  156 157  157 158  158 159  159 160  160 161  161 162  162 163  163 164  164 165  165 166  166 167  167 168  168 169  169 170  170 171  171 172  172 173  173 174  174 175  175 176  176 177  177 178  178 179  179 180  180 181  181 182  182 183  183 184  184 185  185 186  186 187  187 188  188 189  189 190  190 191  191 192  192 193  193 194  194 195  195 196  196 197  197 198  198 199  199 200  </DataArray>
<DataArray  type="UInt32"  Name="offsets"  format="ascii">2 4 6 8 10 12 14 16 18 20 22 24 26 28 30 32 34 36 38 40 42 44 46 48 50 52 54 56 58 60 62 64 66 68 70 72 74 76 78 80 82 84 86 88 90 92 94 96 98 100 102 104 106 108 110 112 114 116 118 120 122 124 126 128 130 132 134 136 138 140 142 144 146 148 150 152 154 156 158 160 162 164 166 168 170 172 174 176 178 180 182 184 186 188 190 192 194 196 198 200 202 204 206 208 210 212 214 216 218 220 222 224 226 228 230 232 234 236 238 240 242 244 246 248 250 252 254 256 258 260 262 264 266 268 270 272 274 276 278 280 282 284 286 288 290 292 294 296 298 300 302 304 306 308 310 312 314 316 318 320 322 324 326 328 330 332 334 336 338 340 342 344 346 348 350 352 354 356 358 360 362 364 366 368 370 372 374 376 378 380 382 384 386 388 390 392 394 396 398 400 </DataArray>
<DataArray  type="UInt8"  Name="types"  format="ascii">3 3 3 3 3 3 3 3 3 3 3 3 3 3 3 3 3 3 3 3 3 3 3 3 3 3 3 3 3 3 3 3 3 3 3 3 3 3 3 3 3 3 3 3 3 3 3 3 3 3 3 3 3 3 3 3 3 3 3 3 3 3 3 3 3 3 3 3 3 3 3 3 3 3 3 3 3 3 3 3 3 3 3 3 3 3 3 3 3 3 3 3 3 3 3 3 3 3 3 3 3 3 3 3 3 3 3 3 3 3 3 3 3 3 3 3 3 3 3 3 3 3 3 3 3 3 3 3 3 3 3 3 3 3 3 3 3 3 3 3 3 3 3 3 3 3 3 3 3 3 3 3 3 3 3 3 3 3 3 3 3 3 3 3 3 3 3 3 3 3 3 3 3 3 3 3 3 3 3 3 3 3 3 3 3 3 3 3 3 3 3 3 3 3 3 3 3 3 3 3 </DataArray>
</Cells>
<PointData  Vectors="(s, w)"> 
<DataArray  type="Float64"  Name="(s, w)"  NumberOfComponents="3" format="ascii">3.2031079681596695e+00 0.0000000000000000e+00 0.0000000000000000e+00  3.1234510839716947e+00 1.4717852819752633e-01 0.0000000000000000e+00  3.1940496847275046e+00 -2.6880287322438379e-01 0.0000000000000000e+00  3.1406082837554505e+00 3.8299499085568350e-01 0.0000000000000000e+00  3.1711740473630847e+00 -4.3297618442534042e-01 0.0000000000000000e+00  3.1669180952123099e+00 4.5935069716275079e-01 0.0000000000000000e+00  3.1452150737371705e+00 -4.1237123967867684e-01 0.0000000000000000e+00  3.1902294402747131e+00 3.2400507515696819e-01 0.0000000000000000e+00  3.1279427521364811e+00 -1.8278602286142612e-01 0.0000000000000000e+00  3.2002480104986049e+00 1.7951699039952861e-03 0.0000000000000000e+00  3.1262855430924663e+00 1.9395506453372535e-01 0.0000000000000000e+00  3.1937531229894160e+00 -3.9436379129638616e-01 0.0000000000000000e+00  3.1390120757292870e+00 5.6692711940134588e-01 0.0000000000000000e+00  3.1761327401033972e+00 -6.8806090987648638e-01 0.0000000000000000e+00  3.1577936830890243e+00 7.4534254621499163e-01 0.0000000000000000e+00  3.1579948440049379e+00 -7.1001415484342234e-01 0.0000000000000000e+00  3.1723074272846290e+00 5.9531977913690115e-01 0.0000000000000000e+00  3.1484694683532424e+00 -3.9540606903893860e-01 0.0000000000000000e+00  3.1766323937788674e+00 1.3478754202098811e-01 0.0000000000000000e+00  3.1493747967745289e+00 1.4982739444186668e-01 0.0000000000000000e+00  3.1728775325731102e+00 -4.4218662290884969e-01 0.0000000000000000e+00  3.1544617229217038e+00 6.7551688983030655e-01 0.0000000000000000e+00  3.1692033898582652e+00 -8.5097966140282144e-01 0.0000000000000000e+00  3.1547579614742776e+00 9.1620457819219481e-01 0.0000000000000000e+00  3.1729574694068590e+00 -8.8313932179450727e-01 0.0000000000000000e+00  3.1465297099538252e+00 7.5649035405152976e-01 0.0000000000000000e+00  3.1836033015125875e+00 -5.5079940760341850e-01 0.0000000000000000e+00  3.1356492933152507e+00 3.2069584387918176e-01 0.0000000000000000e+00  3.1915744389081118e+00 -8.7709407682795781e-02 0.0000000000000000e+00  3.1338810970394420e+00 -1.0218259267088299e-01 0.0000000000000000e+00  3.1855324137641334e+00 2.2067632117292330e-01 0.0000000000000000e+00  3.1488734355278516e+00 -2.7678719543214897e-01 0.0000000000000000e+00  3.1630821099850519e+00 2.5904615438974316e-01 0.0000000000000000e+00  3.1759218159968685e+00 -2.1742707431827224e-01 0.0000000000000000e+00  3.1352268764839804e+00 1.7419632171956073e-01 0.0000000000000000e+00  3.1997737966042252e+00 -1.6992477704634257e-01 0.0000000000000000e+00  3.1185958803913678e+00 2.3569118180753812e-01 0.0000000000000000e+00  3.2069812140674285e+00 -3.6448840826335999e-01 0.0000000000000000e+00  3.1206209023526710e+00 5.5653520936174283e-01 0.0000000000000000e+00  3.1985311946312791e+00 -7.6021334200405866e-01 0.0000000000000000e+00  3.1318236592247555e+00 9.4388447422271249e-01 0.0000000000000000e+00  3.1893245976157387e+00 -1.0499876423622561e+00 0.0000000000000000e+00  3.1349231700738178e+00 1.0779725251454446e+00 0.0000000000000000e+00  3.1922852923618223e+00 -9.6661992161439902e-01 0.0000000000000000e+00  3.1231722487104658e+00 8.7729019835699673e-01 0.0000000000000000e+00  3.2021516235562912e+00 -5.8224438337715523e-01 0.0000000000000000e+00  3.1073597329070362e+00 6.5872629926493542e-01 0.0000000000000000e+00  3.1983503639678599e+00 -2.1690484869097887e-01 0.0000000000000000e+00  3.1006862118064062e+00 8.4422719225707432e-01 0.0000000000000000e+00  3.1681056248490451e+00 -7.4211451171136552e-03 0.0000000000000000e+00  3.0978882740284046e+00 1.4574162956484256e+00 0.0000000000000000e+00  3.1244522827095174e+00 3.3426155685588965e-01 0.0000000000000000e+00  3.0775664877596007e+00 2.0614038923848055e+00 0.0000000000000000e+00  3.0904627093662644e+00 1.1580858348623024e+00 0.0000000000000000e+00  3.0325498565143549e+00 2.3938445043478649e+00 0.0000000000000000e+00  3.0632728152884323e+00 2.2539241404295844e+00 0.0000000000000000e+00  2.9877381680997659e+00 2.8350869969386254e+00 0.0000000000000000e+00  3.0175483022439278e+00 3.0193244966149315e+00 0.0000000000000000e+00  2.9635077104176424e+00 3.7312882511637762e+00 0.0000000000000000e+00  2.9564679639609088e+00 3.4742627307108309e+00 0.0000000000000000e+00  2.9359549445022992e+00 4.5859085823045875e+00 0.0000000000000000e+00  2.9147598208309939e+00 4.2873515813080827e+00 0.0000000000000000e+00  2.8821768227920401e+00 4.9367291469244492e+00 0.0000000000000000e+00  2.8880908795243898e+00 5.3593592080976951e+00 0.0000000000000000e+00  2.8347232224575820e+00 5.4209850421604164e+00 0.0000000000000000e+00  2.8364283645491617e+00 5.8948194556016960e+00 0.0000000000000000e+00  2.8132466489968562e+00 6.4195077269921788e+00 0.0000000000000000e+00  2.7776923624537662e+00 6.2525258042231986e+00 0.0000000000000000e+00  2.7724744129520800e+00 7.0294347403437598e+00 0.0000000000000000e+00  2.7514964442258742e+00 7.2168835302371770e+00 0.0000000000000000e+00  2.7114210224369688e+00 7.2294930897153353e+00 0.0000000000000000e+00  2.7157744064185780e+00 7.9540013709984505e+00 0.0000000000000000e+00  2.6835852410145589e+00 8.0738030065110209e+00 0.0000000000000000e+00  2.6513432366370666e+00 8.0910594076490625e+00 0.0000000000000000e+00  2.6537059380644403e+00 8.8569608583430917e+00 0.0000000000000000e+00  2.6204375233949402e+00 8.8630932282631196e+00 0.0000000000000000e+00  2.5885305591296954e+00 8.9221025262010958e+00 0.0000000000000000e+00  2.5930415625362073e+00 9.6729733312790636e+00 0.0000000000000000e+00  2.5574220215194448e+00 9.6417670678023164e+00 0.0000000000000000e+00  2.5262407928628603e+00 9.6767313183119068e+00 0.0000000000000000e+00  2.5312605213064789e+00 1.0433039381971462e+01 0.0000000000000000e+00  2.4966045125600100e+00 1.0392720881173931e+01 0.0000000000000000e+00  2.4629628565098827e+00 1.0367517156524277e+01 0.0000000000000000e+00  2.4695519598012785e+00 1.1131268570165869e+01 0.0000000000000000e+00  2.4365228419289777e+00 1.1108780777034216e+01 0.0000000000000000e+00  2.4004981626717692e+00 1.1015183361575504e+01 0.0000000000000000e+00  2.4069589099594553e+00 1.1760169576681335e+01 0.0000000000000000e+00  2.3761840346619061e+00 1.1761951290739068e+01 0.0000000000000000e+00  2.3407829449466733e+00 1.1663857630323582e+01 0.0000000000000000e+00  2.3440354075309657e+00 1.2324856234177600e+01 0.0000000000000000e+00  2.3112967663383239e+00 1.2268989285003672e+01 0.0000000000000000e+00  2.2883983270578456e+00 1.2396824891529215e+01 0.0000000000000000e+00  2.2825191544877867e+00 1.2858389415892358e+01 0.0000000000000000e+00  2.2349855304848960e+00 1.2483077899725183e+01 0.0000000000000000e+00  2.2470761984893457e+00 1.3285542152806004e+01 0.0000000000000000e+00  2.2297291930605074e+00 1.3497318907087172e+01 0.0000000000000000e+00  2.1368001439576916e+00 1.2200712133258031e+01 0.0000000000000000e+00  2.2151133774243523e+00 1.4294490628246720e+01 0.0000000000000000e+00  2.1977753643626454e+00 1.4515943182772553e+01 0.0000000000000000e+00  2.0084706448486194e+00 1.1364760597912351e+01 0.0000000000000000e+00  2.1534057715241270e+00 1.5192567247783639e+01 0.0000000000000000e+00  2.2069294005617608e+00 1.6182777801775671e+01 0.0000000000000000e+00  1.8833111659579791e+00 1.0299522713218833e+01 0.0000000000000000e+00  2.1242132038154238e+00 1.4645252098042048e+01 0.0000000000000000e+00  2.2872044121003645e+00 1.8189722713077018e+01 0.0000000000000000e+00  1.8511677558251143e+00 9.5218575044524041e+00 0.0000000000000000e+00  2.0132603605523376e+00 1.2971469516829957e+01 0.0000000000000000e+00  2.3837485345074088e+00 2.0258011404257516e+01 0.0000000000000000e+00  1.8625550377810305e+00 1.0212335425109771e+01 0.0000000000000000e+00  1.8616163176641038e+00 1.0084769298646100e+01 0.0000000000000000e+00  2.4321892750699541e+00 2.1622407293076218e+01 0.0000000000000000e+00  1.9804779137901312e+00 1.2587054480503051e+01 0.0000000000000000e+00  1.6804106654079058e+00 6.9255124799540511e+00 0.0000000000000000e+00  2.3946450790651701e+00 2.0975695965069466e+01 0.0000000000000000e+00  2.1829629137829927e+00 1.6835965047502508e+01 0.0000000000000000e+00  1.5534781203824077e+00 4.6779830857417970e+00 0.0000000000000000e+00  2.2004324585378674e+00 1.7343626805127393e+01 0.0000000000000000e+00  2.4413165674240034e+00 2.2118994995545581e+01 0.0000000000000000e+00  1.5636793558283706e+00 5.2508456564924257e+00 0.0000000000000000e+00  1.8498031055948423e+00 1.0549672356930502e+01 0.0000000000000000e+00  2.6120165651290761e+00 2.5996443843735769e+01 0.0000000000000000e+00  1.8300625574951774e+00 1.0368187948810482e+01 0.0000000000000000e+00  1.4500486272179010e+00 3.4351224938489384e+00 0.0000000000000000e+00  2.4703219101121263e+00 2.3255906982070918e+01 0.0000000000000000e+00  2.3290827783188179e+00 2.0301241424371867e+01 0.0000000000000000e+00  1.3088923011577460e+00 1.3667970349705596e+00 0.0000000000000000e+00  1.8867209767832742e+00 1.1714882080363035e+01 0.0000000000000000e+00  2.7319961684468534e+00 2.9103644922127515e+01 0.0000000000000000e+00  1.7259605283994892e+00 8.8396765796483017e+00 0.0000000000000000e+00  1.2435720628998075e+00 6.0230831667349860e-01 0.0000000000000000e+00  2.4070245987695262e+00 2.2309892345312655e+01 0.0000000000000000e+00  2.5391510973813882e+00 2.4994191953525377e+01 0.0000000000000000e+00  1.2725709761077046e+00 1.4421902637651072e+00 0.0000000000000000e+00  1.4541484716871302e+00 4.1560925646945517e+00 0.0000000000000000e+00  2.7224449130600221e+00 2.9418757712487491e+01 0.0000000000000000e+00  2.2008790617236729e+00 1.7872676223526252e+01 0.0000000000000000e+00  1.0525023909910249e+00 -1.3581588498340313e+00 0.0000000000000000e+00  1.6753142448435643e+00 7.8902543998083878e+00 0.0000000000000000e+00  2.8344259743618170e+00 3.2224576160127825e+01 0.0000000000000000e+00  1.9544679441531345e+00 1.2922345026200393e+01 0.0000000000000000e+00  9.7423874094566676e-01 -2.0141662482373519e+00 0.0000000000000000e+00  1.7995875962932451e+00 1.0021196163656128e+01 0.0000000000000000e+00  2.8562829681279447e+00 3.2829957011517621e+01 0.0000000000000000e+00  1.8341829700651449e+00 1.0662967944963579e+01 0.0000000000000000e+00  9.7591804911351032e-01 -2.0208944234468067e+00 0.0000000000000000e+00  1.9324370306788121e+00 1.2485789769913529e+01 0.0000000000000000e+00  2.8332963038321486e+00 3.2320048019546292e+01 0.0000000000000000e+00  1.7124048124674336e+00 8.0364545831197542e+00 0.0000000000000000e+00  9.3719307807320640e-01 -1.2305766084059757e+00 0.0000000000000000e+00  1.0035282310585358e+00 2.8336072733752882e-01 0.0000000000000000e+00  1.0012014451609883e+00 -6.2274694854393381e-02 0.0000000000000000e+00  1.0000527986505898e+00 9.5900389550723723e-03 0.0000000000000000e+00  9.9914922958780228e-01 3.5451744051311607e-03 0.0000000000000000e+00  1.0010703654863620e+00 -6.3782058124915017e-03 0.0000000000000000e+00  9.9897585069755890e-01 6.3589816049406164e-03 0.0000000000000000e+00  1.0008861082743101e+00 -5.5376071605238910e-03 0.0000000000000000e+00  9.9927105660704862e-01 4.5647462935903783e-03 0.0000000000000000e+00  1.0005812772029083e+00 -3.6395473263021497e-03 0.0000000000000000e+00  9.9954704979927711e-01 2.8372527571123296e-03 0.0000000000000000e+00  1.0003463995093191e+00 -2.1692774037205599e-03 0.0000000000000000e+00  9.9973940942370088e-01 1.6322479335607347e-03 0.0000000000000000e+00  1.0001931725174014e+00 -1.2097840373712317e-03 0.0000000000000000e+00  9.9985873539607895e-01 8.8479730633976897e-04 0.0000000000000000e+00  1.0001020162257725e+00 -6.3891798989250241e-04 0.0000000000000000e+00  9.9992719001184605e-01 4.5602805107297206e-04 0.0000000000000000e+00  1.0000513943449376e+00 -3.2188330888873872e-04 0.0000000000000000e+00  9.9996409942865117e-01 2.2485197468995508e-04 0.0000000000000000e+00  1.0000248308602642e+00 -1.5551727878682333e-04 0.0000000000000000e+00  9.9998298645537720e-01 1.0655835113039053e-04 0.0000000000000000e+00  1.0000115532605245e+00 -7.2359125372725686e-05 0.0000000000000000e+00  9.9999222155082701e-01 4.8717435467989679e-05 0.0000000000000000e+00  1.0000051942159396e+00 -3.2531914680184124e-05 0.0000000000000000e+00  9.9999655863907655e-01 2.1553659841096660e-05 0.0000000000000000e+00  1.0000022628630534e+00 -1.4172559814560609e-05 0.0000000000000000e+00  9.9999852283916213e-01 9.2516313329696624e-06 0.0000000000000000e+00  1.0000009575336883e+00 -5.9971410996613098e-06 0.0000000000000000e+00  9.9999938348435313e-01 3.8613086655392349e-06 0.0000000000000000e+00  1.0000003943647233e+00 -2.4699510137424211e-06 0.0000000000000000e+00  9.9999974932584668e-01 1.5700009780873240e-06 0.0000000000000000e+00  1.0000001583676876e+00 -9.9187486048682292e-07 0.0000000000000000e+00  9.9999990053922960e-01 6.2293418727907155e-07 0.0000000000000000e+00  1.0000000621073946e+00 -3.8898570154903581e-07 0.0000000000000000e+00  9.9999996143310177e-01 2.4154889084989723e-07 0.0000000000000000e+00  1.0000000238196713e+00 -1.4918531867141891e-07 0.0000000000000000e+00  9.9999998536568013e-01 9.1656424820644509e-08 0.0000000000000000e+00  1.0000000089451551e+00 -5.6024518292469431e-08 0.0000000000000000e+00  9.9999999455946798e-01 3.4074659959374490e-08 0.0000000000000000e+00  1.0000000032929861e+00 -2.0624327853142194e-08 0.0000000000000000e+00  9.9999999801624595e-01 1.2424445777772490e-08 0.0000000000000000e+00  1.0000000011895642e+00 -7.4503019370834465e-09 0.0000000000000000e+00  9.9999999928986560e-01 4.4475243014365622e-09 0.0000000000000000e+00  1.0000000004220846e+00 -2.6433244741969761e-09 0.0000000000000000e+00  9.9999999975017950e-01 1.5642278295154423e-09 0.0000000000000000e+00  1.0000000001472737e+00 -9.2162748533307856e-10 0.0000000000000000e+00  9.9999999991348543e-01 5.4049807601812197e-10 0.0000000000000000e+00  1.0000000000507068e+00 -3.1517233486673362e-10 0.0000000000000000e+00  9.9999999997024203e-01 1.8210525673995590e-10 0.0000000000000000e+00  1.0000000000176688e+00 -1.0311080202059751e-10 0.0000000000000000e+00  9.9999999998907518e-01 5.5124942368114497e-11 0.0000000000000000e+00  1.0000000000075431e+00 -2.3904502308894083e-11 0.0000000000000000e+00  9.9999999999348077e-01 0.0000000000000000e+00 0.0000000000000000e+00  </DataArray> 
</PointData> 
</Piece>
</UnstructuredGrid>
</VTKFile>