<?xml version="1.0"?>
<VTKFile type="UnstructuredGrid"  version="0.1"  >
<UnstructuredGrid>
<Piece  NumberOfPoints="201" NumberOfCells="200">
<Points>
<DataArray  type="Float64"  NumberOfComponents="3"  format="ascii">-5 0 0  -4.95 0 0  -4.9 0 0  -4.85 0 0  -4.8 0 0  -4.75 0 0  -4.7 0 0  -4.65 0 0  -4.6 0 0  -4.55 0 0  -4.5 0 0  -4.45 0 0  -4.4 0 0  -4.35 0 0  -4.3 0 0  -4.25 0 0  -4.2 0 0  -4.15 0 0  -4.1 0 0  -4.05 0 0  -4 0 0  -3.95 0 0  -3.9 0 0  -3.85 0 0  -3.8 0 0  -3.75 0 0  -3.7 0 0  -3.65 0 0  -3.6 0 0  -3.55 0 0  -3.5 0 0  -3.45 0 0  -3.4 0 0  -3.35 0 0  -3.3 0 0  -3.25 0 0  -3.2 0 0  -3.15 0 0  -3.1 0 0  -3.05 0 0  -3 0 0  -2.95 0 0  -2.9 0 0  -2.85 0 0  -2.8 0 0  -2.75 0 0  -2.7 0 0  -2.65 0 0  -2.6 0 0  -2.55 0 0  -2.5 0 0  -2.45 0 0  -2.4 0 0  -2.35 0 0  -2.3 0 0  -2.25 0 0  -2.2 0 0  -2.15 0 0  -2.1 0 0  -2.05 0 0  -2 0 0  -1.95 0 0  -1.9 0 0  -1.85 0 0  -1.8 0 0  -1.75 0 0  -1.7 0 0  -1.65 0 0  -1.6 0 0  -1.55 0 0  -1.5 0 0  -1.45 0 0  -1.4 0 0  -1.35 0 0  -1.3 0 0  -1.25 0 0  -1.2 0 0  -1.15 0 0  -1.1 0 0  -1.05 0 0  -1 0 0  -0.9500000000000002 0 0  -0.9000000000000004 0 0  -0.8499999999999996 0 0  -0.7999999999999998 0 0  -0.75 0 0  -0.7000000000000002 0 0  -0.6500000000000004 0 0  -0.5999999999999996 0 0  -0.5499999999999998 0 0  -0.5 0 0  -0.4500000000000002 0 0  -0.4000000000000004 0 0  -0.3499999999999996 0 0  -0.2999999999999998 0 0  -0.25 0 0  -0.2000000000000002 0 0  -0.1500000000000004 0 0  -0.09999999999999964 0 0  -0.04999999999999982 0 0  0 0 0  0.04999999999999982 0 0  0.09999999999999964 0 0  0.1500000000000004 0 0  0.2000000000000002 0 0  0.25 0 0  0.2999999999999998 0 0  0.3499999999999996 0 0  0.4000000000000004 0 0  0.4500000000000002 0 0  0.5 0 0  0.5499999999999998 0 0  0.5999999999999996 0 0  0.6500000000000004 0 0  0.7000000000000002 0 0  0.75 0 0  0.7999999999999998 0 0  0.8499999999999996 0 0  0.9000000000000004 0 0  0.9500000000000002 0 0  1 0 0  1.05 0 0  1.1 0 0  1.15 0 0  1.2 0 0  1.25 0 0  1.3 0 0  1.35 0 0  1.4 0 0  1.45 0 0  1.5 0 0  1.55 0 0  1.6 0 0  1.65 0 0  1.7 0 0  1.75 0 0  1.8 0 0  1.85 0 0  1.9 0 0  1.95 0 0  2 0 0  2.05 0 0  2.1 0 0  2.15 0 0  2.2 0 0  2.25 0 0  2.3 0 0  2.35 0 0  2.4 0 0  2.45 0 0  2.5 0 0  2.55 0 0  2.6 0 0  2.65 0 0  2.7 0 0  2.75 0 0  2.8 0 0  2.85 0 0  2.9 0 0  2.95 0 0  3 0 0  3.050000000000001 0 0  3.1 0 0  3.15 0 0  3.199999999999999 0 0  3.25 0 0  3.300000000000001 0 0  3.35 0 0  3.4 0 0  3.449999999999999 0 0  3.5 0 0  3.550000000000001 0 0  3.6 0 0  3.65 0 0  3.699999999999999 0 0  3.75 0 0  3.800000000000001 0 0  3.85 0 0  3.9 0 0  3.949999999999999 0 0  4 0 0  4.050000000000001 0 0  4.1 0 0  4.15 0 0  4.199999999999999 0 0  4.25 0 0  4.300000000000001 0 0  4.35 0 0  4.4 0 0  4.449999999999999 0 0  4.5 0 0  4.550000000000001 0 0  4.6 0 0  4.65 0 0  4.699999999999999 0 0  4.75 0 0  4.800000000000001 0 0  4.85 0 0  4.9 0 0  4.949999999999999 0 0  5 0 0  </DataArray>
</Points>
<Cells>
<DataArray  type="UInt32"  Name="connectivity"  format="ascii">0 1  1 2  2 3  3 4  4 5  5 6  6 7  7 8  8 9  9 10  10 11  11 12  12 13  13 14  14 15  15 16  16 17  17 18  18 19  19 20  20 21  21 22  22 23  23 24  24 25  25 26  26 27  27 28  28 29  29 30  30 31  31 32  32 33  33 34  34 35  35 36  36 37  37 38  38 39  39 40  40 41  41 42  42 43  43 44  44 45  45 46  46 47  47 48  48 49  49 50  50 51  51 52  52 53  53 54  54 55  55 56  56 57  57 58  58 59  59 60  60 61  61 62  62 63  63 64  64 65  65 66  66 67  67 68  68 69  69 70  70 71  71 72  72 73  73 74  74 75  75 76  76 77  77 78  78 79  79 80  80 81  81 82  82 83  83 84  84 85  85 86  86 87  87 88  88 89  89 90  90 91  91 92  92 93  93 94  94 95  95 96  96 97  97 98  98 99  99 100  100 101  101 102  102 103  103 104  104 105  105 106  106 107  107 108  108 109  109 110  110 111  111 112  112 113  113 114  114 115  115 116  116 117  117 118  118 119  119 120  120 121  121 122  122 123  123 124  124 125  125 126  126 127  127 128  128 129  129 130  130 131  131 132  132 133  133 134  134 135  135 136  136 137  137 138  138 139  139 140  140 141  141 142  142 143  143 144  144 145  145 146  146 147  147 148  148 149  149 150  150 151  151 152  152 153  153 154  154 155  155 156  156 157  157 158  158 159  159 160  160 161  161 162  162 163  163 164  164 165  165 166  166 167  167 168  168 169  169 170  170 171  171 172  172 173  173 174  174 175  175 176  176 177  177 178  178 179  179 180  180 181  181 182  182 183  183 184  184 185  185 186  186 187  187 188  188 189  189 190  190 191  191 192  192 193  193 194  194 195  195 196  196 197  197 198  198 199  199 200  </DataArray>
<DataArray  type="UInt32"  Name="offsets"  format="ascii">2 4 6 8 10 12 14 16 18 20 22 24 26 28 30 32 34 36 38 40 42 44 46 48 50 52 54 56 58 60 62 64 66 68 70 72 74 76 78 80 82 84 86 88 90 92 94 96 98 100 102 104 106 108 110 112 114 116 118 120 122 124 126 128 130 132 134 136 138 140 142 144 146 148 150 152 154 156 158 160 162 164 166 168 170 172 174 176 178 180 182 184 186 188 190 192 194 196 198 200 202 204 206 208 210 212 214 216 218 220 222 224 226 228 230 232 234 236 238 240 242 244 246 248 250 252 254 256 258 260 262 264 266 268 270 272 274 276 278 280 282 284 286 288 290 292 294 296 298 300 302 304 306 308 310 312 314 316 318 320 322 324 326 328 330 332 334 336 338 340 342 344 346 348 350 352 354 356 358 360 362 364 366 368 370 372 374 376 378 380 382 384 386 388 390 392 394 396 398 400 </DataArray>
<DataArray  type="UInt8"  Name="types"  format="ascii">3 3 3 3 3 3 3 3 3 3 3 3 3 3 3 3 3 3 3 3 3 3 3 3 3 3 3 3 3 3 3 3 3 3 3 3 3 3 3 3 3 3 3 3 3 3 3 3 3 3 3 3 3 3 3 3 3 3 3 3 3 3 3 3 3 3 3 3 3 3 3 3 3 3 3 3 3 3 3 3 3 3 3 3 3 3 3 3 3 3 3 3 3 3 3 3 3 3 3 3 3 3 3 3 3 3 3 3 3 3 3 3 3 3 3 3 3 3 3 3 3 3 3 3 3 3 3 3 3 3 3 3 3 3 3 3 3 3 3 3 3 3 3 3 3 3 3 3 3 3 3 3 3 3 3 3 3 3 3 3 3 3 3 3 3 3 3 3 3 3 3 3 3 3 3 3 3 3 3 3 3 3 3 3 3 3 3 3 3 3 3 3 3 3 3 3 3 3 3 3 </DataArray>
</Cells>
<PointData  Vectors="(s, w)"> 
<DataArray  type="Float64"  Name="(s, w)"  NumberOfComponents="3" format="ascii">2.3210656698329317e+00 0.0000000000000000e+00 0.0000000000000000e+00  2.3384096335148237e+00 6.4881082525187997e-02 0.0000000000000000e+00  2.3103444767662782e+00 4.0951951150583804e-01 0.0000000000000000e+00  2.3414398661650280e+00 6.2121093834130681e-01 0.0000000000000000e+00  2.3224967214616425e+00 6.4502572966269667e-01 0.0000000000000000e+00  2.3281548071436013e+00 7.9036977646139117e-01 0.0000000000000000e+00  2.3224355930689748e+00 1.2620635070271198e+00 0.0000000000000000e+00  2.3325794559158948e+00 1.1300025370327438e+00 0.0000000000000000e+00  2.3311271040355708e+00 1.4764375112441537e+00 0.0000000000000000e+00  2.3111886170716485e+00 1.3987758169424729e+00 0.0000000000000000e+00  2.3471040842840170e+00 2.2258965970851499e+00 0.0000000000000000e+00  2.3067096871431794e+00 1.4145548132872841e+00 0.0000000000000000e+00  2.3535989028072937e+00 2.6334690403345768e+00 0.0000000000000000e+00  2.2846677130040791e+00 1.7630806852279761e+00 0.0000000000000000e+00  2.3811937871223718e+00 3.3166528633056256e+00 0.0000000000000000e+00  2.2676004784942796e+00 1.5460971809151161e+00 0.0000000000000000e+00  2.3885599127762163e+00 4.0223567987240978e+00 0.0000000000000000e+00  2.2530367502325275e+00 1.9020530597579859e+00 0.0000000000000000e+00  2.4122103232703425e+00 4.4216343776868579e+00 0.0000000000000000e+00  2.2338146322789374e+00 1.8416772743623055e+00 0.0000000000000000e+00  2.4145001306051617e+00 5.2333197552468365e+00 0.0000000000000000e+00  2.2372963464078821e+00 2.1857527206722738e+00 0.0000000000000000e+00  2.4155497511877586e+00 5.2218541789128334e+00 0.0000000000000000e+00  2.2380577269870168e+00 2.7978168685508740e+00 0.0000000000000000e+00  2.3957114157516317e+00 5.6095295882816121e+00 0.0000000000000000e+00  2.2716403018411868e+00 3.2827144647778779e+00 0.0000000000000000e+00  2.3614783029809994e+00 5.2288643416205591e+00 0.0000000000000000e+00  2.3068975553172004e+00 4.7755121876936375e+00 0.0000000000000000e+00  2.3089941786334758e+00 4.7251659424646073e+00 0.0000000000000000e+00  2.3731069916351930e+00 5.6550999154422001e+00 0.0000000000000000e+00  2.2426480999568672e+00 4.1934975693921581e+00 0.0000000000000000e+00  2.4299861468808204e+00 7.5100847766863374e+00 0.0000000000000000e+00  2.1803856767094354e+00 2.9994453757911845e+00 0.0000000000000000e+00  2.5071525629298677e+00 8.7856336486497195e+00 0.0000000000000000e+00  2.1057923128560212e+00 2.7251606677342535e+00 0.0000000000000000e+00  2.5445217574100973e+00 9.9965437002167370e+00 0.0000000000000000e+00  2.0861425076535181e+00 1.8986804656429941e+00 0.0000000000000000e+00  2.5798404254457283e+00 1.1028855428854131e+01 0.0000000000000000e+00  2.0521186892452423e+00 2.4686896729635111e+00 0.0000000000000000e+00  2.5614066606651864e+00 1.0842637245183036e+01 0.0000000000000000e+00  2.1138164609083621e+00 3.1417353527943868e+00 0.0000000000000000e+00  2.4971649693058215e+00 1.0673318923386514e+01 0.0000000000000000e+00  2.1594302030665871e+00 4.9407083929830495e+00 0.0000000000000000e+00  2.4308659574397624e+00 9.1767853442929539e+00 0.0000000000000000e+00  2.2872941255221875e+00 7.1265170630710220e+00 0.0000000000000000e+00  2.2718069774842422e+00 7.6024937477082313e+00 0.0000000000000000e+00  2.3906036597138631e+00 9.6532960769406611e+00 0.0000000000000000e+00  2.2046634585127736e+00 5.7492175020119607e+00 0.0000000000000000e+00  2.5057056772592725e+00 1.1957100906460559e+01 0.0000000000000000e+00  2.0561635587304878e+00 4.3894884991249219e+00 0.0000000000000000e+00  2.5840237143564715e+00 1.3715925138191077e+01 0.0000000000000000e+00  2.0449437717747720e+00 3.4147457661129907e+00 0.0000000000000000e+00  2.5957793070970712e+00 1.4536377932223186e+01 0.0000000000000000e+00  2.0179354896948682e+00 4.3563750117576978e+00 0.0000000000000000e+00  2.5787649957964955e+00 1.4333140062522725e+01 0.0000000000000000e+00  2.0962361257573847e+00 5.0395190790694304e+00 0.0000000000000000e+00  2.4721937729341250e+00 1.3226155612684140e+01 0.0000000000000000e+00  2.1839101800748129e+00 8.1723899251168834e+00 0.0000000000000000e+00  2.3711808436257704e+00 1.1236764535964797e+01 0.0000000000000000e+00  2.3287060302582252e+00 1.0175923612630832e+01 0.0000000000000000e+00  2.2312334554905733e+00 9.5543078080533270e+00 0.0000000000000000e+00  2.3996574878642094e+00 1.2985333813795499e+01 0.0000000000000000e+00  2.1562525410873410e+00 7.7914694077866287e+00 0.0000000000000000e+00  2.5135264752982054e+00 1.4420081726792617e+01 0.0000000000000000e+00  2.0984608920101544e+00 7.7511289647457060e+00 0.0000000000000000e+00  2.4525230640163787e+00 1.4786832045172613e+01 0.0000000000000000e+00  2.1504732007423759e+00 8.3547368850414792e+00 0.0000000000000000e+00  2.4481665993829838e+00 1.3940991280772510e+01 0.0000000000000000e+00  2.2031975713985186e+00 1.0520839751094723e+01 0.0000000000000000e+00  2.2851853101107689e+00 1.2320701046465308e+01 0.0000000000000000e+00  2.3482993873059388e+00 1.2985045172339893e+01 0.0000000000000000e+00  2.1979868603590407e+00 9.7667700196310516e+00 0.0000000000000000e+00  2.4210374040797187e+00 1.5479535093357828e+01 0.0000000000000000e+00  2.0698481091573520e+00 8.8196780808770345e+00 0.0000000000000000e+00  2.5038766589361359e+00 1.6843857263110070e+01 0.0000000000000000e+00  2.0473463592491083e+00 7.4367888888079987e+00 0.0000000000000000e+00  2.4766372183019687e+00 1.7195987384820164e+01 0.0000000000000000e+00  2.0529530064961259e+00 9.2519735712592492e+00 0.0000000000000000e+00  2.3904992014422657e+00 1.5498559926635867e+01 0.0000000000000000e+00  2.1926802091029498e+00 1.1023085496579485e+01 0.0000000000000000e+00  2.2375375405669615e+00 1.3166873205730475e+01 0.0000000000000000e+00  2.2828969404751058e+00 1.4594491208512480e+01 0.0000000000000000e+00  2.0648448984933112e+00 9.8219405070586010e+00 0.0000000000000000e+00  2.4974120674130345e+00 1.7688394569604167e+01 0.0000000000000000e+00  1.8999196527209570e+00 7.1788375005950877e+00 0.0000000000000000e+00  2.5166141101019224e+00 1.9845890210284804e+01 0.0000000000000000e+00  1.8424044723484376e+00 5.9564520113174728e+00 0.0000000000000000e+00  2.6024652805365367e+00 2.0462659188767230e+01 0.0000000000000000e+00  1.8109201134306521e+00 6.3301772947031631e+00 0.0000000000000000e+00  2.4719248593130736e+00 1.9585108745664805e+01 0.0000000000000000e+00  1.9513465538657864e+00 8.4036488022461189e+00 0.0000000000000000e+00  2.3376190329930826e+00 1.6367939282156453e+01 0.0000000000000000e+00  2.0767265297324724e+00 1.2723725363410670e+01 0.0000000000000000e+00  2.1186776797744722e+00 1.2857766098487275e+01 0.0000000000000000e+00  2.3184115969316665e+00 1.6131523071490417e+01 0.0000000000000000e+00  1.8927271240993917e+00 9.3246897942997489e+00 0.0000000000000000e+00  2.4125565496838153e+00 1.9604117999176712e+01 0.0000000000000000e+00  1.7826437735786069e+00 5.5822488551549938e+00 0.0000000000000000e+00  2.5473655752764159e+00 2.3349475616007275e+01 0.0000000000000000e+00  1.6472760172118965e+00 3.8384297903963622e+00 0.0000000000000000e+00  2.5781821255764314e+00 2.3234999277602800e+01 0.0000000000000000e+00  1.6954784459805674e+00 5.6699524084234119e+00 0.0000000000000000e+00  2.4885044915745276e+00 2.1697768218425498e+01 0.0000000000000000e+00  1.6661121601028726e+00 5.2215264529800463e+00 0.0000000000000000e+00  2.5028494700418387e+00 2.1893495683354555e+01 0.0000000000000000e+00  1.8116262717223595e+00 8.0971612845527172e+00 0.0000000000000000e+00  2.2110051210845132e+00 1.6116256371556560e+01 0.0000000000000000e+00  2.1287179242070948e+00 1.4703870404273307e+01 0.0000000000000000e+00  2.0437624188244388e+00 1.3053143104681583e+01 0.0000000000000000e+00  2.1393544210507813e+00 1.4820228963423212e+01 0.0000000000000000e+00  1.9579798713487488e+00 1.1552498590386731e+01 0.0000000000000000e+00  2.4182756204415043e+00 2.0150253823435460e+01 0.0000000000000000e+00  1.5678675849442065e+00 3.4717396361424915e+00 0.0000000000000000e+00  2.6521374793318260e+00 2.4851313597143776e+01 0.0000000000000000e+00  1.6246755942826208e+00 4.5588503856267160e+00 0.0000000000000000e+00  2.4648967213532140e+00 2.1577089663055919e+01 0.0000000000000000e+00  1.6716151553319820e+00 5.7641250317172661e+00 0.0000000000000000e+00  2.6537730049946719e+00 2.4778399488314260e+01 0.0000000000000000e+00  1.4753212064774450e+00 1.8979694496458319e+00 0.0000000000000000e+00  2.5366403604607815e+00 2.2372704540152039e+01 0.0000000000000000e+00  1.9407410985344524e+00 1.1299872607437129e+01 0.0000000000000000e+00  2.0237211415164191e+00 1.2976872232630711e+01 0.0000000000000000e+00  2.1044334583173128e+00 1.4385547099038840e+01 0.0000000000000000e+00  2.1453765039492820e+00 1.5713367920984741e+01 0.0000000000000000e+00  2.0975893190429100e+00 1.4256527876966087e+01 0.0000000000000000e+00  1.7445502042459744e+00 7.2314971214463064e+00 0.0000000000000000e+00  2.6824151592364882e+00 2.5744118717997591e+01 0.0000000000000000e+00  1.5427172177391761e+00 2.8186909313121080e+00 0.0000000000000000e+00  2.3050487843389633e+00 1.8917401016196607e+01 0.0000000000000000e+00  2.0185699592403199e+00 1.3177298062680949e+01 0.0000000000000000e+00  2.2906690513278956e+00 1.8233369308834313e+01 0.0000000000000000e+00  1.5837211383339636e+00 4.9566214153042516e+00 0.0000000000000000e+00  2.4654588595498557e+00 2.1262492216769214e+01 0.0000000000000000e+00  2.1400701546500458e+00 1.5422133703068754e+01 0.0000000000000000e+00  1.5847533172131443e+00 4.7978593445094040e+00 0.0000000000000000e+00  2.4750671627681120e+00 2.1510361038843651e+01 0.0000000000000000e+00  1.9740283197187956e+00 1.3163288377610691e+01 0.0000000000000000e+00  2.0553000653701861e+00 1.4087323456771854e+01 0.0000000000000000e+00  1.6917059003888757e+00 6.4385066858957778e+00 0.0000000000000000e+00  2.7988672467731024e+00 2.8649827700513455e+01 0.0000000000000000e+00  1.4584036456831615e+00 1.3079896446302430e+00 0.0000000000000000e+00  2.1465136844805968e+00 1.5983465154231205e+01 0.0000000000000000e+00  2.2651308911515677e+00 1.8976676473395916e+01 0.0000000000000000e+00  2.0678496654897542e+00 1.3906741288025891e+01 0.0000000000000000e+00  1.6624489112958618e+00 7.4594567235789162e+00 0.0000000000000000e+00  2.2297480119987374e+00 1.7475661860859468e+01 0.0000000000000000e+00  2.5196279924625267e+00 2.2200970969269385e+01 0.0000000000000000e+00  1.1551919537937205e+00 -2.8713455738159954e+00 0.0000000000000000e+00  2.6303439296999143e+00 2.4567546747841099e+01 0.0000000000000000e+00  1.9872966410876183e+00 1.3563775549607557e+01 0.0000000000000000e+00  2.0079624520332078e+00 1.4528885169946264e+01 0.0000000000000000e+00  1.5875885652151005e+00 4.5824495473681104e+00 0.0000000000000000e+00  2.7471368374890495e+00 2.8017255156932546e+01 0.0000000000000000e+00  1.8270786170715752e+00 9.4438304490915854e+00 0.0000000000000000e+00  1.5391745623611714e+00 3.0570507649423408e+00 0.0000000000000000e+00  2.7177668177166616e+00 2.8029363322671006e+01 0.0000000000000000e+00  1.7824084575866235e+00 9.4413584826545076e+00 0.0000000000000000e+00  1.9097181332362134e+00 1.2028314586253421e+01 0.0000000000000000e+00  1.6992263335143873e+00 8.6395203221789014e+00 0.0000000000000000e+00  2.9169621100702177e+00 3.0294711298276791e+01 0.0000000000000000e+00  1.2434109643369851e+00 -1.8663630242327032e+00 0.0000000000000000e+00  2.0186594088790244e+00 1.3807636645729966e+01 0.0000000000000000e+00  2.5980788956497953e+00 2.4985905781802057e+01 0.0000000000000000e+00  1.7716257456205768e+00 9.9853296612915621e+00 0.0000000000000000e+00  1.5950313345730815e+00 7.1230017656256006e+00 0.0000000000000000e+00  2.2818917145411048e+00 1.7634317817198006e+01 0.0000000000000000e+00  2.4397185941452086e+00 2.6460439442596080e+01 0.0000000000000000e+00  1.6466317438107496e+00 -1.0996898549500907e+01 0.0000000000000000e+00  4.3423892121155472e+00 -5.0356782949350132e+00 0.0000000000000000e+00  2.4876530653179523e+00 1.8929887968003303e+01 0.0000000000000000e+00  9.8325836892588458e-01 -1.3670598077830030e+01 0.0000000000000000e+00  2.5844612412597874e+00 3.8426925096013122e+01 0.0000000000000000e+00  2.7312695279929424e+00 7.3383101359780207e+00 0.0000000000000000e+00  3.0887038254754753e+00 -2.5809047531446325e+01 0.0000000000000000e+00  3.9258997054524558e+00 8.6452098462159199e+00 0.0000000000000000e+00  2.8775161827877325e+00 -8.8588687076234258e+00 0.0000000000000000e+00  2.9301030993609074e+00 -2.0168713834629823e+01 0.0000000000000000e+00  3.8497870888202956e+00 2.2758330558465794e+01 0.0000000000000000e+00  2.4572908272121441e+00 -1.5875778782698095e+01 0.0000000000000000e+00  2.5403848765409895e+00 1.9560205067135854e+00 0.0000000000000000e+00  2.3303541346789922e+00 3.9843363290103234e+01 0.0000000000000000e+00  2.5125007091599416e+00 -1.8520359550150349e+01 0.0000000000000000e+00  3.2191335452678156e+00 -2.5722507690731398e+01 0.0000000000000000e+00  3.1260149718527748e+00 1.6708282367292739e+01 0.0000000000000000e+00  3.4274875835981140e+00 -1.3957424447627906e+01 0.0000000000000000e+00  1.1472711958651043e+00 2.1450755827685622e+01 0.0000000000000000e+00  3.5077724251009177e+00 2.8577900636543180e+01 0.0000000000000000e+00  2.7347819039064820e+00 -2.2651098467898056e+01 0.0000000000000000e+00  3.3139483061831378e+00 3.3038683909201488e+01 0.0000000000000000e+00  3.1143691079776481e+00 -1.7535739506917864e+01 0.0000000000000000e+00  1.5170675306252972e+00 -1.4634843291215537e+01 0.0000000000000000e+00  4.0246771080746626e+00 9.9383121766383677e+00 0.0000000000000000e+00  3.1093745024103461e+00 -4.6398798064491249e+00 0.0000000000000000e+00  1.1435504010021880e+00 6.1280282328660292e+00 0.0000000000000000e+00  4.2195615208890702e+00 1.3035531968913505e+01 0.0000000000000000e+00  2.9164509865534121e+00 -4.6950040113197469e+00 0.0000000000000000e+00  2.1959191997400209e+00 4.3370766693137695e+00 0.0000000000000000e+00  4.4208805665830777e+00 8.3581998701555504e-01 0.0000000000000000e+00  1.9784782891584622e+00 -1.4882923625790626e+01 0.0000000000000000e+00  2.2390176062867204e+00 1.3235698264412562e+01 0.0000000000000000e+00  4.0232828076523539e+00 0.0000000000000000e+00 0.0000000000000000e+00  </DataArray> 
</PointData> 
</Piece>
</UnstructuredGrid>
</VTKFile>