<?xml version="1.0"?>
<VTKFile type="UnstructuredGrid"  version="0.1"  >
<UnstructuredGrid>
<Piece  NumberOfPoints="201" NumberOfCells="200">
<Points>
<DataArray  type="Float64"  NumberOfComponents="3"  format="ascii">-5 0 0  -4.95 0 0  -4.9 0 0  -4.85 0 0  -4.8 0 0  -4.75 0 0  -4.7 0 0  -4.65 0 0  -4.6 0 0  -4.55 0 0  -4.5 0 0  -4.45 0 0  -4.4 0 0  -4.35 0 0  -4.3 0 0  -4.25 0 0  -4.2 0 0  -4.15 0 0  -4.1 0 0  -4.05 0 0  -4 0 0  -3.95 0 0  -3.9 0 0  -3.85 0 0  -3.8 0 0  -3.75 0 0  -3.7 0 0  -3.65 0 0  -3.6 0 0  -3.55 0 0  -3.5 0 0  -3.45 0 0  -3.4 0 0  -3.35 0 0  -3.3 0 0  -3.25 0 0  -3.2 0 0  -3.15 0 0  -3.1 0 0  -3.05 0 0  -3 0 0  -2.95 0 0  -2.9 0 0  -2.85 0 0  -2.8 0 0  -2.75 0 0  -2.7 0 0  -2.65 0 0  -2.6 0 0  -2.55 0 0  -2.5 0 0  -2.45 0 0  -2.4 0 0  -2.35 0 0  -2.3 0 0  -2.25 0 0  -2.2 0 0  -2.15 0 0  -2.1 0 0  -2.05 0 0  -2 0 0  -1.95 0 0  -1.9 0 0  -1.85 0 0  -1.8 0 0  -1.75 0 0  -1.7 0 0  -1.65 0 0  -1.6 0 0  -1.55 0 0  -1.5 0 0  -1.45 0 0  -1.4 0 0  -1.35 0 0  -1.3 0 0  -1.25 0 0  -1.2 0 0  -1.15 0 0  -1.1 0 0  -1.05 0 0  -1 0 0  -0.9500000000000002 0 0  -0.9000000000000004 0 0  -0.8499999999999996 0 0  -0.7999999999999998 0 0  -0.75 0 0  -0.7000000000000002 0 0  -0.6500000000000004 0 0  -0.5999999999999996 0 0  -0.5499999999999998 0 0  -0.5 0 0  -0.4500000000000002 0 0  -0.4000000000000004 0 0  -0.3499999999999996 0 0  -0.2999999999999998 0 0  -0.25 0 0  -0.2000000000000002 0 0  -0.1500000000000004 0 0  -0.09999999999999964 0 0  -0.04999999999999982 0 0  0 0 0  0.04999999999999982 0 0  0.09999999999999964 0 0  0.1500000000000004 0 0  0.2000000000000002 0 0  0.25 0 0  0.2999999999999998 0 0  0.3499999999999996 0 0  0.4000000000000004 0 0  0.4500000000000002 0 0  0.5 0 0  0.5499999999999998 0 0  0.5999999999999996 0 0  0.6500000000000004 0 0  0.7000000000000002 0 0  0.75 0 0  0.7999999999999998 0 0  0.8499999999999996 0 0  0.9000000000000004 0 0  0.9500000000000002 0 0  1 0 0  1.05 0 0  1.1 0 0  1.15 0 0  1.2 0 0  1.25 0 0  1.3 0 0  1.35 0 0  1.4 0 0  1.45 0 0  1.5 0 0  1.55 0 0  1.6 0 0  1.65 0 0  1.7 0 0  1.75 0 0  1.8 0 0  1.85 0 0  1.9 0 0  1.95 0 0  2 0 0  2.05 0 0  2.1 0 0  2.15 0 0  2.2 0 0  2.25 0 0  2.3 0 0  2.35 0 0  2.4 0 0  2.45 0 0  2.5 0 0  2.55 0 0  2.6 0 0  2.65 0 0  2.7 0 0  2.75 0 0  2.8 0 0  2.85 0 0  2.9 0 0  2.95 0 0  3 0 0  3.050000000000001 0 0  3.1 0 0  3.15 0 0  3.199999999999999 0 0  3.25 0 0  3.300000000000001 0 0  3.35 0 0  3.4 0 0  3.449999999999999 0 0  3.5 0 0  3.550000000000001 0 0  3.6 0 0  3.65 0 0  3.699999999999999 0 0  3.75 0 0  3.800000000000001 0 0  3.85 0 0  3.9 0 0  3.949999999999999 0 0  4 0 0  4.050000000000001 0 0  4.1 0 0  4.15 0 0  4.199999999999999 0 0  4.25 0 0  4.300000000000001 0 0  4.35 0 0  4.4 0 0  4.449999999999999 0 0  4.5 0 0  4.550000000000001 0 0  4.6 0 0  4.65 0 0  4.699999999999999 0 0  4.75 0 0  4.800000000000001 0 0  4.85 0 0  4.9 0 0  4.949999999999999 0 0  5 0 0  </DataArray>
</Points>
<Cells>
<DataArray  type="UInt32"  Name="connectivity"  format="ascii">0 1  1 2  2 3  3 4  4 5  5 6  6 7  7 8  8 9  9 10  10 11  11 12  12 13  13 14  14 15  15 16  16 17  17 18  18 19  19 20  20 21  21 22  22 23  23 24  24 25  25 26  26 27  27 28  28 29  29 30  30 31  31 32  32 33  33 34  34 35  35 36  36 37  37 38  38 39  39 40  40 41  41 42  42 43  43 44  44 45  45 46  46 47  47 48  48 49  49 50  50 51  51 52  52 53  53 54  54 55  55 56  56 57  57 58  58 59  59 60  60 61  61 62  62 63  63 64  64 65  65 66  66 67  67 68  68 69  69 70  70 71  71 72  72 73  73 74  74 75  75 76  76 77  77 78  78 79  79 80  80 81  81 82  82 83  83 84  84 85  85 86  86 87  87 88  88 89  89 90  90 91  91 92  92 93  93 94  94 95  95 96  96 97  97 98  98 99  99 100  100 101  101 102  102 103  103 104  104 105  105 106  106 107  107 108  108 109  109 110  110 111  111 112  112 113  113 114  114 115  115 116  116 117  117 118  118 119  119 120  120 121  121 122  122 123  123 124  124 125  125 126  126 127  127 128  128 129  129 130  130 131  131 132  132 133  133 134  134 135  135 136  136 137  137 138  138 139  139 140  140 141  141 142  142 143  143 144  144 145  145 146  146 147  147 148  148 149  149 150  150 151  151 152  152 153  153 154  154 155  155 156  156 157  157 158  158 159  159 160  160 161  161 162  162 163  163 164  164 165  165 166  166 167  167 168  168 169  169 170  170 171  171 172  172 173  173 174  174 175  175 176  176 177  177 178  178 179  179 180  180 181  181 182  182 183  183 184  184 185  185 186  186 187  187 188  188 189  189 190  190 191  191 192  192 193  193 194  194 195  195 196  196 197  197 198  198 199  199 200  </DataArray>
<DataArray  type="UInt32"  Name="offsets"  format="ascii">2 4 6 8 10 12 14 16 18 20 22 24 26 28 30 32 34 36 38 40 42 44 46 48 50 52 54 56 58 60 62 64 66 68 70 72 74 76 78 80 82 84 86 88 90 92 94 96 98 100 102 104 106 108 110 112 114 116 118 120 122 124 126 128 130 132 134 136 138 140 142 144 146 148 150 152 154 156 158 160 162 164 166 168 170 172 174 176 178 180 182 184 186 188 190 192 194 196 198 200 202 204 206 208 210 212 214 216 218 220 222 224 226 228 230 232 234 236 238 240 242 244 246 248 250 252 254 256 258 260 262 264 266 268 270 272 274 276 278 280 282 284 286 288 290 292 294 296 298 300 302 304 306 308 310 312 314 316 318 320 322 324 326 328 330 332 334 336 338 340 342 344 346 348 350 352 354 356 358 360 362 364 366 368 370 372 374 376 378 380 382 384 386 388 390 392 394 396 398 400 </DataArray>
<DataArray  type="UInt8"  Name="types"  format="ascii">3 3 3 3 3 3 3 3 3 3 3 3 3 3 3 3 3 3 3 3 3 3 3 3 3 3 3 3 3 3 3 3 3 3 3 3 3 3 3 3 3 3 3 3 3 3 3 3 3 3 3 3 3 3 3 3 3 3 3 3 3 3 3 3 3 3 3 3 3 3 3 3 3 3 3 3 3 3 3 3 3 3 3 3 3 3 3 3 3 3 3 3 3 3 3 3 3 3 3 3 3 3 3 3 3 3 3 3 3 3 3 3 3 3 3 3 3 3 3 3 3 3 3 3 3 3 3 3 3 3 3 3 3 3 3 3 3 3 3 3 3 3 3 3 3 3 3 3 3 3 3 3 3 3 3 3 3 3 3 3 3 3 3 3 3 3 3 3 3 3 3 3 3 3 3 3 3 3 3 3 3 3 3 3 3 3 3 3 3 3 3 3 3 3 3 3 3 3 3 3 </DataArray>
</Cells>
<PointData  Vectors="(s, w)"> 
<DataArray  type="Float64"  Name="(s, w)"  NumberOfComponents="3" format="ascii">3.1452652736867184e+00 0.0000000000000000e+00 0.0000000000000000e+00  3.1795745891679918e+00 2.8223192248305984e-01 0.0000000000000000e+00  3.1476472070350465e+00 -5.4249614274276248e-01 0.0000000000000000e+00  3.1745048086217262e+00 7.5902569443590606e-01 0.0000000000000000e+00  3.1546856333042306e+00 -9.1407745685494657e-01 0.0000000000000000e+00  3.1648581597541807e+00 1.0011481275914464e+00 0.0000000000000000e+00  3.1656927120294212e+00 -1.0022199116550514e+00 0.0000000000000000e+00  3.1521648093435974e+00 9.3880486053545020e-01 0.0000000000000000e+00  3.1786187676514208e+00 -7.9194709047029854e-01 0.0000000000000000e+00  3.1395497347103714e+00 6.0545949341275229e-01 0.0000000000000000e+00  3.1896175088206498e+00 -3.7110855085507044e-01 0.0000000000000000e+00  3.1315780470737264e+00 1.2906024414518180e-01 0.0000000000000000e+00  3.1936978770674234e+00 1.0277484578953740e-01 0.0000000000000000e+00  3.1329521115357943e+00 -3.1513406887141454e-01 0.0000000000000000e+00  3.1866561587659352e+00 4.6475307303902913e-01 0.0000000000000000e+00  3.1462850115043457e+00 -5.7815944446459167e-01 0.0000000000000000e+00  3.1676261035283093e+00 6.1201703030837185e-01 0.0000000000000000e+00  3.1699211997032140e+00 -6.0755815624632470e-01 0.0000000000000000e+00  3.1408350827975138e+00 5.5247319708042086e-01 0.0000000000000000e+00  3.1972385375119572e+00 -4.7607751206698340e-01 0.0000000000000000e+00  3.1150335191487053e+00 4.0491411038923497e-01 0.0000000000000000e+00  3.2185894927805259e+00 -3.4413894230377035e-01 0.0000000000000000e+00  3.1000075970548844e+00 3.3727957165706823e-01 0.0000000000000000e+00  3.2257236085041407e+00 -3.6649708984942009e-01 0.0000000000000000e+00  3.1014264587031040e+00 4.6294866772711041e-01 0.0000000000000000e+00  3.2166527891788563e+00 -5.9074214608308073e-01 0.0000000000000000e+00  3.1169299022792507e+00 7.5422784201363513e-01 0.0000000000000000e+00  3.1977917891508287e+00 -9.0993537942237390e-01 0.0000000000000000e+00  3.1364754395145886e+00 1.0403587433861818e+00 0.0000000000000000e+00  3.1810552666917138e+00 -1.1134921734459691e+00 0.0000000000000000e+00  3.1478920500064405e+00 1.1110422379458580e+00 0.0000000000000000e+00  3.1765790167412296e+00 -1.0270757105034254e+00 0.0000000000000000e+00  3.1449726003896288e+00 8.6970974792359812e-01 0.0000000000000000e+00  3.1853863230259676e+00 -6.5691922425948956e-01 0.0000000000000000e+00  3.1325272233110248e+00 4.2989132711060796e-01 0.0000000000000000e+00  3.1977958885443099e+00 -2.1732542931525345e-01 0.0000000000000000e+00  3.1235586693630535e+00 6.3195943259859208e-02 0.0000000000000000e+00  3.2003247181579639e+00 1.1755141223116326e-02 0.0000000000000000e+00  3.1290961410654861e+00 4.9188439171828915e-04 0.0000000000000000e+00  3.1870761759897315e+00 -9.2032954578560880e-02 0.0000000000000000e+00  3.1480660858001936e+00 2.2725525776734415e-01 0.0000000000000000e+00  3.1661680495434608e+00 -3.7147718386061840e-01 0.0000000000000000e+00  3.1666985591487475e+00 4.7207793961559757e-01 0.0000000000000000e+00  3.1538290406497898e+00 -5.0529538759277970e-01 0.0000000000000000e+00  3.1702630064932178e+00 4.4353381315995066e-01 0.0000000000000000e+00  3.1592783683295331e+00 -3.0781275639948830e-01 0.0000000000000000e+00  3.1578347433137530e+00 1.2221650323136336e-01 0.0000000000000000e+00  3.1742547322733605e+00 6.2753109427500078e-02 0.0000000000000000e+00  3.1446272760312617e+00 -1.8593077267874364e-01 0.0000000000000000e+00  3.1797152411440477e+00 2.5134560715954718e-01 0.0000000000000000e+00  3.1459807766171370e+00 -1.4318579387187558e-01 0.0000000000000000e+00  3.1653759951784117e+00 1.2101610780474664e-01 0.0000000000000000e+00  3.1572828475815715e+00 2.5382341092652927e-01 0.0000000000000000e+00  3.1407231297029830e+00 -1.0685107247513865e-03 0.0000000000000000e+00  3.1541733607911397e+00 6.8565239494597063e-01 0.0000000000000000e+00  3.1219592985799203e+00 3.7926765435041043e-01 0.0000000000000000e+00  3.1198717592762395e+00 9.5037112346384200e-01 0.0000000000000000e+00  3.1074808032295000e+00 1.2865442640224971e+00 0.0000000000000000e+00  3.0700357788987853e+00 1.3176007837628814e+00 0.0000000000000000e+00  3.0748855286121834e+00 2.1566083585599456e+00 0.0000000000000000e+00  3.0337468083939454e+00 2.1974129338873700e+00 0.0000000000000000e+00  3.0156968802293118e+00 2.6569101407818518e+00 0.0000000000000000e+00  3.0062051928376827e+00 3.3480534556468236e+00 0.0000000000000000e+00  2.9601900341546510e+00 3.2831349689294194e+00 0.0000000000000000e+00  2.9554705025825636e+00 4.0652810812828228e+00 0.0000000000000000e+00  2.9298655113191869e+00 4.4135439986950100e+00 0.0000000000000000e+00  2.8899579867006642e+00 4.4886608570215909e+00 0.0000000000000000e+00  2.8908501426916966e+00 5.3559942422657718e+00 0.0000000000000000e+00  2.8512194815046454e+00 5.4270559916368297e+00 0.0000000000000000e+00  2.8233530981760468e+00 5.7134489123278485e+00 0.0000000000000000e+00  2.8212223633978875e+00 6.5117932295670942e+00 0.0000000000000000e+00  2.7748453359490250e+00 6.4221400988386339e+00 0.0000000000000000e+00  2.7568195679434697e+00 6.8870066090071047e+00 0.0000000000000000e+00  2.7497693775244487e+00 7.5624165465821953e+00 0.0000000000000000e+00  2.7004217237398174e+00 7.3931046241007286e+00 0.0000000000000000e+00  2.6898068228639969e+00 7.9788601190742297e+00 0.0000000000000000e+00  2.6777033145166524e+00 8.5326010190227404e+00 0.0000000000000000e+00  2.6280804069435937e+00 8.3313066424750701e+00 0.0000000000000000e+00  2.6212731056125893e+00 8.9698781207742080e+00 0.0000000000000000e+00  2.6067621045067750e+00 9.4502111810948364e+00 0.0000000000000000e+00  2.5566549529140161e+00 9.2161360619189292e+00 0.0000000000000000e+00  2.5517905248739088e+00 9.8675934807075656e+00 0.0000000000000000e+00  2.5366805826542551e+00 1.0313124414964179e+01 0.0000000000000000e+00  2.4865876282699020e+00 1.0054080954969109e+01 0.0000000000000000e+00  2.4811191136496111e+00 1.0670470908752216e+01 0.0000000000000000e+00  2.4670686773941011e+00 1.1111995684734142e+01 0.0000000000000000e+00  2.4182890920114186e+00 1.0856049955846174e+01 0.0000000000000000e+00  2.4105110051620682e+00 1.1401927544592578e+01 0.0000000000000000e+00  2.3946856601148609e+00 1.1785099330941650e+01 0.0000000000000000e+00  2.3543218047527024e+00 1.1670212893867705e+01 0.0000000000000000e+00  2.3418650142908923e+00 1.2101770717099312e+01 0.0000000000000000e+00  2.3142979261080465e+00 1.2223628244729513e+01 0.0000000000000000e+00  2.2968925938368834e+00 1.2540305416252464e+01 0.0000000000000000e+00  2.2817128036759775e+00 1.2889716691716847e+01 0.0000000000000000e+00  2.2168103231580276e+00 1.2246222251787096e+01 0.0000000000000000e+00  2.2463563882060447e+00 1.3463269124853916e+01 0.0000000000000000e+00  2.2408686257693953e+00 1.3984320476641292e+01 0.0000000000000000e+00  2.0952765452215423e+00 1.1718119911072625e+01 0.0000000000000000e+00  2.1903939759533295e+00 1.4228853890637074e+01 0.0000000000000000e+00  2.2304612884436246e+00 1.5706070912490608e+01 0.0000000000000000e+00  1.9347018887038705e+00 1.0956277141491825e+01 0.0000000000000000e+00  2.1043531073247896e+00 1.4237789486729998e+01 0.0000000000000000e+00  2.2684162653757145e+00 1.7953671653311794e+01 0.0000000000000000e+00  1.8892534846246694e+00 1.0080388353640545e+01 0.0000000000000000e+00  2.0075379373182516e+00 1.2750848228874153e+01 0.0000000000000000e+00  2.3724798534497200e+00 1.9904128784308121e+01 0.0000000000000000e+00  1.8846857470858989e+00 1.0591753062048074e+01 0.0000000000000000e+00  1.8664364786659924e+00 1.0100332037815541e+01 0.0000000000000000e+00  2.4199361267733535e+00 2.1344800857124376e+01 0.0000000000000000e+00  1.9880600665288719e+00 1.2691852231620604e+01 0.0000000000000000e+00  1.6891949725533950e+00 7.0739620792563560e+00 0.0000000000000000e+00  2.3924885748668472e+00 2.0907051388553018e+01 0.0000000000000000e+00  2.1762919796606055e+00 1.6705220362911895e+01 0.0000000000000000e+00  1.5577665754966954e+00 4.7388625260959412e+00 0.0000000000000000e+00  2.2104486183851657e+00 1.7559905607054713e+01 0.0000000000000000e+00  2.4332917429657486e+00 2.1952577037282900e+01 0.0000000000000000e+00  1.5522128695247859e+00 5.0665266468823793e+00 0.0000000000000000e+00  1.8611436364276910e+00 1.0783813983418892e+01 0.0000000000000000e+00  2.6179477546002161e+00 2.6155661156370424e+01 0.0000000000000000e+00  1.8116549372298412e+00 1.0057366692036210e+01 0.0000000000000000e+00  1.4400771168237501e+00 3.3101541574147122e+00 0.0000000000000000e+00  2.4819109168310032e+00 2.3552670067811174e+01 0.0000000000000000e+00  2.3319566515301919e+00 2.0396921140779209e+01 0.0000000000000000e+00  1.2863577567155389e+00 1.0965905063434909e+00 0.0000000000000000e+00  1.8584778618156843e+00 1.1219549860430961e+01 0.0000000000000000e+00  2.7519232963534761e+00 2.9646493268645308e+01 0.0000000000000000e+00  1.7494010159283735e+00 9.2914841013492513e+00 0.0000000000000000e+00  1.1872782271565117e+00 -1.1944090781597776e-01 0.0000000000000000e+00  2.3395199680774623e+00 2.0922909203336644e+01 0.0000000000000000e+00  2.6181083641107978e+00 2.6815339251501737e+01 0.0000000000000000e+00  1.3179184872972265e+00 2.2104926838459451e+00 0.0000000000000000e+00  1.3122060295698121e+00 1.9925234779839545e+00 0.0000000000000000e+00  2.6335498997759359e+00 2.7449145106207123e+01 0.0000000000000000e+00  2.3833738773688031e+00 2.1719818508777660e+01 0.0000000000000000e+00  1.1001742824859773e+00 -6.2473935675467851e-01 0.0000000000000000e+00  1.4251453398627474e+00 3.7550055408267045e+00 0.0000000000000000e+00  2.7490153317844905e+00 3.0224904013455028e+01 0.0000000000000000e+00  2.2401561570978044e+00 1.8696450450667754e+01 0.0000000000000000e+00  1.0279225862850880e+00 -1.4261744455134222e+00 0.0000000000000000e+00  1.5215974916643666e+00 5.2608776610936232e+00 0.0000000000000000e+00  2.7942787054834919e+00 3.1287533590579024e+01 0.0000000000000000e+00  2.1248374686097002e+00 1.6300621793827972e+01 0.0000000000000000e+00  1.0153728134249531e+00 -1.5658800796818564e+00 0.0000000000000000e+00  9.7819271953298415e-01 4.0329667213025761e-01 0.0000000000000000e+00  1.0092428720825555e+00 -1.0286263582802935e-01 0.0000000000000000e+00  9.9760645644532286e-01 2.2732952908612308e-02 0.0000000000000000e+00  9.9980439760587791e-01 -7.9800073570626914e-05 0.0000000000000000e+00  1.0009745552164493e+00 -5.8780101037755033e-03 0.0000000000000000e+00  9.9891401607365349e-01 6.7678441196234521e-03 0.0000000000000000e+00  1.0009764094453566e+00 -6.1069425237701641e-03 0.0000000000000000e+00  9.9919123607269444e-01 5.0658218273110850e-03 0.0000000000000000e+00  1.0006418757730917e+00 -4.0190878957045576e-03 0.0000000000000000e+00  9.9950472478113461e-01 3.1024589476927123e-03 0.0000000000000000e+00  1.0003741023639350e+00 -2.3427482800731890e-03 0.0000000000000000e+00  9.9972245467182652e-01 1.7384574993243923e-03 0.0000000000000000e+00  1.0002026953165508e+00 -1.2694190827338384e-03 0.0000000000000000e+00  9.9985407734181331e-01 9.1397388444818992e-04 0.0000000000000000e+00  1.0001036764100086e+00 -6.4931531139170065e-04 0.0000000000000000e+00  9.9992724002306621e-01 4.5571476308716710e-04 0.0000000000000000e+00  1.0000504783965820e+00 -3.1614683505687283e-04 0.0000000000000000e+00  9.9996535824112931e-01 2.1696769607362047e-04 0.0000000000000000e+00  1.0000235307699035e+00 -1.4737479710625093e-04 0.0000000000000000e+00  9.9998417156764319e-01 9.9135776687991285e-05 0.0000000000000000e+00  1.0000105490281159e+00 -6.6069548715719340e-05 0.0000000000000000e+00  9.9999303142936669e-01 4.3645049312881279e-05 0.0000000000000000e+00  1.0000045645917979e+00 -2.8588519182387919e-05 0.0000000000000000e+00  9.9999703420243458e-01 1.8575146090629425e-05 0.0000000000000000e+00  1.0000019120776762e+00 -1.1975553841282470e-05 0.0000000000000000e+00  9.9999877643910162e-01 7.6633045821359402e-06 0.0000000000000000e+00  1.0000007773634818e+00 -4.8687151332485231e-06 0.0000000000000000e+00  9.9999950952734817e-01 3.0718867119289566e-06 0.0000000000000000e+00  1.0000003073999395e+00 -1.9252807599760786e-06 0.0000000000000000e+00  9.9999980857867421e-01 1.1988937023861709e-06 0.0000000000000000e+00  1.0000001184588660e+00 -7.4192137898989669e-07 0.0000000000000000e+00  9.9999992713431851e-01 4.5636610081024868e-07 0.0000000000000000e+00  1.0000000445593835e+00 -2.7908050471782343e-07 0.0000000000000000e+00  9.9999997290471065e-01 1.6970089658103833e-07 0.0000000000000000e+00  1.0000000163855298e+00 -1.0262444261400199e-07 0.0000000000000000e+00  9.9999999014381491e-01 6.1730423645257837e-08 0.0000000000000000e+00  1.0000000058980054e+00 -3.6939886774387989e-08 0.0000000000000000e+00  9.9999999648834281e-01 2.1993909398885645e-08 0.0000000000000000e+00  1.0000000020806041e+00 -1.3031057945994110e-08 0.0000000000000000e+00  9.9999999877314305e-01 7.6839488127317751e-09 0.0000000000000000e+00  1.0000000007200800e+00 -4.5099367068943370e-09 0.0000000000000000e+00  9.9999999957927344e-01 2.6350556605551613e-09 0.0000000000000000e+00  1.0000000002447380e+00 -1.5328240662680006e-09 0.0000000000000000e+00  9.9999999985824639e-01 8.8782319378703456e-10 0.0000000000000000e+00  1.0000000000817606e+00 -5.1207137612259886e-10 0.0000000000000000e+00  9.9999999995303557e-01 2.9414556842271084e-10 0.0000000000000000e+00  1.0000000000268694e+00 -1.6828430350568115e-10 0.0000000000000000e+00  9.9999999998468747e-01 9.5904506907217797e-11 0.0000000000000000e+00  1.0000000000086937e+00 -5.4446962012137842e-11 0.0000000000000000e+00  9.9999999999508282e-01 3.0797700978471769e-11 0.0000000000000000e+00  1.0000000000027713e+00 -1.7349592712081410e-11 0.0000000000000000e+00  9.9999999999844280e-01 9.7375668021176141e-12 0.0000000000000000e+00  1.0000000000008735e+00 -5.4408532099407157e-12 0.0000000000000000e+00  9.9999999999951017e-01 3.0155101123560189e-12 0.0000000000000000e+00  1.0000000000002769e+00 -1.6414101266719972e-12 0.0000000000000000e+00  9.9999999999983702e-01 8.4702832088288351e-13 0.0000000000000000e+00  1.0000000000001072e+00 -3.6389651603277273e-13 0.0000000000000000e+00  9.9999999999991029e-01 0.0000000000000000e+00 0.0000000000000000e+00  </DataArray> 
</PointData> 
</Piece>
</UnstructuredGrid>
</VTKFile>