<?xml version="1.0"?>
<VTKFile type="UnstructuredGrid"  version="0.1"  >
<UnstructuredGrid>
<Piece  NumberOfPoints="201" NumberOfCells="200">
<Points>
<DataArray  type="Float64"  NumberOfComponents="3"  format="ascii">-5 0 0  -4.95 0 0  -4.9 0 0  -4.85 0 0  -4.8 0 0  -4.75 0 0  -4.7 0 0  -4.65 0 0  -4.6 0 0  -4.55 0 0  -4.5 0 0  -4.45 0 0  -4.4 0 0  -4.35 0 0  -4.3 0 0  -4.25 0 0  -4.2 0 0  -4.15 0 0  -4.1 0 0  -4.05 0 0  -4 0 0  -3.95 0 0  -3.9 0 0  -3.85 0 0  -3.8 0 0  -3.75 0 0  -3.7 0 0  -3.65 0 0  -3.6 0 0  -3.55 0 0  -3.5 0 0  -3.45 0 0  -3.4 0 0  -3.35 0 0  -3.3 0 0  -3.25 0 0  -3.2 0 0  -3.15 0 0  -3.1 0 0  -3.05 0 0  -3 0 0  -2.95 0 0  -2.9 0 0  -2.85 0 0  -2.8 0 0  -2.75 0 0  -2.7 0 0  -2.65 0 0  -2.6 0 0  -2.55 0 0  -2.5 0 0  -2.45 0 0  -2.4 0 0  -2.35 0 0  -2.3 0 0  -2.25 0 0  -2.2 0 0  -2.15 0 0  -2.1 0 0  -2.05 0 0  -2 0 0  -1.95 0 0  -1.9 0 0  -1.85 0 0  -1.8 0 0  -1.75 0 0  -1.7 0 0  -1.65 0 0  -1.6 0 0  -1.55 0 0  -1.5 0 0  -1.45 0 0  -1.4 0 0  -1.35 0 0  -1.3 0 0  -1.25 0 0  -1.2 0 0  -1.15 0 0  -1.1 0 0  -1.05 0 0  -1 0 0  -0.9500000000000002 0 0  -0.9000000000000004 0 0  -0.8499999999999996 0 0  -0.7999999999999998 0 0  -0.75 0 0  -0.7000000000000002 0 0  -0.6500000000000004 0 0  -0.5999999999999996 0 0  -0.5499999999999998 0 0  -0.5 0 0  -0.4500000000000002 0 0  -0.4000000000000004 0 0  -0.3499999999999996 0 0  -0.2999999999999998 0 0  -0.25 0 0  -0.2000000000000002 0 0  -0.1500000000000004 0 0  -0.09999999999999964 0 0  -0.04999999999999982 0 0  0 0 0  0.04999999999999982 0 0  0.09999999999999964 0 0  0.1500000000000004 0 0  0.2000000000000002 0 0  0.25 0 0  0.2999999999999998 0 0  0.3499999999999996 0 0  0.4000000000000004 0 0  0.4500000000000002 0 0  0.5 0 0  0.5499999999999998 0 0  0.5999999999999996 0 0  0.6500000000000004 0 0  0.7000000000000002 0 0  0.75 0 0  0.7999999999999998 0 0  0.8499999999999996 0 0  0.9000000000000004 0 0  0.9500000000000002 0 0  1 0 0  1.05 0 0  1.1 0 0  1.15 0 0  1.2 0 0  1.25 0 0  1.3 0 0  1.35 0 0  1.4 0 0  1.45 0 0  1.5 0 0  1.55 0 0  1.6 0 0  1.65 0 0  1.7 0 0  1.75 0 0  1.8 0 0  1.85 0 0  1.9 0 0  1.95 0 0  2 0 0  2.05 0 0  2.1 0 0  2.15 0 0  2.2 0 0  2.25 0 0  2.3 0 0  2.35 0 0  2.4 0 0  2.45 0 0  2.5 0 0  2.55 0 0  2.6 0 0  2.65 0 0  2.7 0 0  2.75 0 0  2.8 0 0  2.85 0 0  2.9 0 0  2.95 0 0  3 0 0  3.050000000000001 0 0  3.1 0 0  3.15 0 0  3.199999999999999 0 0  3.25 0 0  3.300000000000001 0 0  3.35 0 0  3.4 0 0  3.449999999999999 0 0  3.5 0 0  3.550000000000001 0 0  3.6 0 0  3.65 0 0  3.699999999999999 0 0  3.75 0 0  3.800000000000001 0 0  3.85 0 0  3.9 0 0  3.949999999999999 0 0  4 0 0  4.050000000000001 0 0  4.1 0 0  4.15 0 0  4.199999999999999 0 0  4.25 0 0  4.300000000000001 0 0  4.35 0 0  4.4 0 0  4.449999999999999 0 0  4.5 0 0  4.550000000000001 0 0  4.6 0 0  4.65 0 0  4.699999999999999 0 0  4.75 0 0  4.800000000000001 0 0  4.85 0 0  4.9 0 0  4.949999999999999 0 0  5 0 0  </DataArray>
</Points>
<Cells>
<DataArray  type="UInt32"  Name="connectivity"  format="ascii">0 1  1 2  2 3  3 4  4 5  5 6  6 7  7 8  8 9  9 10  10 11  11 12  12 13  13 14  14 15  15 16  16 17  17 18  18 19  19 20  20 21  21 22  22 23  23 24  24 25  25 26  26 27  27 28  28 29  29 30  30 31  31 32  32 33  33 34  34 35  35 36  36 37  37 38  38 39  39 40  40 41  41 42  42 43  43 44  44 45  45 46  46 47  47 48  48 49  49 50  50 51  51 52  52 53  53 54  54 55  55 56  56 57  57 58  58 59  59 60  60 61  61 62  62 63  63 64  64 65  65 66  66 67  67 68  68 69  69 70  70 71  71 72  72 73  73 74  74 75  75 76  76 77  77 78  78 79  79 80  80 81  81 82  82 83  83 84  84 85  85 86  86 87  87 88  88 89  89 90  90 91  91 92  92 93  93 94  94 95  95 96  96 97  97 98  98 99  99 100  100 101  101 102  102 103  103 104  104 105  105 106  106 107  107 108  108 109  109 110  110 111  111 112  112 113  113 114  114 115  115 116  116 117  117 118  118 119  119 120  120 121  121 122  122 123  123 124  124 125  125 126  126 127  127 128  128 129  129 130  130 131  131 132  132 133  133 134  134 135  135 136  136 137  137 138  138 139  139 140  140 141  141 142  142 143  143 144  144 145  145 146  146 147  147 148  148 149  149 150  150 151  151 152  152 153  153 154  154 155  155 156  156 157  157 158  158 159  159 160  160 161  161 162  162 163  163 164  164 165  165 166  166 167  167 168  168 169  169 170  170 171  171 172  172 173  173 174  174 175  175 176  176 177  177 178  178 179  179 180  180 181  181 182  182 183  183 184  184 185  185 186  186 187  187 188  188 189  189 190  190 191  191 192  192 193  193 194  194 195  195 196  196 197  197 198  198 199  199 200  </DataArray>
<DataArray  type="UInt32"  Name="offsets"  format="ascii">2 4 6 8 10 12 14 16 18 20 22 24 26 28 30 32 34 36 38 40 42 44 46 48 50 52 54 56 58 60 62 64 66 68 70 72 74 76 78 80 82 84 86 88 90 92 94 96 98 100 102 104 106 108 110 112 114 116 118 120 122 124 126 128 130 132 134 136 138 140 142 144 146 148 150 152 154 156 158 160 162 164 166 168 170 172 174 176 178 180 182 184 186 188 190 192 194 196 198 200 202 204 206 208 210 212 214 216 218 220 222 224 226 228 230 232 234 236 238 240 242 244 246 248 250 252 254 256 258 260 262 264 266 268 270 272 274 276 278 280 282 284 286 288 290 292 294 296 298 300 302 304 306 308 310 312 314 316 318 320 322 324 326 328 330 332 334 336 338 340 342 344 346 348 350 352 354 356 358 360 362 364 366 368 370 372 374 376 378 380 382 384 386 388 390 392 394 396 398 400 </DataArray>
<DataArray  type="UInt8"  Name="types"  format="ascii">3 3 3 3 3 3 3 3 3 3 3 3 3 3 3 3 3 3 3 3 3 3 3 3 3 3 3 3 3 3 3 3 3 3 3 3 3 3 3 3 3 3 3 3 3 3 3 3 3 3 3 3 3 3 3 3 3 3 3 3 3 3 3 3 3 3 3 3 3 3 3 3 3 3 3 3 3 3 3 3 3 3 3 3 3 3 3 3 3 3 3 3 3 3 3 3 3 3 3 3 3 3 3 3 3 3 3 3 3 3 3 3 3 3 3 3 3 3 3 3 3 3 3 3 3 3 3 3 3 3 3 3 3 3 3 3 3 3 3 3 3 3 3 3 3 3 3 3 3 3 3 3 3 3 3 3 3 3 3 3 3 3 3 3 3 3 3 3 3 3 3 3 3 3 3 3 3 3 3 3 3 3 3 3 3 3 3 3 3 3 3 3 3 3 3 3 3 3 3 3 </DataArray>
</Cells>
<PointData  Vectors="(s, w)"> 
<DataArray  type="Float64"  Name="(s, w)"  NumberOfComponents="3" format="ascii">2.5538471921806289e+00 0.0000000000000000e+00 0.0000000000000000e+00  2.5499859750004945e+00 1.0064183349301668e-01 0.0000000000000000e+00  2.5440467879009128e+00 5.6922898099433250e-01 0.0000000000000000e+00  2.5584585601457737e+00 7.2563198718679056e-01 0.0000000000000000e+00  2.5465544574181975e+00 7.8068706940690491e-01 0.0000000000000000e+00  2.5477712180454573e+00 1.2348925287850065e+00 0.0000000000000000e+00  2.5530056032377400e+00 1.4561916986856238e+00 0.0000000000000000e+00  2.5524625553069584e+00 1.4680632120477066e+00 0.0000000000000000e+00  2.5418882388541495e+00 1.9031765197100368e+00 0.0000000000000000e+00  2.5565042639584914e+00 2.1766259204367127e+00 0.0000000000000000e+00  2.5485769792823536e+00 2.1652369672388012e+00 0.0000000000000000e+00  2.5458244482599790e+00 2.5559554610250919e+00 0.0000000000000000e+00  2.5500828174313539e+00 2.8954482604518308e+00 0.0000000000000000e+00  2.5542034763670696e+00 2.8539285804325938e+00 0.0000000000000000e+00  2.5403070652683222e+00 3.2167606430551103e+00 0.0000000000000000e+00  2.5528967698275067e+00 3.5995444151910729e+00 0.0000000000000000e+00  2.5496576127815391e+00 3.5626208879902452e+00 0.0000000000000000e+00  2.5445184204771993e+00 3.8683724363262626e+00 0.0000000000000000e+00  2.5455076555249270e+00 4.3172926301029708e+00 0.0000000000000000e+00  2.5547386954096365e+00 4.2582061435328908e+00 0.0000000000000000e+00  2.5393228801825591e+00 4.5327394994640677e+00 0.0000000000000000e+00  2.5479747511714352e+00 5.0096439691846548e+00 0.0000000000000000e+00  2.5496390662392376e+00 4.9691664000756619e+00 0.0000000000000000e+00  2.5442041420488519e+00 5.1747434711664901e+00 0.0000000000000000e+00  2.5396706537625078e+00 5.7210365926122533e+00 0.0000000000000000e+00  2.5537281350698806e+00 5.6629464827835765e+00 0.0000000000000000e+00  2.5389102835386295e+00 5.8356892425124167e+00 0.0000000000000000e+00  2.5413921642241331e+00 6.4001314907492466e+00 0.0000000000000000e+00  2.5470979427509515e+00 6.3749918721823970e+00 0.0000000000000000e+00  2.5443028531208980e+00 6.4609265741169253e+00 0.0000000000000000e+00  2.5323162430722665e+00 7.0978431149367767e+00 0.0000000000000000e+00  2.5498083549257844e+00 7.0657135698185574e+00 0.0000000000000000e+00  2.5388665857564590e+00 7.1125389952241820e+00 0.0000000000000000e+00  2.5340263113988466e+00 7.7540592650044449e+00 0.0000000000000000e+00  2.5408114266402602e+00 7.7820273633969395e+00 0.0000000000000000e+00  2.5443022576244219e+00 7.7204084811126554e+00 0.0000000000000000e+00  2.5244274757657839e+00 8.4214991636363301e+00 0.0000000000000000e+00  2.5409388948936544e+00 8.4656150189077017e+00 0.0000000000000000e+00  2.5373511257233092e+00 8.3434945690284383e+00 0.0000000000000000e+00  2.5262936322802774e+00 9.0096199545473592e+00 0.0000000000000000e+00  2.5263489124626495e+00 9.1548444661000694e+00 0.0000000000000000e+00  2.5391953473473725e+00 8.8927632560991565e+00 0.0000000000000000e+00  2.5144768511832480e+00 9.5476516270290226e+00 0.0000000000000000e+00  2.5196805617470268e+00 9.7528455180231965e+00 0.0000000000000000e+00  2.5235797479884368e+00 9.4139680012236493e+00 0.0000000000000000e+00  2.5136430785857655e+00 9.9471745915279897e+00 0.0000000000000000e+00  2.4953939726915375e+00 1.0295365591547251e+01 0.0000000000000000e+00  2.5147550961752834e+00 9.8556364273937351e+00 0.0000000000000000e+00  2.4965977777887951e+00 1.0247242233282744e+01 0.0000000000000000e+00  2.4823986148054042e+00 1.0713427021635859e+01 0.0000000000000000e+00  2.4834211271184947e+00 1.0265605019922644e+01 0.0000000000000000e+00  2.4920245318979846e+00 1.0447458662122491e+01 0.0000000000000000e+00  2.4537188759441593e+00 1.1008733616246298e+01 0.0000000000000000e+00  2.4621105626426454e+00 1.0683698263031099e+01 0.0000000000000000e+00  2.4664655039406300e+00 1.0593147170638092e+01 0.0000000000000000e+00  2.4479176058972358e+00 1.1238508172758481e+01 0.0000000000000000e+00  2.4190270330695021e+00 1.1051300726887440e+01 0.0000000000000000e+00  2.4544847956437805e+00 1.0860100765455352e+01 0.0000000000000000e+00  2.4263453206588856e+00 1.1293208185935505e+01 0.0000000000000000e+00  2.4024253032964999e+00 1.1495173901436496e+01 0.0000000000000000e+00  2.4083737225729505e+00 1.1072999920321765e+01 0.0000000000000000e+00  2.4323474447964029e+00 1.1482715182888098e+01 0.0000000000000000e+00  2.3679518545139953e+00 1.1636263003303696e+01 0.0000000000000000e+00  2.3836721292909857e+00 1.1578435335573726e+01 0.0000000000000000e+00  2.3984852210072654e+00 1.1452017278415266e+01 0.0000000000000000e+00  2.3801091719540226e+00 1.1949483113796136e+01 0.0000000000000000e+00  2.3257916819307001e+00 1.1731407881405516e+01 0.0000000000000000e+00  2.3856914391468393e+00 1.1918782143064576e+01 0.0000000000000000e+00  2.3585106559641655e+00 1.1805560280641240e+01 0.0000000000000000e+00  2.3258020975517604e+00 1.2218072524389651e+01 0.0000000000000000e+00  2.3164051409627331e+00 1.2002689884530444e+01 0.0000000000000000e+00  2.3715785763437527e+00 1.2250699445471046e+01 0.0000000000000000e+00  2.2984261220605187e+00 1.2041223071288602e+01 0.0000000000000000e+00  2.2968332531324629e+00 1.2561564580672066e+01 0.0000000000000000e+00  2.3163039816393800e+00 1.2322687313369668e+01 0.0000000000000000e+00  2.3220890522150079e+00 1.2326805163456200e+01 0.0000000000000000e+00  2.2545008803673725e+00 1.2502106705490727e+01 0.0000000000000000e+00  2.2836388790365865e+00 1.2819164956939519e+01 0.0000000000000000e+00  2.3008990281856403e+00 1.2523613436180016e+01 0.0000000000000000e+00  2.2560533953040220e+00 1.2390700877611172e+01 0.0000000000000000e+00  2.2437495832227028e+00 1.3281023161520499e+01 0.0000000000000000e+00  2.2567432503662741e+00 1.2566833742766839e+01 0.0000000000000000e+00  2.2777541964035892e+00 1.2978550719304922e+01 0.0000000000000000e+00  2.1911377928618974e+00 1.2567383463231423e+01 0.0000000000000000e+00  2.2550967415334440e+00 1.3959661977417797e+01 0.0000000000000000e+00  2.2062614875803042e+00 1.1929190405659613e+01 0.0000000000000000e+00  2.2613891361690404e+00 1.4111219916274329e+01 0.0000000000000000e+00  2.1236094642426511e+00 1.2309929030085820e+01 0.0000000000000000e+00  2.2877076977204265e+00 1.4515218001657589e+01 0.0000000000000000e+00  2.1317155766559592e+00 1.1577725839491595e+01 0.0000000000000000e+00  2.2356491022153904e+00 1.5255619562973282e+01 0.0000000000000000e+00  2.0909158316997227e+00 1.1537484640221935e+01 0.0000000000000000e+00  2.3146027602786461e+00 1.5512188069830302e+01 0.0000000000000000e+00  2.0037649141134608e+00 1.1275430181388684e+01 0.0000000000000000e+00  2.2686785333555681e+00 1.5783272200262845e+01 0.0000000000000000e+00  2.0916788235389432e+00 1.1628503647455609e+01 0.0000000000000000e+00  2.1766456372644769e+00 1.5849473753171022e+01 0.0000000000000000e+00  2.0453633454901960e+00 1.0873140242453333e+01 0.0000000000000000e+00  2.2515375047965813e+00 1.7041560987803660e+01 0.0000000000000000e+00  2.0109921073541619e+00 1.1419727696750371e+01 0.0000000000000000e+00  2.1356170253491888e+00 1.4693581456960709e+01 0.0000000000000000e+00  2.1258194795203007e+00 1.4187606212603839e+01 0.0000000000000000e+00  2.1111265392306264e+00 1.4368696629243784e+01 0.0000000000000000e+00  2.0236143704322647e+00 1.2508077292705371e+01 0.0000000000000000e+00  2.1539377446925885e+00 1.5137820766087293e+01 0.0000000000000000e+00  2.1628109044252111e+00 1.5140681231474607e+01 0.0000000000000000e+00  1.9056184235418234e+00 1.0214535369743528e+01 0.0000000000000000e+00  2.3170421748787202e+00 1.8299561010355792e+01 0.0000000000000000e+00  1.9451953249822527e+00 1.1107917014575085e+01 0.0000000000000000e+00  2.1785350830525552e+00 1.5705027081891616e+01 0.0000000000000000e+00  1.9421096828343440e+00 1.1112764691358500e+01 0.0000000000000000e+00  2.4027585559710443e+00 2.0041962737625955e+01 0.0000000000000000e+00  1.6623052501783873e+00 5.4698319435500506e+00 0.0000000000000000e+00  2.4628721763238044e+00 2.1248675096197484e+01 0.0000000000000000e+00  1.8806615606565964e+00 9.9747429274658899e+00 0.0000000000000000e+00  2.1977147288399737e+00 1.6309017026695198e+01 0.0000000000000000e+00  1.8716566820846041e+00 9.8645216167335388e+00 0.0000000000000000e+00  2.4690367235600403e+00 2.1478623272422912e+01 0.0000000000000000e+00  1.6894190182126552e+00 6.1985395615804846e+00 0.0000000000000000e+00  2.2346700255228815e+00 1.6922199981073572e+01 0.0000000000000000e+00  2.2046788491949556e+00 1.6598347433674267e+01 0.0000000000000000e+00  1.9206724969693085e+00 1.0995272998320981e+01 0.0000000000000000e+00  2.0170698540666008e+00 1.2973427065638319e+01 0.0000000000000000e+00  2.2466710629237823e+00 1.7593350479133449e+01 0.0000000000000000e+00  2.1196937862567280e+00 1.4964872801743688e+01 0.0000000000000000e+00  1.6407593806919973e+00 5.3525797152632890e+00 0.0000000000000000e+00  2.6228854538493320e+00 2.4758330226340618e+01 0.0000000000000000e+00  1.7851870543127797e+00 8.3843954488260835e+00 0.0000000000000000e+00  2.0363127688638660e+00 1.3816948708369486e+01 0.0000000000000000e+00  1.9982889153750045e+00 1.2990511383758635e+01 0.0000000000000000e+00  2.5067707060171358e+00 2.2569546465848564e+01 0.0000000000000000e+00  1.4479817064252651e+00 1.9284444875500737e+00 0.0000000000000000e+00  2.3295138233054131e+00 1.9085627417062184e+01 0.0000000000000000e+00  2.2729873097770055e+00 1.8410469066648297e+01 0.0000000000000000e+00  1.7659287814882947e+00 8.6567488885832038e+00 0.0000000000000000e+00  1.9506570690967300e+00 1.2010653326022766e+01 0.0000000000000000e+00  2.3837940997716456e+00 2.0957220443711432e+01 0.0000000000000000e+00  2.0340394326770750e+00 1.3655306987516136e+01 0.0000000000000000e+00  1.5263912542658418e+00 3.5050577024126635e+00 0.0000000000000000e+00  2.6530133253495287e+00 2.5843214645346137e+01 0.0000000000000000e+00  1.9112044179412244e+00 1.1313019008259474e+01 0.0000000000000000e+00  1.7659971052688130e+00 9.0230122549607561e+00 0.0000000000000000e+00  2.0844781819745162e+00 1.5288925284082641e+01 0.0000000000000000e+00  2.4958123856362349e+00 2.2778048888136393e+01 0.0000000000000000e+00  1.5449318566201471e+00 4.5922571603111830e+00 0.0000000000000000e+00  1.9235655642053020e+00 1.1536588128444363e+01 0.0000000000000000e+00  2.6664961861164063e+00 2.6197615277350280e+01 0.0000000000000000e+00  1.5897291707184347e+00 5.6811199082396859e+00 0.0000000000000000e+00  1.8657109983168556e+00 1.1088738667968467e+01 0.0000000000000000e+00  2.2338230060929440e+00 1.8644994423440370e+01 0.0000000000000000e+00  2.4280614748615066e+00 2.1628306689948886e+01 0.0000000000000000e+00  1.1539232054535962e+00 -3.3792574598978224e+00 0.0000000000000000e+00  2.5386068720274086e+00 2.3608369749753120e+01 0.0000000000000000e+00  2.2045921443157019e+00 1.8173710342889695e+01 0.0000000000000000e+00  1.7505913484164572e+00 9.1102091572258903e+00 0.0000000000000000e+00  1.6041698421614514e+00 6.3518052700162952e+00 0.0000000000000000e+00  2.7515225234420284e+00 2.8405059773290649e+01 0.0000000000000000e+00  1.8387304546539565e+00 1.0113445954098438e+01 0.0000000000000000e+00  1.3831036907172665e+00 2.2840835444671392e+00 0.0000000000000000e+00  2.5458542144605998e+00 2.4332536322176885e+01 0.0000000000000000e+00  2.1623700924309692e+00 1.7406207919496051e+01 0.0000000000000000e+00  1.6328446569112141e+00 7.8598017340657034e+00 0.0000000000000000e+00  1.5698412123347374e+00 5.0076198008547177e+00 0.0000000000000000e+00  3.1115991252347892e+00 3.4516691375310202e+01 0.0000000000000000e+00  1.2324185652065367e+00 -7.8395166359222213e-01 0.0000000000000000e+00  1.8854538760792807e+00 1.2510754610263003e+01 0.0000000000000000e+00  2.0354069302948732e+00 1.6324238295286154e+01 0.0000000000000000e+00  2.7461080293782842e+00 2.7314269032046646e+01 0.0000000000000000e+00  9.3350073249179510e-01 -6.8479534135916182e+00 0.0000000000000000e+00  2.1969864573563687e+00 1.7002247386797745e+01 0.0000000000000000e+00  2.6007519284656158e+00 2.6841334257172086e+01 0.0000000000000000e+00  1.6453670847286483e+00 7.7124778912189909e+00 0.0000000000000000e+00  1.4595619605820536e+00 5.1453880849775269e+00 0.0000000000000000e+00  2.2191728539416631e+00 1.9303999931215031e+01 0.0000000000000000e+00  2.8329653262855969e+00 2.7974725672516652e+01 0.0000000000000000e+00  7.3276203683687180e-01 -9.9252866544421963e+00 0.0000000000000000e+00  2.3307597937320179e+00 2.0194788108072608e+01 0.0000000000000000e+00  2.1688219906453190e+00 2.0531315246582018e+01 0.0000000000000000e+00  2.4438522722878417e+00 2.0670262163687276e+01 0.0000000000000000e+00  4.2582962978057104e-01 -1.1210738846850562e+01 0.0000000000000000e+00  3.7487634996939461e+00 2.3064780778672464e+01 0.0000000000000000e+00  3.3347284631084504e+00 -2.0708519124375552e+01 0.0000000000000000e+00  1.1465952476675021e+00 -6.2806246647519570e-01 0.0000000000000000e+00  3.5599365258698188e+00 3.3480961195636255e+01 0.0000000000000000e+00  2.9906925645713862e+00 -3.0325613015986292e+01 0.0000000000000000e+00  2.5963630206273676e+00 5.8995155190956527e+00 0.0000000000000000e+00  3.0643047091265179e+00 1.2302896123050674e+01 0.0000000000000000e+00  3.8086214184650422e+00 -4.9438232210123294e+00 0.0000000000000000e+00  1.6388263034439137e+00 -3.3015703436818788e-01 0.0000000000000000e+00  2.2700350702646275e+00 1.9434933744453264e+01 0.0000000000000000e+00  3.4540386468501882e+00 5.9839558874747789e+00 0.0000000000000000e+00  2.1933045919130598e+00 -1.9861872273554667e+01 0.0000000000000000e+00  3.1006180969905826e+00 2.8872459456570740e+00 0.0000000000000000e+00  4.0354462224642349e+00 6.9440933765445934e+00 0.0000000000000000e+00  1.9986621167318233e+00 -2.3912664478041439e+01 0.0000000000000000e+00  3.8086220088330842e+00 2.1788987149375036e+01 0.0000000000000000e+00  2.8866677049367682e+00 -1.7841032535003968e+01 0.0000000000000000e+00  8.6548870136692446e-01 9.4138577689544487e+00 0.0000000000000000e+00  4.2704513821211512e+00 8.0771273552779643e+00 0.0000000000000000e+00  2.9888039994793290e+00 -1.9684840505265633e+01 0.0000000000000000e+00  3.5440634825237161e-01 0.0000000000000000e+00 0.0000000000000000e+00  </DataArray> 
</PointData> 
</Piece>
</UnstructuredGrid>
</VTKFile>