<?xml version="1.0"?>
<VTKFile type="UnstructuredGrid"  version="0.1"  >
<UnstructuredGrid>
<Piece  NumberOfPoints="201" NumberOfCells="200">
<Points>
<DataArray  type="Float64"  NumberOfComponents="3"  format="ascii">-5 0 0  -4.95 0 0  -4.9 0 0  -4.85 0 0  -4.8 0 0  -4.75 0 0  -4.7 0 0  -4.65 0 0  -4.6 0 0  -4.55 0 0  -4.5 0 0  -4.45 0 0  -4.4 0 0  -4.35 0 0  -4.3 0 0  -4.25 0 0  -4.2 0 0  -4.15 0 0  -4.1 0 0  -4.05 0 0  -4 0 0  -3.95 0 0  -3.9 0 0  -3.85 0 0  -3.8 0 0  -3.75 0 0  -3.7 0 0  -3.65 0 0  -3.6 0 0  -3.55 0 0  -3.5 0 0  -3.45 0 0  -3.4 0 0  -3.35 0 0  -3.3 0 0  -3.25 0 0  -3.2 0 0  -3.15 0 0  -3.1 0 0  -3.05 0 0  -3 0 0  -2.95 0 0  -2.9 0 0  -2.85 0 0  -2.8 0 0  -2.75 0 0  -2.7 0 0  -2.65 0 0  -2.6 0 0  -2.55 0 0  -2.5 0 0  -2.45 0 0  -2.4 0 0  -2.35 0 0  -2.3 0 0  -2.25 0 0  -2.2 0 0  -2.15 0 0  -2.1 0 0  -2.05 0 0  -2 0 0  -1.95 0 0  -1.9 0 0  -1.85 0 0  -1.8 0 0  -1.75 0 0  -1.7 0 0  -1.65 0 0  -1.6 0 0  -1.55 0 0  -1.5 0 0  -1.45 0 0  -1.4 0 0  -1.35 0 0  -1.3 0 0  -1.25 0 0  -1.2 0 0  -1.15 0 0  -1.1 0 0  -1.05 0 0  -1 0 0  -0.9500000000000002 0 0  -0.9000000000000004 0 0  -0.8499999999999996 0 0  -0.7999999999999998 0 0  -0.75 0 0  -0.7000000000000002 0 0  -0.6500000000000004 0 0  -0.5999999999999996 0 0  -0.5499999999999998 0 0  -0.5 0 0  -0.4500000000000002 0 0  -0.4000000000000004 0 0  -0.3499999999999996 0 0  -0.2999999999999998 0 0  -0.25 0 0  -0.2000000000000002 0 0  -0.1500000000000004 0 0  -0.09999999999999964 0 0  -0.04999999999999982 0 0  0 0 0  0.04999999999999982 0 0  0.09999999999999964 0 0  0.1500000000000004 0 0  0.2000000000000002 0 0  0.25 0 0  0.2999999999999998 0 0  0.3499999999999996 0 0  0.4000000000000004 0 0  0.4500000000000002 0 0  0.5 0 0  0.5499999999999998 0 0  0.5999999999999996 0 0  0.6500000000000004 0 0  0.7000000000000002 0 0  0.75 0 0  0.7999999999999998 0 0  0.8499999999999996 0 0  0.9000000000000004 0 0  0.9500000000000002 0 0  1 0 0  1.05 0 0  1.1 0 0  1.15 0 0  1.2 0 0  1.25 0 0  1.3 0 0  1.35 0 0  1.4 0 0  1.45 0 0  1.5 0 0  1.55 0 0  1.6 0 0  1.65 0 0  1.7 0 0  1.75 0 0  1.8 0 0  1.85 0 0  1.9 0 0  1.95 0 0  2 0 0  2.05 0 0  2.1 0 0  2.15 0 0  2.2 0 0  2.25 0 0  2.3 0 0  2.35 0 0  2.4 0 0  2.45 0 0  2.5 0 0  2.55 0 0  2.6 0 0  2.65 0 0  2.7 0 0  2.75 0 0  2.8 0 0  2.85 0 0  2.9 0 0  2.95 0 0  3 0 0  3.050000000000001 0 0  3.1 0 0  3.15 0 0  3.199999999999999 0 0  3.25 0 0  3.300000000000001 0 0  3.35 0 0  3.4 0 0  3.449999999999999 0 0  3.5 0 0  3.550000000000001 0 0  3.6 0 0  3.65 0 0  3.699999999999999 0 0  3.75 0 0  3.800000000000001 0 0  3.85 0 0  3.9 0 0  3.949999999999999 0 0  4 0 0  4.050000000000001 0 0  4.1 0 0  4.15 0 0  4.199999999999999 0 0  4.25 0 0  4.300000000000001 0 0  4.35 0 0  4.4 0 0  4.449999999999999 0 0  4.5 0 0  4.550000000000001 0 0  4.6 0 0  4.65 0 0  4.699999999999999 0 0  4.75 0 0  4.800000000000001 0 0  4.85 0 0  4.9 0 0  4.949999999999999 0 0  5 0 0  </DataArray>
</Points>
<Cells>
<DataArray  type="UInt32"  Name="connectivity"  format="ascii">0 1  1 2  2 3  3 4  4 5  5 6  6 7  7 8  8 9  9 10  10 11  11 12  12 13  13 14  14 15  15 16  16 17  17 18  18 19  19 20  20 21  21 22  22 23  23 24  24 25  25 26  26 27  27 28  28 29  29 30  30 31  31 32  32 33  33 34  34 35  35 36  36 37  37 38  38 39  39 40  40 41  41 42  42 43  43 44  44 45  45 46  46 47  47 48  48 49  49 50  50 51  51 52  52 53  53 54  54 55  55 56  56 57  57 58  58 59  59 60  60 61  61 62  62 63  63 64  64 65  65 66  66 67  67 68  68 69  69 70  70 71  71 72  72 73  73 74  74 75  75 76  76 77  77 78  78 79  79 80  80 81  81 82  82 83  83 84  84 85  85 86  86 87  87 88  88 89  89 90  90 91  91 92  92 93  93 94  94 95  95 96  96 97  97 98  98 99  99 100  100 101  101 102  102 103  103 104  104 105  105 106  106 107  107 108  108 109  109 110  110 111  111 112  112 113  113 114  114 115  115 116  116 117  117 118  118 119  119 120  120 121  121 122  122 123  123 124  124 125  125 126  126 127  127 128  128 129  129 130  130 131  131 132  132 133  133 134  134 135  135 136  136 137  137 138  138 139  139 140  140 141  141 142  142 143  143 144  144 145  145 146  146 147  147 148  148 149  149 150  150 151  151 152  152 153  153 154  154 155  155 156  156 157  157 158  158 159  159 160  160 161  161 162  162 163  163 164  164 165  165 166  166 167  167 168  168 169  169 170  170 171  171 172  172 173  173 174  174 175  175 176  176 177  177 178  178 179  179 180  180 181  181 182  182 183  183 184  184 185  185 186  186 187  187 188  188 189  189 190  190 191  191 192  192 193  193 194  194 195  195 196  196 197  197 198  198 199  199 200  </DataArray>
<DataArray  type="UInt32"  Name="offsets"  format="ascii">2 4 6 8 10 12 14 16 18 20 22 24 26 28 30 32 34 36 38 40 42 44 46 48 50 52 54 56 58 60 62 64 66 68 70 72 74 76 78 80 82 84 86 88 90 92 94 96 98 100 102 104 106 108 110 112 114 116 118 120 122 124 126 128 130 132 134 136 138 140 142 144 146 148 150 152 154 156 158 160 162 164 166 168 170 172 174 176 178 180 182 184 186 188 190 192 194 196 198 200 202 204 206 208 210 212 214 216 218 220 222 224 226 228 230 232 234 236 238 240 242 244 246 248 250 252 254 256 258 260 262 264 266 268 270 272 274 276 278 280 282 284 286 288 290 292 294 296 298 300 302 304 306 308 310 312 314 316 318 320 322 324 326 328 330 332 334 336 338 340 342 344 346 348 350 352 354 356 358 360 362 364 366 368 370 372 374 376 378 380 382 384 386 388 390 392 394 396 398 400 </DataArray>
<DataArray  type="UInt8"  Name="types"  format="ascii">3 3 3 3 3 3 3 3 3 3 3 3 3 3 3 3 3 3 3 3 3 3 3 3 3 3 3 3 3 3 3 3 3 3 3 3 3 3 3 3 3 3 3 3 3 3 3 3 3 3 3 3 3 3 3 3 3 3 3 3 3 3 3 3 3 3 3 3 3 3 3 3 3 3 3 3 3 3 3 3 3 3 3 3 3 3 3 3 3 3 3 3 3 3 3 3 3 3 3 3 3 3 3 3 3 3 3 3 3 3 3 3 3 3 3 3 3 3 3 3 3 3 3 3 3 3 3 3 3 3 3 3 3 3 3 3 3 3 3 3 3 3 3 3 3 3 3 3 3 3 3 3 3 3 3 3 3 3 3 3 3 3 3 3 3 3 3 3 3 3 3 3 3 3 3 3 3 3 3 3 3 3 3 3 3 3 3 3 3 3 3 3 3 3 3 3 3 3 3 3 </DataArray>
</Cells>
<PointData  Vectors="(s, w)"> 
<DataArray  type="Float64"  Name="(s, w)"  NumberOfComponents="3" format="ascii">2.3633353092154921e+00 0.0000000000000000e+00 0.0000000000000000e+00  2.3687341917419400e+00 3.1787930783003265e-01 0.0000000000000000e+00  2.3526089005617146e+00 2.8690591858776499e-01 0.0000000000000000e+00  2.3742378127947634e+00 4.9812365483798599e-01 0.0000000000000000e+00  2.3598324026003890e+00 8.1393189185767323e-01 0.0000000000000000e+00  2.3650257119288640e+00 1.0122990573264643e+00 0.0000000000000000e+00  2.3560731847427161e+00 9.3090165725157548e-01 0.0000000000000000e+00  2.3770290899247994e+00 1.4056018891636564e+00 0.0000000000000000e+00  2.3525745934484807e+00 1.5252632755324982e+00 0.0000000000000000e+00  2.3669389007858634e+00 1.6623849698229485e+00 0.0000000000000000e+00  2.3611454437915826e+00 1.7193813076032203e+00 0.0000000000000000e+00  2.3728285079864526e+00 2.2500231414461380e+00 0.0000000000000000e+00  2.3488532379678668e+00 2.1562597663004230e+00 0.0000000000000000e+00  2.3715472060706517e+00 2.3580469210648780e+00 0.0000000000000000e+00  2.3638659907461581e+00 2.6337380716109564e+00 0.0000000000000000e+00  2.3598252198278638e+00 2.8880447948343066e+00 0.0000000000000000e+00  2.3580602268123259e+00 2.8899028159798812e+00 0.0000000000000000e+00  2.3687610330450566e+00 3.0605606994618237e+00 0.0000000000000000e+00  2.3667375024604471e+00 3.6073252898894803e+00 0.0000000000000000e+00  2.3427138160972669e+00 3.2789807779105296e+00 0.0000000000000000e+00  2.3842004048473990e+00 3.9207025290860784e+00 0.0000000000000000e+00  2.3450697533875942e+00 3.5902672601324963e+00 0.0000000000000000e+00  2.3795534110366532e+00 4.6636781045819706e+00 0.0000000000000000e+00  2.3245826245111236e+00 3.5131172144408174e+00 0.0000000000000000e+00  2.4174219149650940e+00 5.2541667779367138e+00 0.0000000000000000e+00  2.3003792724937182e+00 3.8098619992700100e+00 0.0000000000000000e+00  2.4126516834248335e+00 5.8539706707680619e+00 0.0000000000000000e+00  2.3032267974553076e+00 3.7191748796518027e+00 0.0000000000000000e+00  2.4396035587473888e+00 6.6330465553638689e+00 0.0000000000000000e+00  2.2598032178286598e+00 3.9276209894429508e+00 0.0000000000000000e+00  2.4539109347050885e+00 7.0537696201030098e+00 0.0000000000000000e+00  2.2796880552737644e+00 4.1112010918491615e+00 0.0000000000000000e+00  2.4361687846963518e+00 7.6378279803812026e+00 0.0000000000000000e+00  2.2619219123311671e+00 4.4998526947293085e+00 0.0000000000000000e+00  2.4609308712207252e+00 7.7775479173563991e+00 0.0000000000000000e+00  2.2780410704928418e+00 5.1139475058019395e+00 0.0000000000000000e+00  2.4002405704725476e+00 7.8702946344590528e+00 0.0000000000000000e+00  2.3230935204321090e+00 5.9933753315453213e+00 0.0000000000000000e+00  2.3935840203848380e+00 7.4778961260649153e+00 0.0000000000000000e+00  2.3369395402880477e+00 7.2048931436204215e+00 0.0000000000000000e+00  2.3236429673632211e+00 7.0826505649226670e+00 0.0000000000000000e+00  2.4305358607820877e+00 8.4580005486121657e+00 0.0000000000000000e+00  2.2591875690149883e+00 6.1136625799255127e+00 0.0000000000000000e+00  2.4584452638629828e+00 1.0252856172408706e+01 0.0000000000000000e+00  2.2126506442148322e+00 5.4965783012342140e+00 0.0000000000000000e+00  2.5445998768340257e+00 1.1317661632173587e+01 0.0000000000000000e+00  2.1292934187376744e+00 4.7416760131291484e+00 0.0000000000000000e+00  2.5717462935368975e+00 1.2993263398727606e+01 0.0000000000000000e+00  2.1206526852284409e+00 4.2230974263447880e+00 0.0000000000000000e+00  2.6047469774123742e+00 1.3411516554417751e+01 0.0000000000000000e+00  2.0873030548802949e+00 4.8741418303809629e+00 0.0000000000000000e+00  2.5835882142558653e+00 1.3856496862251705e+01 0.0000000000000000e+00  2.1341229544864624e+00 5.0422722214194824e+00 0.0000000000000000e+00  2.5463723841079600e+00 1.3405304314933643e+01 0.0000000000000000e+00  2.1738308639693438e+00 7.3131213346717114e+00 0.0000000000000000e+00  2.4570316128379859e+00 1.2141238297411439e+01 0.0000000000000000e+00  2.2931195635939710e+00 8.8185832670457565e+00 0.0000000000000000e+00  2.3554859571591842e+00 1.0827028680745386e+01 0.0000000000000000e+00  2.3594029240686423e+00 1.1608563168753031e+01 0.0000000000000000e+00  2.2518104793067124e+00 8.7952904472751801e+00 0.0000000000000000e+00  2.5116521581548952e+00 1.3823936560339796e+01 0.0000000000000000e+00  2.1294209337204730e+00 7.3437398753859569e+00 0.0000000000000000e+00  2.5377710436881613e+00 1.5791510534295844e+01 0.0000000000000000e+00  2.0938590395288519e+00 6.2671265822626427e+00 0.0000000000000000e+00  2.6246593514097705e+00 1.6856987014481138e+01 0.0000000000000000e+00  2.0266773145594437e+00 6.1461312253048312e+00 0.0000000000000000e+00  2.5757881903282396e+00 1.7291727260948218e+01 0.0000000000000000e+00  2.0920887212890968e+00 6.8368972694164798e+00 0.0000000000000000e+00  2.5366686339424533e+00 1.6046620630720245e+01 0.0000000000000000e+00  2.1250936414728874e+00 8.9583652153935613e+00 0.0000000000000000e+00  2.4140513989180854e+00 1.4930984185867608e+01 0.0000000000000000e+00  2.2517708005543771e+00 1.0707217525740699e+01 0.0000000000000000e+00  2.3044169649472921e+00 1.2302446435058693e+01 0.0000000000000000e+00  2.3303724949118876e+00 1.3842208807201231e+01 0.0000000000000000e+00  2.1630867251712829e+00 1.0722694468718064e+01 0.0000000000000000e+00  2.4352698841777056e+00 1.5064484222365436e+01 0.0000000000000000e+00  2.1112130422607884e+00 9.2588358865089369e+00 0.0000000000000000e+00  2.4307374461880960e+00 1.6560825728076878e+01 0.0000000000000000e+00  2.0467417076921208e+00 9.1503041542405406e+00 0.0000000000000000e+00  2.4472396639904073e+00 1.6004370314167094e+01 0.0000000000000000e+00  2.1246360968969187e+00 1.0321206995118660e+01 0.0000000000000000e+00  2.2947428389099245e+00 1.4664524650704447e+01 0.0000000000000000e+00  2.1759004500032413e+00 1.2454679594423904e+01 0.0000000000000000e+00  2.2347711406435953e+00 1.2529683458083829e+01 0.0000000000000000e+00  2.3102936250831623e+00 1.4817026474536256e+01 0.0000000000000000e+00  2.0349357444099816e+00 1.0292478765192389e+01 0.0000000000000000e+00  2.3941162240200318e+00 1.7293142922149826e+01 0.0000000000000000e+00  1.9908661756744930e+00 8.3490423452295666e+00 0.0000000000000000e+00  2.4332412108072821e+00 1.8173816841315510e+01 0.0000000000000000e+00  1.9160978276014131e+00 8.7620724052012413e+00 0.0000000000000000e+00  2.4168584674931890e+00 1.7894566718656296e+01 0.0000000000000000e+00  1.9977990842882989e+00 9.3877321697365019e+00 0.0000000000000000e+00  2.2747104627742769e+00 1.6362394133978029e+01 0.0000000000000000e+00  2.0734678783687048e+00 1.2235949476208670e+01 0.0000000000000000e+00  2.1800621740525310e+00 1.3252400936801601e+01 0.0000000000000000e+00  2.2409867886600501e+00 1.6033814554411904e+01 0.0000000000000000e+00  1.9064235218816328e+00 9.8909267727330068e+00 0.0000000000000000e+00  2.4391425995387546e+00 1.8637919812149260e+01 0.0000000000000000e+00  1.7758945824013930e+00 8.1359796149454429e+00 0.0000000000000000e+00  2.4417302219815888e+00 1.9764812596827820e+01 0.0000000000000000e+00  1.7277008098405839e+00 6.5912321905748357e+00 0.0000000000000000e+00  2.5428924293860855e+00 2.2264881915245663e+01 0.0000000000000000e+00  1.6787135180055444e+00 5.6379733595409238e+00 0.0000000000000000e+00  2.4223895906439590e+00 2.0217086719716260e+01 0.0000000000000000e+00  1.9171902334823265e+00 1.0456341096500163e+01 0.0000000000000000e+00  2.2042674515915452e+00 1.6006046055410749e+01 0.0000000000000000e+00  1.9806789705375247e+00 1.1711283498428179e+01 0.0000000000000000e+00  2.1855011257741821e+00 1.5743410604866526e+01 0.0000000000000000e+00  2.1297835246889312e+00 1.4709636584930889e+01 0.0000000000000000e+00  1.8513093118089525e+00 9.0064329712452267e+00 0.0000000000000000e+00  2.4936196907096515e+00 2.1870368439839382e+01 0.0000000000000000e+00  1.6947246555159672e+00 5.9375358153578119e+00 0.0000000000000000e+00  2.4175966488418208e+00 2.0487386463106208e+01 0.0000000000000000e+00  1.7783394056396105e+00 7.9133801053120276e+00 0.0000000000000000e+00  2.5275766467185790e+00 2.2464510565909336e+01 0.0000000000000000e+00  1.4913203426862589e+00 2.0509276759663044e+00 0.0000000000000000e+00  2.7001242428507530e+00 2.5640936764428446e+01 0.0000000000000000e+00  1.6447356733137821e+00 5.1029996933135644e+00 0.0000000000000000e+00  2.3058195988497405e+00 1.8544034338573180e+01 0.0000000000000000e+00  1.9176133139932385e+00 1.0682263791534815e+01 0.0000000000000000e+00  2.3552641820178497e+00 1.9485062270219771e+01 0.0000000000000000e+00  1.7395802810790160e+00 7.1849105506733713e+00 0.0000000000000000e+00  2.2545460620950033e+00 1.7199146956360021e+01 0.0000000000000000e+00  2.2712434484821875e+00 1.7818286480861843e+01 0.0000000000000000e+00  1.6576699902724350e+00 5.4208166734144596e+00 0.0000000000000000e+00  2.4379025976299058e+00 2.1151735271551239e+01 0.0000000000000000e+00  1.8859529013748992e+00 1.0675924184633748e+01 0.0000000000000000e+00  2.3003385670093115e+00 1.8432028988493087e+01 0.0000000000000000e+00  1.5043342348117190e+00 2.9375454226932116e+00 0.0000000000000000e+00  2.9260331937616453e+00 2.9778512789567781e+01 0.0000000000000000e+00  1.3249156562116933e+00 -1.1687384516652877e+00 0.0000000000000000e+00  2.3995655050909277e+00 2.0871467678880276e+01 0.0000000000000000e+00  1.9728659588279032e+00 1.2247481865380349e+01 0.0000000000000000e+00  2.3285430045443301e+00 1.9542911985962704e+01 0.0000000000000000e+00  1.5041853403401666e+00 3.1922784109259124e+00 0.0000000000000000e+00  2.5223264171852171e+00 2.2337845276170469e+01 0.0000000000000000e+00  2.1387973362273929e+00 1.5852035658874319e+01 0.0000000000000000e+00  1.5650075816558500e+00 3.9181012409847362e+00 0.0000000000000000e+00  2.4548173738308909e+00 2.1666179376550680e+01 0.0000000000000000e+00  2.0034574707864925e+00 1.4006976834818564e+01 0.0000000000000000e+00  2.0350897532572900e+00 1.3511989806509154e+01 0.0000000000000000e+00  1.6206445386495265e+00 5.7535773847610212e+00 0.0000000000000000e+00  2.8355019847473040e+00 2.9024782412772243e+01 0.0000000000000000e+00  1.4961283322601009e+00 2.1522477072725796e+00 0.0000000000000000e+00  2.0139784704160406e+00 1.4146488530131412e+01 0.0000000000000000e+00  2.3323517284259609e+00 1.9737478662410044e+01 0.0000000000000000e+00  2.1063401735691105e+00 1.5092452170411995e+01 0.0000000000000000e+00  1.5981064369292455e+00 6.4804026489850610e+00 0.0000000000000000e+00  2.2276428530051149e+00 1.7038448612104329e+01 0.0000000000000000e+00  2.5572657684782603e+00 2.3675802866256415e+01 0.0000000000000000e+00  1.1691646356707055e+00 -2.7812045401035133e+00 0.0000000000000000e+00  2.5011731563359763e+00 2.2077667040410937e+01 0.0000000000000000e+00  2.0519159080913445e+00 1.5893252867938948e+01 0.0000000000000000e+00  2.0854199630762911e+00 1.5350661874538917e+01 0.0000000000000000e+00  1.4001795967835713e+00 9.4863602966081595e-01 0.0000000000000000e+00  2.8006970655818257e+00 2.9400841403840900e+01 0.0000000000000000e+00  1.9080373860988527e+00 1.0525231208501124e+01 0.0000000000000000e+00  1.4875947983566566e+00 3.0225061722049573e+00 0.0000000000000000e+00  2.5555069868905278e+00 2.5107311641568046e+01 0.0000000000000000e+00  2.0259764772141478e+00 1.4347893182622181e+01 0.0000000000000000e+00  1.8446844419617305e+00 1.1681761530678491e+01 0.0000000000000000e+00  1.4768990251739562e+00 3.7112401494532352e+00 0.0000000000000000e+00  3.1202685595902095e+00 3.3303029980023794e+01 0.0000000000000000e+00  1.2537181392962240e+00 -7.2111575358852309e-01 0.0000000000000000e+00  1.8621948514075291e+00 1.1001284277890171e+01 0.0000000000000000e+00  2.4706558531088190e+00 2.3151813962639505e+01 0.0000000000000000e+00  2.0472658933051027e+00 1.5927066301763148e+01 0.0000000000000000e+00  1.5621154764384466e+00 6.1029063219306741e+00 0.0000000000000000e+00  1.8655353989318544e+00 1.0235835584637339e+01 0.0000000000000000e+00  3.0998191633222167e+00 3.3142362334016845e+01 0.0000000000000000e+00  2.5365276979647291e+00 -3.6686777882811512e+01 0.0000000000000000e+00  3.5547865319218013e+00 1.4203409174896910e+01 0.0000000000000000e+00  2.1340157858825446e+00 2.5557675708775999e+01 0.0000000000000000e+00  1.3273876801110025e+00 -1.6569076161647676e+01 0.0000000000000000e+00  2.7021405753515770e+00 3.2038616188890977e+01 0.0000000000000000e+00  3.7137999381557307e+00 -5.7034841948893895e+00 0.0000000000000000e+00  2.0982592636389676e+00 -7.0559135173682366e+00 0.0000000000000000e+00  3.8050613956753421e+00 -5.0082732588897514e+00 0.0000000000000000e+00  3.3707463043771453e+00 3.9953178505592830e+00 0.0000000000000000e+00  2.5549503098346671e+00 -2.1645048264348308e+01 0.0000000000000000e+00  4.3000747115961744e+00 5.3480222780913786e+00 0.0000000000000000e+00  3.9516238279681520e-01 2.3642875460025831e+01 0.0000000000000000e+00  2.4110531477119430e+00 -1.8681717904975159e+00 0.0000000000000000e+00  4.1105026579442638e+00 4.5316861519477269e+00 0.0000000000000000e+00  2.2498227005737945e+00 9.8652354075091289e+00 0.0000000000000000e+00  3.7571061433734583e+00 -1.8813555815824706e+01 0.0000000000000000e+00  3.6952745712589810e+00 8.8019615418786152e+00 0.0000000000000000e+00  1.2671962467604581e-01 4.0474065402339265e+00 0.0000000000000000e+00  2.3307397844953397e+00 -1.0630842687617436e+01 0.0000000000000000e+00  4.0059545532065517e+00 1.9962650329896668e+01 0.0000000000000000e+00  1.8953218332168538e+00 -5.9324990966422062e+00 0.0000000000000000e+00  3.4994605701096306e+00 -7.6750617877786376e-01 0.0000000000000000e+00  3.2802612760072338e+00 2.4446849750924073e+01 0.0000000000000000e+00  2.0466689982198183e+00 -2.1994055948854051e+01 0.0000000000000000e+00  4.0802498631192909e+00 3.1200981946051248e-01 0.0000000000000000e+00  2.6387456325391678e+00 1.0897745385695185e+01 0.0000000000000000e+00  1.4622489666982252e+00 -8.7455067780918920e+00 0.0000000000000000e+00  4.2733879365978593e+00 -6.5826342085111178e-01 0.0000000000000000e+00  2.0639914166347268e+00 1.3036893747717532e+01 0.0000000000000000e+00  2.3345053830598852e+00 -1.0394492341923296e+01 0.0000000000000000e+00  4.3996002561035121e+00 0.0000000000000000e+00 0.0000000000000000e+00  </DataArray> 
</PointData> 
</Piece>
</UnstructuredGrid>
</VTKFile>