<?xml version="1.0"?>
<VTKFile type="UnstructuredGrid"  version="0.1"  >
<UnstructuredGrid>
<Piece  NumberOfPoints="201" NumberOfCells="200">
<Points>
<DataArray  type="Float64"  NumberOfComponents="3"  format="ascii">-5 0 0  -4.95 0 0  -4.9 0 0  -4.85 0 0  -4.8 0 0  -4.75 0 0  -4.7 0 0  -4.65 0 0  -4.6 0 0  -4.55 0 0  -4.5 0 0  -4.45 0 0  -4.4 0 0  -4.35 0 0  -4.3 0 0  -4.25 0 0  -4.2 0 0  -4.15 0 0  -4.1 0 0  -4.05 0 0  -4 0 0  -3.95 0 0  -3.9 0 0  -3.85 0 0  -3.8 0 0  -3.75 0 0  -3.7 0 0  -3.65 0 0  -3.6 0 0  -3.55 0 0  -3.5 0 0  -3.45 0 0  -3.4 0 0  -3.35 0 0  -3.3 0 0  -3.25 0 0  -3.2 0 0  -3.15 0 0  -3.1 0 0  -3.05 0 0  -3 0 0  -2.95 0 0  -2.9 0 0  -2.85 0 0  -2.8 0 0  -2.75 0 0  -2.7 0 0  -2.65 0 0  -2.6 0 0  -2.55 0 0  -2.5 0 0  -2.45 0 0  -2.4 0 0  -2.35 0 0  -2.3 0 0  -2.25 0 0  -2.2 0 0  -2.15 0 0  -2.1 0 0  -2.05 0 0  -2 0 0  -1.95 0 0  -1.9 0 0  -1.85 0 0  -1.8 0 0  -1.75 0 0  -1.7 0 0  -1.65 0 0  -1.6 0 0  -1.55 0 0  -1.5 0 0  -1.45 0 0  -1.4 0 0  -1.35 0 0  -1.3 0 0  -1.25 0 0  -1.2 0 0  -1.15 0 0  -1.1 0 0  -1.05 0 0  -1 0 0  -0.9500000000000002 0 0  -0.9000000000000004 0 0  -0.8499999999999996 0 0  -0.7999999999999998 0 0  -0.75 0 0  -0.7000000000000002 0 0  -0.6500000000000004 0 0  -0.5999999999999996 0 0  -0.5499999999999998 0 0  -0.5 0 0  -0.4500000000000002 0 0  -0.4000000000000004 0 0  -0.3499999999999996 0 0  -0.2999999999999998 0 0  -0.25 0 0  -0.2000000000000002 0 0  -0.1500000000000004 0 0  -0.09999999999999964 0 0  -0.04999999999999982 0 0  0 0 0  0.04999999999999982 0 0  0.09999999999999964 0 0  0.1500000000000004 0 0  0.2000000000000002 0 0  0.25 0 0  0.2999999999999998 0 0  0.3499999999999996 0 0  0.4000000000000004 0 0  0.4500000000000002 0 0  0.5 0 0  0.5499999999999998 0 0  0.5999999999999996 0 0  0.6500000000000004 0 0  0.7000000000000002 0 0  0.75 0 0  0.7999999999999998 0 0  0.8499999999999996 0 0  0.9000000000000004 0 0  0.9500000000000002 0 0  1 0 0  1.05 0 0  1.1 0 0  1.15 0 0  1.2 0 0  1.25 0 0  1.3 0 0  1.35 0 0  1.4 0 0  1.45 0 0  1.5 0 0  1.55 0 0  1.6 0 0  1.65 0 0  1.7 0 0  1.75 0 0  1.8 0 0  1.85 0 0  1.9 0 0  1.95 0 0  2 0 0  2.05 0 0  2.1 0 0  2.15 0 0  2.2 0 0  2.25 0 0  2.3 0 0  2.35 0 0  2.4 0 0  2.45 0 0  2.5 0 0  2.55 0 0  2.6 0 0  2.65 0 0  2.7 0 0  2.75 0 0  2.8 0 0  2.85 0 0  2.9 0 0  2.95 0 0  3 0 0  3.050000000000001 0 0  3.1 0 0  3.15 0 0  3.199999999999999 0 0  3.25 0 0  3.300000000000001 0 0  3.35 0 0  3.4 0 0  3.449999999999999 0 0  3.5 0 0  3.550000000000001 0 0  3.6 0 0  3.65 0 0  3.699999999999999 0 0  3.75 0 0  3.800000000000001 0 0  3.85 0 0  3.9 0 0  3.949999999999999 0 0  4 0 0  4.050000000000001 0 0  4.1 0 0  4.15 0 0  4.199999999999999 0 0  4.25 0 0  4.300000000000001 0 0  4.35 0 0  4.4 0 0  4.449999999999999 0 0  4.5 0 0  4.550000000000001 0 0  4.6 0 0  4.65 0 0  4.699999999999999 0 0  4.75 0 0  4.800000000000001 0 0  4.85 0 0  4.9 0 0  4.949999999999999 0 0  5 0 0  </DataArray>
</Points>
<Cells>
<DataArray  type="UInt32"  Name="connectivity"  format="ascii">0 1  1 2  2 3  3 4  4 5  5 6  6 7  7 8  8 9  9 10  10 11  11 12  12 13  13 14  14 15  15 16  16 17  17 18  18 19  19 20  20 21  21 22  22 23  23 24  24 25  25 26  26 27  27 28  28 29  29 30  30 31  31 32  32 33  33 34  34 35  35 36  36 37  37 38  38 39  39 40  40 41  41 42  42 43  43 44  44 45  45 46  46 47  47 48  48 49  49 50  50 51  51 52  52 53  53 54  54 55  55 56  56 57  57 58  58 59  59 60  60 61  61 62  62 63  63 64  64 65  65 66  66 67  67 68  68 69  69 70  70 71  71 72  72 73  73 74  74 75  75 76  76 77  77 78  78 79  79 80  80 81  81 82  82 83  83 84  84 85  85 86  86 87  87 88  88 89  89 90  90 91  91 92  92 93  93 94  94 95  95 96  96 97  97 98  98 99  99 100  100 101  101 102  102 103  103 104  104 105  105 106  106 107  107 108  108 109  109 110  110 111  111 112  112 113  113 114  114 115  115 116  116 117  117 118  118 119  119 120  120 121  121 122  122 123  123 124  124 125  125 126  126 127  127 128  128 129  129 130  130 131  131 132  132 133  133 134  134 135  135 136  136 137  137 138  138 139  139 140  140 141  141 142  142 143  143 144  144 145  145 146  146 147  147 148  148 149  149 150  150 151  151 152  152 153  153 154  154 155  155 156  156 157  157 158  158 159  159 160  160 161  161 162  162 163  163 164  164 165  165 166  166 167  167 168  168 169  169 170  170 171  171 172  172 173  173 174  174 175  175 176  176 177  177 178  178 179  179 180  180 181  181 182  182 183  183 184  184 185  185 186  186 187  187 188  188 189  189 190  190 191  191 192  192 193  193 194  194 195  195 196  196 197  197 198  198 199  199 200  </DataArray>
<DataArray  type="UInt32"  Name="offsets"  format="ascii">2 4 6 8 10 12 14 16 18 20 22 24 26 28 30 32 34 36 38 40 42 44 46 48 50 52 54 56 58 60 62 64 66 68 70 72 74 76 78 80 82 84 86 88 90 92 94 96 98 100 102 104 106 108 110 112 114 116 118 120 122 124 126 128 130 132 134 136 138 140 142 144 146 148 150 152 154 156 158 160 162 164 166 168 170 172 174 176 178 180 182 184 186 188 190 192 194 196 198 200 202 204 206 208 210 212 214 216 218 220 222 224 226 228 230 232 234 236 238 240 242 244 246 248 250 252 254 256 258 260 262 264 266 268 270 272 274 276 278 280 282 284 286 288 290 292 294 296 298 300 302 304 306 308 310 312 314 316 318 320 322 324 326 328 330 332 334 336 338 340 342 344 346 348 350 352 354 356 358 360 362 364 366 368 370 372 374 376 378 380 382 384 386 388 390 392 394 396 398 400 </DataArray>
<DataArray  type="UInt8"  Name="types"  format="ascii">3 3 3 3 3 3 3 3 3 3 3 3 3 3 3 3 3 3 3 3 3 3 3 3 3 3 3 3 3 3 3 3 3 3 3 3 3 3 3 3 3 3 3 3 3 3 3 3 3 3 3 3 3 3 3 3 3 3 3 3 3 3 3 3 3 3 3 3 3 3 3 3 3 3 3 3 3 3 3 3 3 3 3 3 3 3 3 3 3 3 3 3 3 3 3 3 3 3 3 3 3 3 3 3 3 3 3 3 3 3 3 3 3 3 3 3 3 3 3 3 3 3 3 3 3 3 3 3 3 3 3 3 3 3 3 3 3 3 3 3 3 3 3 3 3 3 3 3 3 3 3 3 3 3 3 3 3 3 3 3 3 3 3 3 3 3 3 3 3 3 3 3 3 3 3 3 3 3 3 3 3 3 3 3 3 3 3 3 3 3 3 3 3 3 3 3 3 3 3 3 </DataArray>
</Cells>
<PointData  Vectors="(s, w)"> 
<DataArray  type="Float64"  Name="(s, w)"  NumberOfComponents="3" format="ascii">2.1113771260162704e+00 0.0000000000000000e+00 0.0000000000000000e+00  2.1175520121968776e+00 1.3392914918210033e-01 0.0000000000000000e+00  2.1113477503894584e+00 2.6981176137427398e-01 0.0000000000000000e+00  2.1175097587771412e+00 4.0176555403563580e-01 0.0000000000000000e+00  2.1112594683976953e+00 5.3960512667553628e-01 0.0000000000000000e+00  2.1174254383643123e+00 6.6953596986014108e-01 0.0000000000000000e+00  2.1111118130753388e+00 8.0936213167476090e-01 0.0000000000000000e+00  2.1172994264314609e+00 9.3719540728996931e-01 0.0000000000000000e+00  2.1109040022592302e+00 1.0790656109449397e+00 0.0000000000000000e+00  2.1171322895458720e+00 1.2046974992111803e+00 0.0000000000000000e+00  2.1106349383714424e+00 1.3486994217844896e+00 0.0000000000000000e+00  2.1169247801141191e+00 1.4719942075061787e+00 0.0000000000000000e+00  2.1103032199530762e+00 1.6182484208979842e+00 0.0000000000000000e+00  2.1166778129525707e+00 1.7390358409888564e+00 0.0000000000000000e+00  2.1099071780333625e+00 1.8876980525348397e+00 0.0000000000000000e+00  2.1163924080288417e+00 2.0057715454469736e+00 0.0000000000000000e+00  2.1094449554189723e+00 2.1570333633398833e+00 0.0000000000000000e+00  2.1160695786482679e+00 2.2721504691642895e+00 0.0000000000000000e+00  2.1089146518949287e+00 2.4262372191724761e+00 0.0000000000000000e+00  2.1157101399721130e+00 2.5381238384805269e+00 0.0000000000000000e+00  2.1083145617556829e+00 2.6952874798909021e+00 0.0000000000000000e+00  2.1153144108837303e+00 2.8036481759601597e+00 0.0000000000000000e+00  2.1076435296827305e+00 2.9641529159481106e+00 0.0000000000000000e+00  2.1148817857137825e+00 3.0686898274778120e+00 0.0000000000000000e+00  2.1069014433828515e+00 3.2327877604318767e+00 0.0000000000000000e+00  2.1144101649660954e+00 3.3332307963234276e+00 0.0000000000000000e+00  2.1060898625113813e+00 3.5011250203755093e+00 0.0000000000000000e+00  2.1138952600775354e+00 3.5972755761455968e+00 0.0000000000000000e+00  2.1052127493317538e+00 3.7690690527783302e+00 0.0000000000000000e+00  2.1133298296047820e+00 3.8608582109417999e+00 0.0000000000000000e+00  2.1042772153236560e+00 4.0364884487064456e+00 0.0000000000000000e+00  2.1127029632226146e+00 4.1240482098670537e+00 0.0000000000000000e+00  2.1032941320455043e+00 4.3032109165678278e+00 0.0000000000000000e+00  2.1119995998255341e+00 4.3869532946328267e+00 0.0000000000000000e+00  2.1022783840119854e+00 4.5690224882833981e+00 0.0000000000000000e+00  2.1112005323108449e+00 4.6497164342454447e+00 0.0000000000000000e+00  2.1012484862729806e+00 4.8336737685995557e+00 0.0000000000000000e+00  2.1102831891857003e+00 4.9125044946219889e+00 0.0000000000000000e+00  2.1002252802849077e+00 5.0968957995285837e+00 0.0000000000000000e+00  2.1092234577385272e+00 5.1754864246667562e+00 0.0000000000000000e+00  2.0992294952687205e+00 5.3584270778849961e+00 0.0000000000000000e+00  2.1079986886198565e+00 5.4388005065698870e+00 0.0000000000000000e+00  2.0982781507154074e+00 5.6180510897423064e+00 0.0000000000000000e+00  2.1065917723729131e+00 5.7025129236681762e+00 0.0000000000000000e+00  2.0973800889041723e+00 5.8756404242384024e+00 0.0000000000000000e+00  2.1049958116398959e+00 5.9665734875227576e+00 0.0000000000000000e+00  2.0965313303235331e+00 6.1311995836259365e+00 0.0000000000000000e+00  2.1032184886959211e+00 6.2307780501370038e+00 0.0000000000000000e+00  2.0957113450480138e+00 6.3848951036155563e+00 0.0000000000000000e+00  2.1012848726168389e+00 6.4947496174859918e+00 0.0000000000000000e+00  2.0948815744198086e+00 6.6370601544446233e+00 0.0000000000000000e+00  2.0992373038710035e+00 6.7579498882151050e+00 0.0000000000000000e+00  2.0939874359355630e+00 6.8881631389007714e+00 0.0000000000000000e+00  2.0971313211077240e+00 7.0197285017781130e+00 0.0000000000000000e+00  2.0929644562453276e+00 7.1387369925041764e+00 0.0000000000000000e+00  2.0950274546188790e+00 7.2794083245047245e+00 0.0000000000000000e+00  2.0917480949800713e+00 7.3892773291244831e+00 0.0000000000000000e+00  2.0929800088723187e+00 7.5363930560193371e+00 0.0000000000000000e+00  2.0902854620711051e+00 7.6401303458529934e+00 0.0000000000000000e+00  2.0910253332056508e+00 7.7902719129168911e+00 0.0000000000000000e+00  2.0885459541075821e+00 7.8914005332326509e+00 0.0000000000000000e+00  2.0891729535871852e+00 8.0408903425133254e+00 0.0000000000000000e+00  2.0865274366399862e+00 8.1429083640009043e+00 0.0000000000000000e+00  2.0874027161416464e+00 8.2883604506844151e+00 0.0000000000000000e+00  2.0842554485644227e+00 8.3942162793056294e+00 0.0000000000000000e+00  2.0856695116873643e+00 8.5330015166491542e+00 0.0000000000000000e+00  2.0817750100268140e+00 8.6447195439085540e+00 0.0000000000000000e+00  2.0839145784274975e+00 8.7752251658858320e+00 0.0000000000000000e+00  2.0791373087946896e+00 8.8937747583003688e+00 0.0000000000000000e+00  2.0820798337261639e+00 9.0154014896431036e+00 0.0000000000000000e+00  2.0763856236483060e+00 9.1408239109900435e+00 0.0000000000000000e+00  2.0801204288475827e+00 9.2537503722144319e+00 0.0000000000000000e+00  2.0735452037020945e+00 9.3854738821600847e+00 0.0000000000000000e+00  2.0780115673438386e+00 9.4902906537259319e+00 0.0000000000000000e+00  2.0706201492933571e+00 9.6275101820672706e+00 0.0000000000000000e+00  2.0757481173661421e+00 9.7248548396825854e+00 0.0000000000000000e+00  2.0675971705920437e+00 9.8668524665956792e+00 0.0000000000000000e+00  2.0733378858667475e+00 9.9571559648676349e+00 0.0000000000000000e+00  2.0644534121323721e+00 1.0103480491499305e+01 0.0000000000000000e+00  2.0707918160393390e+00 1.0186874504271357e+01 0.0000000000000000e+00  2.0611680006709330e+00 1.0337336568494900e+01 0.0000000000000000e+00  2.0681188731717466e+00 1.0413701173019700e+01 0.0000000000000000e+00  2.0577406867996229e+00 1.0568181947804632e+01 0.0000000000000000e+00  2.0653178954590947e+00 1.0637400469904239e+01 0.0000000000000000e+00  2.0541644734458990e+00 1.0795820113341669e+01 0.0000000000000000e+00  2.0622744114599456e+00 1.0858591241279516e+01 0.0000000000000000e+00  2.0504238459842368e+00 1.1020097301367347e+01 0.0000000000000000e+00  2.0591468089566307e+00 1.1075777087707555e+01 0.0000000000000000e+00  2.0472968035538819e+00 1.1235000900874217e+01 0.0000000000000000e+00  2.0557534381152252e+00 1.1290092859516133e+01 0.0000000000000000e+00  2.0426052445021421e+00 1.1456316656620656e+01 0.0000000000000000e+00  2.0497624537007297e+00 1.1517918769040481e+01 0.0000000000000000e+00  2.0441150644544583e+00 1.1627791208949807e+01 0.0000000000000000e+00  2.0510864100158415e+00 1.1688164760104389e+01 0.0000000000000000e+00  2.0348962490960960e+00 1.1870393346499284e+01 0.0000000000000000e+00  2.0280480830903391e+00 1.2021852101063262e+01 0.0000000000000000e+00  2.0490348635987790e+00 1.1944515149647616e+01 0.0000000000000000e+00  2.0449450677367844e+00 1.2074633496964303e+01 0.0000000000000000e+00  1.9886430277152924e+00 1.2514259257772089e+01 0.0000000000000000e+00  2.0509998985134597e+00 1.2196069521374294e+01 0.0000000000000000e+00  2.0121108979062678e+00 1.2521623415470685e+01 0.0000000000000000e+00  2.0264549895152508e+00 1.2515289158078051e+01 0.0000000000000000e+00  2.0194024314507670e+00 1.2628388772622756e+01 0.0000000000000000e+00  2.0181950371919579e+00 1.2718994651459905e+01 0.0000000000000000e+00  2.0145835041705458e+00 1.2806401651201639e+01 0.0000000000000000e+00  2.0125034780808031e+00 1.2898769872220809e+01 0.0000000000000000e+00  2.0088176090365573e+00 1.2982988040225676e+01 0.0000000000000000e+00  2.0068304397871661e+00 1.3070891687827851e+01 0.0000000000000000e+00  2.0029214509079831e+00 1.3152719375544743e+01 0.0000000000000000e+00  2.0006388466217100e+00 1.3238391164315875e+01 0.0000000000000000e+00  1.9970425038458963e+00 1.3314508832618337e+01 0.0000000000000000e+00  1.9940813133703605e+00 1.3400060820022173e+01 0.0000000000000000e+00  1.9907465681206813e+00 1.3470717704076709e+01 0.0000000000000000e+00  1.9875725392388011e+00 1.3553295330109187e+01 0.0000000000000000e+00  1.9839180507856482e+00 1.3621770947836790e+01 0.0000000000000000e+00  1.9808238028196650e+00 1.3699611094679701e+01 0.0000000000000000e+00  1.9769745282521740e+00 1.3765156356325750e+01 0.0000000000000000e+00  1.9736328857131524e+00 1.3839983104125933e+01 0.0000000000000000e+00  1.9697744116114237e+00 1.3901571093917866e+01 0.0000000000000000e+00  1.9662629481437524e+00 1.3972893172320605e+01 0.0000000000000000e+00  1.9622216361123290e+00 1.4031460209615229e+01 0.0000000000000000e+00  1.9586038168619619e+00 1.4098920773828510e+01 0.0000000000000000e+00  1.9544547586782046e+00 1.4154061757991187e+01 0.0000000000000000e+00  1.9506649428971423e+00 1.4218092246095285e+01 0.0000000000000000e+00  1.9463926846405593e+00 1.4269765491249766e+01 0.0000000000000000e+00  1.9424992297177772e+00 1.4330334578616727e+01 0.0000000000000000e+00  1.9380830082205607e+00 1.4378296429753583e+01 0.0000000000000000e+00  1.9340963859015954e+00 1.4436031719666216e+01 0.0000000000000000e+00  1.9295205707098804e+00 1.4479609098577923e+01 0.0000000000000000e+00  1.9255221615098370e+00 1.4535354559481492e+01 0.0000000000000000e+00  1.9207293487980295e+00 1.4573498430751515e+01 0.0000000000000000e+00  1.9168217913314523e+00 1.4628694121077460e+01 0.0000000000000000e+00  1.9117504007180384e+00 1.4659742386079373e+01 0.0000000000000000e+00  1.9081205670101711e+00 1.4716079834191337e+01 0.0000000000000000e+00  1.9027418420538820e+00 1.4737902568443053e+01 0.0000000000000000e+00  1.8996018735303442e+00 1.4797010391876928e+01 0.0000000000000000e+00  1.8942933568539193e+00 1.4806542235245795e+01 0.0000000000000000e+00  1.8926643298069281e+00 1.4865285770862522e+01 0.0000000000000000e+00  1.8884596547729002e+00 1.4860134024055917e+01 0.0000000000000000e+00  1.8934590399548306e+00 1.4894581981310015e+01 0.0000000000000000e+00  1.9028325266991561e+00 1.4833894405892917e+01 0.0000000000000000e+00  1.9177720939929517e+00 1.4813323538100278e+01 0.0000000000000000e+00  1.9246860756931241e+00 1.4782915562815733e+01 0.0000000000000000e+00  1.9286239095879001e+00 1.4761127113691851e+01 0.0000000000000000e+00  1.9316109378032384e+00 1.4819509036053121e+01 0.0000000000000000e+00  1.9289083371180922e+00 1.4713845091262467e+01 0.0000000000000000e+00  1.9370650274206913e+00 1.4906755776783987e+01 0.0000000000000000e+00  1.9256831608700389e+00 1.4620332729778790e+01 0.0000000000000000e+00  1.9446766525997019e+00 1.5049210765151582e+01 0.0000000000000000e+00  1.9190729757882732e+00 1.4462778375240015e+01 0.0000000000000000e+00  1.9549326119948682e+00 1.5253910434411237e+01 0.0000000000000000e+00  1.9098539371964562e+00 1.4242281432070291e+01 0.0000000000000000e+00  1.9661438210116271e+00 1.5500124773222245e+01 0.0000000000000000e+00  1.9012642397999464e+00 1.4007524866813986e+01 0.0000000000000000e+00  1.9769112339105819e+00 1.5681074556650767e+01 0.0000000000000000e+00  1.8822354740423632e+00 1.3984868090928943e+01 0.0000000000000000e+00  2.0767178905832564e+00 1.5066529099469127e+01 0.0000000000000000e+00  3.1416852670434881e+00 -1.1522179340706686e+00 0.0000000000000000e+00  2.9813210321293959e+00 1.3103381123489288e+00 0.0000000000000000e+00  3.0539139659186367e+00 -6.5682579189651910e-02 0.0000000000000000e+00  3.0759741765840896e+00 -4.6882760252887506e-01 0.0000000000000000e+00  3.0164460868334770e+00 7.0597173712216243e-01 0.0000000000000000e+00  3.0893182212059682e+00 -6.9296211589780765e-01 0.0000000000000000e+00  3.0235455184542186e+00 5.8979619734925193e-01 0.0000000000000000e+00  3.0754746969682807e+00 -4.1816372294362014e-01 0.0000000000000000e+00  3.0403963029344272e+00 2.7221869651502845e-01 0.0000000000000000e+00  3.0608635609318013e+00 -1.3595544010712857e-01 0.0000000000000000e+00  3.0519837591980203e+00 5.2692896843116316e-02 0.0000000000000000e+00  3.0532409473041331e+00 1.2071837335414727e-02 0.0000000000000000e+00  3.0565238937173569e+00 -3.2233574402416539e-02 0.0000000000000000e+00  3.0513500125822994e+00 5.0057629026247004e-02 0.0000000000000000e+00  3.0568861783706982e+00 -3.7915642851642867e-02 0.0000000000000000e+00  3.0520247522161044e+00 3.8251682091791653e-02 0.0000000000000000e+00  3.0559014959724156e+00 -1.8436686037354828e-02 0.0000000000000000e+00  3.0531145571626981e+00 1.8049977067244420e-02 0.0000000000000000e+00  3.0550235122071885e+00 -1.3372481972260476e-03 0.0000000000000000e+00  3.0538021549247176e+00 5.2600719138434799e-03 0.0000000000000000e+00  3.0546084397378306e+00 6.6640615461838288e-03 0.0000000000000000e+00  3.0540465731846380e+00 7.2785582224396640e-04 0.0000000000000000e+00  3.0545296810585709e+00 8.0467562113897256e-03 0.0000000000000000e+00  3.0540490558817925e+00 6.6265893874232638e-04 0.0000000000000000e+00  3.0545860138246095e+00 6.7108850105142967e-03 0.0000000000000000e+00  3.0539825121435218e+00 1.7969702837586335e-03 0.0000000000000000e+00  3.0546531396873990e+00 5.0645661785390234e-03 0.0000000000000000e+00  3.0539283753052251e+00 2.5990781573584495e-03 0.0000000000000000e+00  3.0546895669674785e+00 3.9253248479412372e-03 0.0000000000000000e+00  3.0539030609827069e+00 2.7771879106779128e-03 0.0000000000000000e+00  3.0546979156736804e+00 3.2630350155868964e-03 0.0000000000000000e+00  3.0538968524278918e+00 2.5348146109885695e-03 0.0000000000000000e+00  3.0546923795705547e+00 2.8222604599156403e-03 0.0000000000000000e+00  3.0538975870496352e+00 2.1194216913485676e-03 0.0000000000000000e+00  3.0546838112987946e+00 2.4096970704159961e-03 0.0000000000000000e+00  3.0538985245682442e+00 1.6733068848932297e-03 0.0000000000000000e+00  3.0546770205662530e+00 1.9459246008450958e-03 0.0000000000000000e+00  3.0538978896624132e+00 1.2423764261209750e-03 0.0000000000000000e+00  3.0546728684539826e+00 1.4248379699419585e-03 0.0000000000000000e+00  3.0538962995269183e+00 8.2585031208439851e-04 0.0000000000000000e+00  3.0546707249115692e+00 8.6639850647060525e-04 0.0000000000000000e+00  3.0538948459949133e+00 4.1336427266728859e-04 0.0000000000000000e+00  3.0546698509390131e+00 2.9038499054719492e-04 0.0000000000000000e+00  3.0538942790731651e+00 0.0000000000000000e+00 0.0000000000000000e+00  </DataArray> 
</PointData> 
</Piece>
</UnstructuredGrid>
</VTKFile>