<?xml version="1.0"?>
<VTKFile type="UnstructuredGrid"  version="0.1"  >
<UnstructuredGrid>
<Piece  NumberOfPoints="201" NumberOfCells="200">
<Points>
<DataArray  type="Float64"  NumberOfComponents="3"  format="ascii">-5 0 0  -4.95 0 0  -4.9 0 0  -4.85 0 0  -4.8 0 0  -4.75 0 0  -4.7 0 0  -4.65 0 0  -4.6 0 0  -4.55 0 0  -4.5 0 0  -4.45 0 0  -4.4 0 0  -4.35 0 0  -4.3 0 0  -4.25 0 0  -4.2 0 0  -4.15 0 0  -4.1 0 0  -4.05 0 0  -4 0 0  -3.95 0 0  -3.9 0 0  -3.85 0 0  -3.8 0 0  -3.75 0 0  -3.7 0 0  -3.65 0 0  -3.6 0 0  -3.55 0 0  -3.5 0 0  -3.45 0 0  -3.4 0 0  -3.35 0 0  -3.3 0 0  -3.25 0 0  -3.2 0 0  -3.15 0 0  -3.1 0 0  -3.05 0 0  -3 0 0  -2.95 0 0  -2.9 0 0  -2.85 0 0  -2.8 0 0  -2.75 0 0  -2.7 0 0  -2.65 0 0  -2.6 0 0  -2.55 0 0  -2.5 0 0  -2.45 0 0  -2.4 0 0  -2.35 0 0  -2.3 0 0  -2.25 0 0  -2.2 0 0  -2.15 0 0  -2.1 0 0  -2.05 0 0  -2 0 0  -1.95 0 0  -1.9 0 0  -1.85 0 0  -1.8 0 0  -1.75 0 0  -1.7 0 0  -1.65 0 0  -1.6 0 0  -1.55 0 0  -1.5 0 0  -1.45 0 0  -1.4 0 0  -1.35 0 0  -1.3 0 0  -1.25 0 0  -1.2 0 0  -1.15 0 0  -1.1 0 0  -1.05 0 0  -1 0 0  -0.9500000000000002 0 0  -0.9000000000000004 0 0  -0.8499999999999996 0 0  -0.7999999999999998 0 0  -0.75 0 0  -0.7000000000000002 0 0  -0.6500000000000004 0 0  -0.5999999999999996 0 0  -0.5499999999999998 0 0  -0.5 0 0  -0.4500000000000002 0 0  -0.4000000000000004 0 0  -0.3499999999999996 0 0  -0.2999999999999998 0 0  -0.25 0 0  -0.2000000000000002 0 0  -0.1500000000000004 0 0  -0.09999999999999964 0 0  -0.04999999999999982 0 0  0 0 0  0.04999999999999982 0 0  0.09999999999999964 0 0  0.1500000000000004 0 0  0.2000000000000002 0 0  0.25 0 0  0.2999999999999998 0 0  0.3499999999999996 0 0  0.4000000000000004 0 0  0.4500000000000002 0 0  0.5 0 0  0.5499999999999998 0 0  0.5999999999999996 0 0  0.6500000000000004 0 0  0.7000000000000002 0 0  0.75 0 0  0.7999999999999998 0 0  0.8499999999999996 0 0  0.9000000000000004 0 0  0.9500000000000002 0 0  1 0 0  1.05 0 0  1.1 0 0  1.15 0 0  1.2 0 0  1.25 0 0  1.3 0 0  1.35 0 0  1.4 0 0  1.45 0 0  1.5 0 0  1.55 0 0  1.6 0 0  1.65 0 0  1.7 0 0  1.75 0 0  1.8 0 0  1.85 0 0  1.9 0 0  1.95 0 0  2 0 0  2.05 0 0  2.1 0 0  2.15 0 0  2.2 0 0  2.25 0 0  2.3 0 0  2.35 0 0  2.4 0 0  2.45 0 0  2.5 0 0  2.55 0 0  2.6 0 0  2.65 0 0  2.7 0 0  2.75 0 0  2.8 0 0  2.85 0 0  2.9 0 0  2.95 0 0  3 0 0  3.050000000000001 0 0  3.1 0 0  3.15 0 0  3.199999999999999 0 0  3.25 0 0  3.300000000000001 0 0  3.35 0 0  3.4 0 0  3.449999999999999 0 0  3.5 0 0  3.550000000000001 0 0  3.6 0 0  3.65 0 0  3.699999999999999 0 0  3.75 0 0  3.800000000000001 0 0  3.85 0 0  3.9 0 0  3.949999999999999 0 0  4 0 0  4.050000000000001 0 0  4.1 0 0  4.15 0 0  4.199999999999999 0 0  4.25 0 0  4.300000000000001 0 0  4.35 0 0  4.4 0 0  4.449999999999999 0 0  4.5 0 0  4.550000000000001 0 0  4.6 0 0  4.65 0 0  4.699999999999999 0 0  4.75 0 0  4.800000000000001 0 0  4.85 0 0  4.9 0 0  4.949999999999999 0 0  5 0 0  </DataArray>
</Points>
<Cells>
<DataArray  type="UInt32"  Name="connectivity"  format="ascii">0 1  1 2  2 3  3 4  4 5  5 6  6 7  7 8  8 9  9 10  10 11  11 12  12 13  13 14  14 15  15 16  16 17  17 18  18 19  19 20  20 21  21 22  22 23  23 24  24 25  25 26  26 27  27 28  28 29  29 30  30 31  31 32  32 33  33 34  34 35  35 36  36 37  37 38  38 39  39 40  40 41  41 42  42 43  43 44  44 45  45 46  46 47  47 48  48 49  49 50  50 51  51 52  52 53  53 54  54 55  55 56  56 57  57 58  58 59  59 60  60 61  61 62  62 63  63 64  64 65  65 66  66 67  67 68  68 69  69 70  70 71  71 72  72 73  73 74  74 75  75 76  76 77  77 78  78 79  79 80  80 81  81 82  82 83  83 84  84 85  85 86  86 87  87 88  88 89  89 90  90 91  91 92  92 93  93 94  94 95  95 96  96 97  97 98  98 99  99 100  100 101  101 102  102 103  103 104  104 105  105 106  106 107  107 108  108 109  109 110  110 111  111 112  112 113  113 114  114 115  115 116  116 117  117 118  118 119  119 120  120 121  121 122  122 123  123 124  124 125  125 126  126 127  127 128  128 129  129 130  130 131  131 132  132 133  133 134  134 135  135 136  136 137  137 138  138 139  139 140  140 141  141 142  142 143  143 144  144 145  145 146  146 147  147 148  148 149  149 150  150 151  151 152  152 153  153 154  154 155  155 156  156 157  157 158  158 159  159 160  160 161  161 162  162 163  163 164  164 165  165 166  166 167  167 168  168 169  169 170  170 171  171 172  172 173  173 174  174 175  175 176  176 177  177 178  178 179  179 180  180 181  181 182  182 183  183 184  184 185  185 186  186 187  187 188  188 189  189 190  190 191  191 192  192 193  193 194  194 195  195 196  196 197  197 198  198 199  199 200  </DataArray>
<DataArray  type="UInt32"  Name="offsets"  format="ascii">2 4 6 8 10 12 14 16 18 20 22 24 26 28 30 32 34 36 38 40 42 44 46 48 50 52 54 56 58 60 62 64 66 68 70 72 74 76 78 80 82 84 86 88 90 92 94 96 98 100 102 104 106 108 110 112 114 116 118 120 122 124 126 128 130 132 134 136 138 140 142 144 146 148 150 152 154 156 158 160 162 164 166 168 170 172 174 176 178 180 182 184 186 188 190 192 194 196 198 200 202 204 206 208 210 212 214 216 218 220 222 224 226 228 230 232 234 236 238 240 242 244 246 248 250 252 254 256 258 260 262 264 266 268 270 272 274 276 278 280 282 284 286 288 290 292 294 296 298 300 302 304 306 308 310 312 314 316 318 320 322 324 326 328 330 332 334 336 338 340 342 344 346 348 350 352 354 356 358 360 362 364 366 368 370 372 374 376 378 380 382 384 386 388 390 392 394 396 398 400 </DataArray>
<DataArray  type="UInt8"  Name="types"  format="ascii">3 3 3 3 3 3 3 3 3 3 3 3 3 3 3 3 3 3 3 3 3 3 3 3 3 3 3 3 3 3 3 3 3 3 3 3 3 3 3 3 3 3 3 3 3 3 3 3 3 3 3 3 3 3 3 3 3 3 3 3 3 3 3 3 3 3 3 3 3 3 3 3 3 3 3 3 3 3 3 3 3 3 3 3 3 3 3 3 3 3 3 3 3 3 3 3 3 3 3 3 3 3 3 3 3 3 3 3 3 3 3 3 3 3 3 3 3 3 3 3 3 3 3 3 3 3 3 3 3 3 3 3 3 3 3 3 3 3 3 3 3 3 3 3 3 3 3 3 3 3 3 3 3 3 3 3 3 3 3 3 3 3 3 3 3 3 3 3 3 3 3 3 3 3 3 3 3 3 3 3 3 3 3 3 3 3 3 3 3 3 3 3 3 3 3 3 3 3 3 3 </DataArray>
</Cells>
<PointData  Vectors="(s, w)"> 
<DataArray  type="Float64"  Name="(s, w)"  NumberOfComponents="3" format="ascii">3.0910331305763896e+00 0.0000000000000000e+00 0.0000000000000000e+00  3.2325302822047108e+00 -1.6484349399516954e-01 0.0000000000000000e+00  3.0949411524380976e+00 3.2852151434797061e-01 0.0000000000000000e+00  3.2249525436784374e+00 -4.8838026273888135e-01 0.0000000000000000e+00  3.1058781155044080e+00 6.4321672722431444e-01 0.0000000000000000e+00  3.2113282458988937e+00 -7.8929523039581417e-01 0.0000000000000000e+00  3.1215926009318493e+00 9.2262424958241707e-01 0.0000000000000000e+00  3.1945006630197508e+00 -1.0406918114044212e+00 0.0000000000000000e+00  3.1387172812081499e+00 1.1341896288147693e+00 0.0000000000000000e+00  3.1781538365118704e+00 -1.2048057837992889e+00 0.0000000000000000e+00  3.1533884832507439e+00 1.2378595189377875e+00 0.0000000000000000e+00  3.1660672889968033e+00 -1.2405908519304056e+00 0.0000000000000000e+00  3.1621250867969826e+00 1.1972771626694507e+00 0.0000000000000000e+00  3.1611518877060720e+00 -1.1188032199104558e+00 0.0000000000000000e+00  3.1628468844970068e+00 9.9626640288258361e-01 0.0000000000000000e+00  3.1644525139168431e+00 -8.4034342145049323e-01 0.0000000000000000e+00  3.1557684895844047e+00 6.5536821686649271e-01 0.0000000000000000e+00  3.1744456627266939e+00 -4.5007167927090774e-01 0.0000000000000000e+00  3.1437860574103880e+00 2.4070886432858199e-01 0.0000000000000000e+00  3.1870384215285208e+00 -3.6979841193480953e-02 0.0000000000000000e+00  3.1319765465888167e+00 -1.4327750634481615e-01 0.0000000000000000e+00  3.1965822780132922e+00 2.8538774914613846e-01 0.0000000000000000e+00  3.1260505269146188e+00 -3.8227913207044750e-01 0.0000000000000000e+00  3.1978726588738984e+00 4.1670626948248007e-01 0.0000000000000000e+00  3.1300505368074529e+00 -3.9725948105479825e-01 0.0000000000000000e+00  3.1885671694023014e+00 3.1463742040028003e-01 0.0000000000000000e+00  3.1441253848836244e+00 -1.8901308554861870e-01 0.0000000000000000e+00  3.1709489373377728e+00 2.7542493444364949e-02 0.0000000000000000e+00  3.1635670218625029e+00 1.4372859394632248e-01 0.0000000000000000e+00  3.1518258907622512e+00 -3.0686185852891612e-01 0.0000000000000000e+00  3.1801373907633459e+00 4.3330948389101215e-01 0.0000000000000000e+00  3.1399181032833030e+00 -5.1161004540274801e-01 0.0000000000000000e+00  3.1857838859298293e+00 5.1801052484049703e-01 0.0000000000000000e+00  3.1413869971715309e+00 -4.6005463088545873e-01 0.0000000000000000e+00  3.1773187360619231e+00 3.3256159378381472e-01 0.0000000000000000e+00  3.1556678468848673e+00 -1.6113921531447167e-01 0.0000000000000000e+00  3.1593508996987518e+00 -3.5438277808384246e-02 0.0000000000000000e+00  3.1744730593004280e+00 2.2137905697886812e-01 0.0000000000000000e+00  3.1428542464807174e+00 -3.7133236732070274e-01 0.0000000000000000e+00  3.1857622009816731e+00 4.5091754479389601e-01 0.0000000000000000e+00  3.1389312844084274e+00 -4.5500657091844748e-01 0.0000000000000000e+00  3.1814298240527381e+00 3.6976613075807352e-01 0.0000000000000000e+00  3.1509154936594324e+00 -2.2060585260369522e-01 0.0000000000000000e+00  3.1639428464102664e+00 2.6827030949216509e-02 0.0000000000000000e+00  3.1705497651522427e+00 1.6594073056736156e-01 0.0000000000000000e+00  3.1461565367895896e+00 -3.2426598078764629e-01 0.0000000000000000e+00  3.1827204104263571e+00 4.0469924550741776e-01 0.0000000000000000e+00  3.1423567995715902e+00 -3.9887479051858254e-01 0.0000000000000000e+00  3.1772176529830878e+00 2.9488972574817929e-01 0.0000000000000000e+00  3.1560008504488390e+00 -1.2760611452323634e-01 0.0000000000000000e+00  3.1586744656853023e+00 -7.2871733157166718e-02 0.0000000000000000e+00  3.1748823054692732e+00 2.4631479033264267e-01 0.0000000000000000e+00  3.1443495744093877e+00 -3.5740251622762459e-01 0.0000000000000000e+00  3.1807606571218079e+00 3.6380233033621806e-01 0.0000000000000000e+00  3.1484579389427356e+00 -2.7201332667297357e-01 0.0000000000000000e+00  3.1672939438319250e+00 1.0864739975588814e-01 0.0000000000000000e+00  3.1661144632741651e+00 1.0403204500065791e-01 0.0000000000000000e+00  3.1480202239453958e+00 -2.1577640865080039e-01 0.0000000000000000e+00  3.1747690471682168e+00 3.9117842542288028e-01 0.0000000000000000e+00  3.1411341765738827e+00 -1.3462304084157714e-01 0.0000000000000000e+00  3.1558441472176599e+00 3.9004751641327867e-01 0.0000000000000000e+00  3.1432426576783459e+00 4.9839366866823070e-01 0.0000000000000000e+00  3.1157647476491253e+00 4.5281310337364389e-01 0.0000000000000000e+00  3.1260588533318390e+00 1.3015715619083963e+00 0.0000000000000000e+00  3.0790976634948728e+00 1.1460032636660904e+00 0.0000000000000000e+00  3.0712736035737929e+00 1.8619390552155020e+00 0.0000000000000000e+00  3.0513793525662507e+00 2.4125414062319632e+00 0.0000000000000000e+00  3.0036532198579469e+00 2.4491543554235267e+00 0.0000000000000000e+00  3.0038756583983162e+00 3.4602923183854499e+00 0.0000000000000000e+00  2.9601960420863107e+00 3.6146768590563929e+00 0.0000000000000000e+00  2.9280450008289223e+00 3.9953837577850493e+00 0.0000000000000000e+00  2.9234605719060154e+00 4.9241610384212597e+00 0.0000000000000000e+00  2.8684506223622628e+00 4.8490295063622968e+00 0.0000000000000000e+00  2.8527582591465843e+00 5.5419843302591207e+00 0.0000000000000000e+00  2.8362362029315125e+00 6.2154199734549911e+00 0.0000000000000000e+00  2.7808823827078446e+00 6.1065910422560865e+00 0.0000000000000000e+00  2.7748932516802394e+00 6.9645662198395462e+00 0.0000000000000000e+00  2.7480245853332597e+00 7.4023408189669526e+00 0.0000000000000000e+00  2.6958416441324315e+00 7.3232908862011064e+00 0.0000000000000000e+00  2.6950924768301463e+00 8.2516306513279432e+00 0.0000000000000000e+00  2.6607210318003887e+00 8.5069471426390297e+00 0.0000000000000000e+00  2.6126761736210242e+00 8.4738573469018821e+00 0.0000000000000000e+00  2.6131356240314649e+00 9.3923929184129094e+00 0.0000000000000000e+00  2.5760256088902582e+00 9.5571016027110893e+00 0.0000000000000000e+00  2.5302107843302770e+00 9.5346040868503454e+00 0.0000000000000000e+00  2.5296050202406692e+00 1.0395553334379050e+01 0.0000000000000000e+00  2.4932223002724077e+00 1.0541836141500836e+01 0.0000000000000000e+00  2.4506136024221163e+00 1.0546345933120925e+01 0.0000000000000000e+00  2.4419980622498421e+00 1.1216932757055131e+01 0.0000000000000000e+00  2.4122108372078332e+00 1.1455729022399506e+01 0.0000000000000000e+00  2.3776908285053966e+00 1.1590685571922121e+01 0.0000000000000000e+00  2.3471416108908190e+00 1.1789531762791842e+01 0.0000000000000000e+00  2.3294872487729625e+00 1.2234831264407980e+01 0.0000000000000000e+00  2.3210230604266235e+00 1.2849848849675933e+01 0.0000000000000000e+00  2.2398630920979206e+00 1.2016273716606667e+01 0.0000000000000000e+00  2.2380377314057940e+00 1.2729485289459181e+01 0.0000000000000000e+00  2.2917700813421837e+00 1.4551734881273102e+01 0.0000000000000000e+00  2.1219235254825022e+00 1.1939355067671272e+01 0.0000000000000000e+00  2.1194737092327958e+00 1.2609524090102926e+01 0.0000000000000000e+00  2.2923392860827372e+00 1.6847587308317227e+01 0.0000000000000000e+00  1.9881741688046772e+00 1.2139570873710513e+01 0.0000000000000000e+00  1.9588413330137446e+00 1.1458625674854689e+01 0.0000000000000000e+00  2.3174457617293642e+00 1.9038177332183302e+01 0.0000000000000000e+00  2.0167043873627346e+00 1.2662895878035908e+01 0.0000000000000000e+00  1.8202024144298625e+00 9.2068591239089770e+00 0.0000000000000000e+00  2.3627446902810068e+00 1.9859220018594854e+01 0.0000000000000000e+00  2.0954026541685766e+00 1.4840064929859615e+01 0.0000000000000000e+00  1.6866421738251385e+00 6.7620446693493372e+00 0.0000000000000000e+00  2.2982766359998612e+00 1.9065159364883876e+01 0.0000000000000000e+00  2.2708581807196628e+00 1.8384709815749606e+01 0.0000000000000000e+00  1.5859360901650608e+00 5.3277646238233238e+00 0.0000000000000000e+00  2.1159172468688254e+00 1.5516443838121273e+01 0.0000000000000000e+00  2.4766356501560236e+00 2.2900084401508710e+01 0.0000000000000000e+00  1.6275150562609446e+00 6.3330006573335105e+00 0.0000000000000000e+00  1.7739209764370663e+00 9.1745114037407696e+00 0.0000000000000000e+00  2.6100489987561093e+00 2.5909868951722988e+01 0.0000000000000000e+00  1.9041591687048234e+00 1.1881400652143032e+01 0.0000000000000000e+00  1.3974749527277293e+00 2.4946551987764591e+00 0.0000000000000000e+00  2.4002808465019667e+00 2.1950961369914484e+01 0.0000000000000000e+00  2.4293261215892645e+00 2.2346297034576342e+01 0.0000000000000000e+00  1.3137120420299015e+00 1.6992296042927382e+00 0.0000000000000000e+00  1.7289543978266577e+00 8.7551426358294648e+00 0.0000000000000000e+00  2.7591585042514897e+00 2.9976814126745253e+01 0.0000000000000000e+00  1.8899943131239252e+00 1.1804830757548435e+01 0.0000000000000000e+00  1.1107807070162274e+00 -1.0112676469264306e+00 0.0000000000000000e+00  2.1512867762582415e+00 1.6984088876279010e+01 0.0000000000000000e+00  2.7472758384894198e+00 2.9940887568602097e+01 0.0000000000000000e+00  1.4796320857996639e+00 4.6609368161701390e+00 0.0000000000000000e+00  1.1172659067795045e+00 -5.5990010956727321e-01 0.0000000000000000e+00  2.3968312950090365e+00 2.2117258750681323e+01 0.0000000000000000e+00  2.6456949237321048e+00 2.7736130284324279e+01 0.0000000000000000e+00  1.2886643168532776e+00 1.7862814719919637e+00 0.0000000000000000e+00  1.1565261012843973e+00 9.4586649684267471e-02 0.0000000000000000e+00  2.5016973829870626e+00 2.4361267409662489e+01 0.0000000000000000e+00  2.5572961265028380e+00 2.5942251060441468e+01 0.0000000000000000e+00  1.2432764711514208e+00 4.5208111854860172e-01 0.0000000000000000e+00  9.3914953919901711e-01 7.4523787073579846e-03 0.0000000000000000e+00  1.0179059407524582e+00 -3.8641274184477173e-02 0.0000000000000000e+00  9.9333937581967369e-01 2.7533912667672380e-02 0.0000000000000000e+00  1.0033725019459743e+00 -1.8368110269291676e-02 0.0000000000000000e+00  9.9780349394305656e-01 1.3238702752528196e-02 0.0000000000000000e+00  1.0016265611044766e+00 -1.0081555846842097e-02 0.0000000000000000e+00  9.9874539710912325e-01 7.8417978301449608e-03 0.0000000000000000e+00  1.0009696205140892e+00 -6.0672251859874579e-03 0.0000000000000000e+00  9.9926008632230190e-01 4.6346265246627683e-03 0.0000000000000000e+00  1.0005552775967967e+00 -3.4769905719819237e-03 0.0000000000000000e+00  9.9959052132736770e-01 2.5649360170910593e-03 0.0000000000000000e+00  1.0002969584281467e+00 -1.8596977461203532e-03 0.0000000000000000e+00  9.9978802104067621e-01 1.3277397047695462e-03 0.0000000000000000e+00  1.0001491125356423e+00 -9.3386340628822924e-04 0.0000000000000000e+00  9.9989654240642201e-01 6.4798834052316463e-04 0.0000000000000000e+00  1.0000708662395530e+00 -4.4383325842775498e-04 0.0000000000000000e+00  9.9995204019838613e-01 3.0038230732238978e-04 0.0000000000000000e+00  1.0000320915014467e+00 -2.0099069583650524e-04 0.0000000000000000e+00  9.9997875553696425e-01 1.3305738931200138e-04 0.0000000000000000e+00  1.0000139217348207e+00 -8.7193035403377363e-05 0.0000000000000000e+00  9.9999096449978675e-01 5.6590529341782638e-05 0.0000000000000000e+00  1.0000058106487340e+00 -3.6392691314449242e-05 0.0000000000000000e+00  9.9999629581303362e-01 2.3199772622207697e-05 0.0000000000000000e+00  1.0000023416679449e+00 -1.4666123314465708e-05 0.0000000000000000e+00  9.9999853149401929e-01 9.1974248405201618e-06 0.0000000000000000e+00  1.0000009138747621e+00 -5.7237004524508082e-06 0.0000000000000000e+00  9.9999943546626091e-01 3.5357399073828812e-06 0.0000000000000000e+00  1.0000003462644877e+00 -2.1686938248688709e-06 0.0000000000000000e+00  9.9999978906194742e-01 1.3211292088505157e-06 0.0000000000000000e+00  1.0000001276549100e+00 -7.9951724736794415e-07 0.0000000000000000e+00  9.9999992323635412e-01 4.8077949426036010e-07 0.0000000000000000e+00  1.0000000458778386e+00 -2.8733813766805658e-07 0.0000000000000000e+00  9.9999997274364538e-01 1.7070966230072347e-07 0.0000000000000000e+00  1.0000000161002733e+00 -1.0083785001767389e-07 0.0000000000000000e+00  9.9999999054246691e-01 5.9233613997841246e-08 0.0000000000000000e+00  1.0000000055255560e+00 -3.4607185211296461e-08 0.0000000000000000e+00  9.9999999678857532e-01 2.0113525834164470e-08 0.0000000000000000e+00  1.0000000018569928e+00 -1.1630559064944198e-08 0.0000000000000000e+00  9.9999999893149516e-01 6.6921727262479902e-09 0.0000000000000000e+00  1.0000000006118679e+00 -3.8321977363688230e-09 0.0000000000000000e+00  9.9999999965125408e-01 2.1842421242440063e-09 0.0000000000000000e+00  1.0000000001978744e+00 -1.2393098734856932e-09 0.0000000000000000e+00  9.9999999988822386e-01 7.0006293654636846e-10 0.0000000000000000e+00  1.0000000000628690e+00 -3.9375258869877497e-10 0.0000000000000000e+00  9.9999999996478839e-01 2.2054267214816804e-10 0.0000000000000000e+00  1.0000000000196421e+00 -1.2302110862057054e-10 0.0000000000000000e+00  9.9999999998908762e-01 6.8349597402702291e-11 0.0000000000000000e+00  1.0000000000060387e+00 -3.7827696283180411e-11 0.0000000000000000e+00  9.9999999999667100e-01 2.0855747491175075e-11 0.0000000000000000e+00  1.0000000000018294e+00 -1.1455364291423288e-11 0.0000000000000000e+00  9.9999999999899891e-01 6.2703693837920386e-12 0.0000000000000000e+00  1.0000000000005462e+00 -3.4185182387581022e-12 0.0000000000000000e+00  9.9999999999970279e-01 1.8613554808363641e-12 0.0000000000000000e+00  1.0000000000001610e+00 -1.0051385144097634e-12 0.0000000000000000e+00  9.9999999999991318e-01 5.4595641360366218e-13 0.0000000000000000e+00  1.0000000000000466e+00 -2.9050660049435048e-13 0.0000000000000000e+00  9.9999999999997513e-01 1.5658365376195993e-13 0.0000000000000000e+00  1.0000000000000135e+00 -8.2834817045527494e-14 0.0000000000000000e+00  9.9999999999999312e-01 4.3118388522346524e-14 0.0000000000000000e+00  1.0000000000000031e+00 -2.1739479236086202e-14 0.0000000000000000e+00  9.9999999999999811e-01 1.0003157037349629e-14 0.0000000000000000e+00  1.0000000000000011e+00 -9.6769292030944049e-15 0.0000000000000000e+00  9.9999999999999967e-01 8.1748994052943434e-15 0.0000000000000000e+00  1.0000000000000011e+00 1.8540880721991088e-15 0.0000000000000000e+00  9.9999999999999978e-01 0.0000000000000000e+00 0.0000000000000000e+00  </DataArray> 
</PointData> 
</Piece>
</UnstructuredGrid>
</VTKFile>