<?xml version="1.0"?>
<VTKFile type="UnstructuredGrid"  version="0.1"  >
<UnstructuredGrid>
<Piece  NumberOfPoints="201" NumberOfCells="200">
<Points>
<DataArray  type="Float64"  NumberOfComponents="3"  format="ascii">-5 0 0  -4.95 0 0  -4.9 0 0  -4.85 0 0  -4.8 0 0  -4.75 0 0  -4.7 0 0  -4.65 0 0  -4.6 0 0  -4.55 0 0  -4.5 0 0  -4.45 0 0  -4.4 0 0  -4.35 0 0  -4.3 0 0  -4.25 0 0  -4.2 0 0  -4.15 0 0  -4.1 0 0  -4.05 0 0  -4 0 0  -3.95 0 0  -3.9 0 0  -3.85 0 0  -3.8 0 0  -3.75 0 0  -3.7 0 0  -3.65 0 0  -3.6 0 0  -3.55 0 0  -3.5 0 0  -3.45 0 0  -3.4 0 0  -3.35 0 0  -3.3 0 0  -3.25 0 0  -3.2 0 0  -3.15 0 0  -3.1 0 0  -3.05 0 0  -3 0 0  -2.95 0 0  -2.9 0 0  -2.85 0 0  -2.8 0 0  -2.75 0 0  -2.7 0 0  -2.65 0 0  -2.6 0 0  -2.55 0 0  -2.5 0 0  -2.45 0 0  -2.4 0 0  -2.35 0 0  -2.3 0 0  -2.25 0 0  -2.2 0 0  -2.15 0 0  -2.1 0 0  -2.05 0 0  -2 0 0  -1.95 0 0  -1.9 0 0  -1.85 0 0  -1.8 0 0  -1.75 0 0  -1.7 0 0  -1.65 0 0  -1.6 0 0  -1.55 0 0  -1.5 0 0  -1.45 0 0  -1.4 0 0  -1.35 0 0  -1.3 0 0  -1.25 0 0  -1.2 0 0  -1.15 0 0  -1.1 0 0  -1.05 0 0  -1 0 0  -0.9500000000000002 0 0  -0.9000000000000004 0 0  -0.8499999999999996 0 0  -0.7999999999999998 0 0  -0.75 0 0  -0.7000000000000002 0 0  -0.6500000000000004 0 0  -0.5999999999999996 0 0  -0.5499999999999998 0 0  -0.5 0 0  -0.4500000000000002 0 0  -0.4000000000000004 0 0  -0.3499999999999996 0 0  -0.2999999999999998 0 0  -0.25 0 0  -0.2000000000000002 0 0  -0.1500000000000004 0 0  -0.09999999999999964 0 0  -0.04999999999999982 0 0  0 0 0  0.04999999999999982 0 0  0.09999999999999964 0 0  0.1500000000000004 0 0  0.2000000000000002 0 0  0.25 0 0  0.2999999999999998 0 0  0.3499999999999996 0 0  0.4000000000000004 0 0  0.4500000000000002 0 0  0.5 0 0  0.5499999999999998 0 0  0.5999999999999996 0 0  0.6500000000000004 0 0  0.7000000000000002 0 0  0.75 0 0  0.7999999999999998 0 0  0.8499999999999996 0 0  0.9000000000000004 0 0  0.9500000000000002 0 0  1 0 0  1.05 0 0  1.1 0 0  1.15 0 0  1.2 0 0  1.25 0 0  1.3 0 0  1.35 0 0  1.4 0 0  1.45 0 0  1.5 0 0  1.55 0 0  1.6 0 0  1.65 0 0  1.7 0 0  1.75 0 0  1.8 0 0  1.85 0 0  1.9 0 0  1.95 0 0  2 0 0  2.05 0 0  2.1 0 0  2.15 0 0  2.2 0 0  2.25 0 0  2.3 0 0  2.35 0 0  2.4 0 0  2.45 0 0  2.5 0 0  2.55 0 0  2.6 0 0  2.65 0 0  2.7 0 0  2.75 0 0  2.8 0 0  2.85 0 0  2.9 0 0  2.95 0 0  3 0 0  3.050000000000001 0 0  3.1 0 0  3.15 0 0  3.199999999999999 0 0  3.25 0 0  3.300000000000001 0 0  3.35 0 0  3.4 0 0  3.449999999999999 0 0  3.5 0 0  3.550000000000001 0 0  3.6 0 0  3.65 0 0  3.699999999999999 0 0  3.75 0 0  3.800000000000001 0 0  3.85 0 0  3.9 0 0  3.949999999999999 0 0  4 0 0  4.050000000000001 0 0  4.1 0 0  4.15 0 0  4.199999999999999 0 0  4.25 0 0  4.300000000000001 0 0  4.35 0 0  4.4 0 0  4.449999999999999 0 0  4.5 0 0  4.550000000000001 0 0  4.6 0 0  4.65 0 0  4.699999999999999 0 0  4.75 0 0  4.800000000000001 0 0  4.85 0 0  4.9 0 0  4.949999999999999 0 0  5 0 0  </DataArray>
</Points>
<Cells>
<DataArray  type="UInt32"  Name="connectivity"  format="ascii">0 1  1 2  2 3  3 4  4 5  5 6  6 7  7 8  8 9  9 10  10 11  11 12  12 13  13 14  14 15  15 16  16 17  17 18  18 19  19 20  20 21  21 22  22 23  23 24  24 25  25 26  26 27  27 28  28 29  29 30  30 31  31 32  32 33  33 34  34 35  35 36  36 37  37 38  38 39  39 40  40 41  41 42  42 43  43 44  44 45  45 46  46 47  47 48  48 49  49 50  50 51  51 52  52 53  53 54  54 55  55 56  56 57  57 58  58 59  59 60  60 61  61 62  62 63  63 64  64 65  65 66  66 67  67 68  68 69  69 70  70 71  71 72  72 73  73 74  74 75  75 76  76 77  77 78  78 79  79 80  80 81  81 82  82 83  83 84  84 85  85 86  86 87  87 88  88 89  89 90  90 91  91 92  92 93  93 94  94 95  95 96  96 97  97 98  98 99  99 100  100 101  101 102  102 103  103 104  104 105  105 106  106 107  107 108  108 109  109 110  110 111  111 112  112 113  113 114  114 115  115 116  116 117  117 118  118 119  119 120  120 121  121 122  122 123  123 124  124 125  125 126  126 127  127 128  128 129  129 130  130 131  131 132  132 133  133 134  134 135  135 136  136 137  137 138  138 139  139 140  140 141  141 142  142 143  143 144  144 145  145 146  146 147  147 148  148 149  149 150  150 151  151 152  152 153  153 154  154 155  155 156  156 157  157 158  158 159  159 160  160 161  161 162  162 163  163 164  164 165  165 166  166 167  167 168  168 169  169 170  170 171  171 172  172 173  173 174  174 175  175 176  176 177  177 178  178 179  179 180  180 181  181 182  182 183  183 184  184 185  185 186  186 187  187 188  188 189  189 190  190 191  191 192  192 193  193 194  194 195  195 196  196 197  197 198  198 199  199 200  </DataArray>
<DataArray  type="UInt32"  Name="offsets"  format="ascii">2 4 6 8 10 12 14 16 18 20 22 24 26 28 30 32 34 36 38 40 42 44 46 48 50 52 54 56 58 60 62 64 66 68 70 72 74 76 78 80 82 84 86 88 90 92 94 96 98 100 102 104 106 108 110 112 114 116 118 120 122 124 126 128 130 132 134 136 138 140 142 144 146 148 150 152 154 156 158 160 162 164 166 168 170 172 174 176 178 180 182 184 186 188 190 192 194 196 198 200 202 204 206 208 210 212 214 216 218 220 222 224 226 228 230 232 234 236 238 240 242 244 246 248 250 252 254 256 258 260 262 264 266 268 270 272 274 276 278 280 282 284 286 288 290 292 294 296 298 300 302 304 306 308 310 312 314 316 318 320 322 324 326 328 330 332 334 336 338 340 342 344 346 348 350 352 354 356 358 360 362 364 366 368 370 372 374 376 378 380 382 384 386 388 390 392 394 396 398 400 </DataArray>
<DataArray  type="UInt8"  Name="types"  format="ascii">3 3 3 3 3 3 3 3 3 3 3 3 3 3 3 3 3 3 3 3 3 3 3 3 3 3 3 3 3 3 3 3 3 3 3 3 3 3 3 3 3 3 3 3 3 3 3 3 3 3 3 3 3 3 3 3 3 3 3 3 3 3 3 3 3 3 3 3 3 3 3 3 3 3 3 3 3 3 3 3 3 3 3 3 3 3 3 3 3 3 3 3 3 3 3 3 3 3 3 3 3 3 3 3 3 3 3 3 3 3 3 3 3 3 3 3 3 3 3 3 3 3 3 3 3 3 3 3 3 3 3 3 3 3 3 3 3 3 3 3 3 3 3 3 3 3 3 3 3 3 3 3 3 3 3 3 3 3 3 3 3 3 3 3 3 3 3 3 3 3 3 3 3 3 3 3 3 3 3 3 3 3 3 3 3 3 3 3 3 3 3 3 3 3 3 3 3 3 3 3 </DataArray>
</Cells>
<PointData  Vectors="(s, w)"> 
<DataArray  type="Float64"  Name="(s, w)"  NumberOfComponents="3" format="ascii">3.0826261749151707e+00 0.0000000000000000e+00 0.0000000000000000e+00  3.2413926730084874e+00 9.5107998327121454e-02 0.0000000000000000e+00  3.0839019878518714e+00 -1.8925829180139830e-01 0.0000000000000000e+00  3.2388243126652814e+00 2.6732503428593407e-01 0.0000000000000000e+00  3.0878865737237136e+00 -3.4208783020909200e-01 0.0000000000000000e+00  3.2333866880256692e+00 3.8747333818367707e-01 0.0000000000000000e+00  3.0949710214452018e+00 -4.2622531367549926e-01 0.0000000000000000e+00  3.2246386729662908e+00 4.2758908590718103e-01 0.0000000000000000e+00  3.1055518862233513e+00 -4.1835693458190715e-01 0.0000000000000000e+00  3.2122927087636741e+00 3.7073728966518060e-01 0.0000000000000000e+00  3.1196962912829189e+00 -3.0959340237717881e-01 0.0000000000000000e+00  3.1965797121878383e+00 2.1645677634658311e-01 0.0000000000000000e+00  3.1367802905220907e+00 -1.1073930529202362e-01 0.0000000000000000e+00  3.1785814710735631e+00 -1.4492741229126886e-02 0.0000000000000000e+00  3.1552226267156409e+00 1.4461543589479620e-01 0.0000000000000000e+00  3.1603899008807721e+00 -2.7838907754201769e-01 0.0000000000000000e+00  3.1724644341864039e+00 4.0179573976118721e-01 0.0000000000000000e+00  3.1449452610051227e+00 -5.1273662901769146e-01 0.0000000000000000e+00  3.1853297773022398e+00 5.9375563037146628e-01 0.0000000000000000e+00  3.1354568086075334e+00 -6.4866591980664023e-01 0.0000000000000000e+00  3.1908146862440643e+00 6.5731360875872091e-01 0.0000000000000000e+00  3.1344349030979850e+00 -6.3128697072380258e-01 0.0000000000000000e+00  3.1871877443412679e+00 5.5460366106548364e-01 0.0000000000000000e+00  3.1425518691673746e+00 -4.4344477502602475e-01 0.0000000000000000e+00  3.1750729934821167e+00 2.9402491139428499e-01 0.0000000000000000e+00  3.1577541169444503e+00 -1.2367573468663212e-01 0.0000000000000000e+00  3.1580028873793098e+00 -5.8380336718398616e-02 0.0000000000000000e+00  3.1751739105838448e+00 2.3302563533081019e-01 0.0000000000000000e+00  3.1419076969674675e+00 -3.8769692210477746e-01 0.0000000000000000e+00  3.1882860411471912e+00 4.9953748443283919e-01 0.0000000000000000e+00  3.1332915354358977e+00 -5.6561106165595376e-01 0.0000000000000000e+00  3.1913028318409262e+00 5.6397757249512914e-01 0.0000000000000000e+00  3.1364580388705852e+00 -5.0673739445897070e-01 0.0000000000000000e+00  3.1820683001243579e+00 3.8514424345234877e-01 0.0000000000000000e+00  3.1508891596128592e+00 -2.2253863073702315e-01 0.0000000000000000e+00  3.1640254495473816e+00 3.0544063484277521e-02 0.0000000000000000e+00  3.1703506194326976e+00 1.6136520792425277e-01 0.0000000000000000e+00  3.1456912530964116e+00 -3.3188092446735545e-01 0.0000000000000000e+00  3.1850011648897580e+00 4.4959607650206507e-01 0.0000000000000000e+00  3.1369499003222021e+00 -5.0500686128366845e-01 0.0000000000000000e+00  3.1863792903639343e+00 4.7606788055448618e-01 0.0000000000000000e+00  3.1433601621813634e+00 -3.7713642886158910e-01 0.0000000000000000e+00  3.1730024485686195e+00 2.1155268446014613e-01 0.0000000000000000e+00  3.1616658500157788e+00 -1.3725813782863118e-02 0.0000000000000000e+00  3.1527932240590881e+00 -1.8898794279249950e-01 0.0000000000000000e+00  3.1802390860750434e+00 3.5356040899233854e-01 0.0000000000000000e+00  3.1393326007539564e+00 -4.5668174331123013e-01 0.0000000000000000e+00  3.1859270481770796e+00 4.6569170635862456e-01 0.0000000000000000e+00  3.1427271974845699e+00 -3.8945334595449688e-01 0.0000000000000000e+00  3.1739716146415322e+00 2.2954001709777180e-01 0.0000000000000000e+00  3.1609019241819936e+00 -2.9060842117902410e-02 0.0000000000000000e+00  3.1534496325667289e+00 -1.7703296877472258e-01 0.0000000000000000e+00  3.1791987483887465e+00 3.3246437928482603e-01 0.0000000000000000e+00  3.1417228081987867e+00 -4.1025977345521630e-01 0.0000000000000000e+00  3.1814609285268225e+00 3.7676589132379429e-01 0.0000000000000000e+00  3.1496347517100025e+00 -2.5315998027787862e-01 0.0000000000000000e+00  3.1653178367583319e+00 5.8494868131144212e-02 0.0000000000000000e+00  3.1695950439220479e+00 1.4572665640617286e-01 0.0000000000000000e+00  3.1467154532232939e+00 -3.0060620418908135e-01 0.0000000000000000e+00  3.1802420462122560e+00 3.8047397424301627e-01 0.0000000000000000e+00  3.1446724266405526e+00 -2.8550666513393741e-01 0.0000000000000000e+00  3.1669810373564622e+00 2.3404461956481781e-01 0.0000000000000000e+00  3.1571028901146527e+00 1.8358962617558999e-01 0.0000000000000000e+00  3.1374676452649406e+00 4.0231526466774456e-02 0.0000000000000000e+00  3.1551825518023668e+00 7.7340365196506844e-01 0.0000000000000000e+00  3.1111735312076574e+00 4.4448761727821418e-01 0.0000000000000000e+00  3.1132786931693879e+00 1.1883071185130560e+00 0.0000000000000000e+00  3.0904795482420306e+00 1.5863672848784707e+00 0.0000000000000000e+00  3.0468042203614414e+00 1.6751304545005248e+00 0.0000000000000000e+00  3.0492942935889578e+00 2.7547874947330304e+00 0.0000000000000000e+00  2.9962542580257887e+00 2.7796280889741163e+00 0.0000000000000000e+00  2.9730281761705770e+00 3.4122201206683993e+00 0.0000000000000000e+00  2.9596476145486981e+00 4.2544293996906886e+00 0.0000000000000000e+00  2.9006721261255550e+00 4.1912247559204383e+00 0.0000000000000000e+00  2.8928406843573198e+00 5.1355789238554683e+00 0.0000000000000000e+00  2.8621466461922718e+00 5.6246598069530043e+00 0.0000000000000000e+00  2.8087762679565218e+00 5.6497960694106304e+00 0.0000000000000000e+00  2.8080234254171992e+00 6.7071006409506744e+00 0.0000000000000000e+00  2.7636870779997555e+00 6.8934161440011916e+00 0.0000000000000000e+00  2.7199314627181130e+00 7.0709298106913687e+00 0.0000000000000000e+00  2.7192748695133844e+00 8.0935738729103193e+00 0.0000000000000000e+00  2.6683584276621817e+00 8.1072490284380141e+00 0.0000000000000000e+00  2.6311438883667586e+00 8.3745562120944737e+00 0.0000000000000000e+00  2.6292373506957416e+00 9.3293147104093705e+00 0.0000000000000000e+00  2.5761723983630862e+00 9.2602727267970408e+00 0.0000000000000000e+00  2.5425693720499405e+00 9.5550457393237451e+00 0.0000000000000000e+00  2.5368884482746332e+00 1.0396063207975718e+01 0.0000000000000000e+00  2.4891061552902447e+00 1.0386993046564985e+01 0.0000000000000000e+00  2.4539131207446032e+00 1.0612938765896342e+01 0.0000000000000000e+00  2.4400444817539988e+00 1.1246992689298670e+01 0.0000000000000000e+00  2.4087770344473531e+00 1.1526621490565146e+01 0.0000000000000000e+00  2.3688050367841509e+00 1.1617523846762277e+01 0.0000000000000000e+00  2.3305082831623563e+00 1.1726748769043397e+01 0.0000000000000000e+00  2.3396296547033844e+00 1.2763541304960022e+01 0.0000000000000000e+00  2.2933794258079372e+00 1.2696502361743567e+01 0.0000000000000000e+00  2.1977822197794201e+00 1.1621487381652370e+01 0.0000000000000000e+00  2.2807412453430582e+00 1.4090845601288663e+01 0.0000000000000000e+00  2.2419770398735817e+00 1.4133475496059162e+01 0.0000000000000000e+00  2.0311794869694935e+00 1.0771203216176398e+01 0.0000000000000000e+00  2.2136891508178089e+00 1.5231930640193815e+01 0.0000000000000000e+00  2.2051913561668650e+00 1.6462252657391254e+01 0.0000000000000000e+00  1.8556767127466600e+00 9.5135674136309358e+00 0.0000000000000000e+00  2.1188655867146049e+00 1.5138189702474708e+01 0.0000000000000000e+00  2.3212800824325477e+00 1.8714965437616691e+01 0.0000000000000000e+00  1.7852782337451221e+00 8.6464033593659693e+00 0.0000000000000000e+00  2.0184787269978779e+00 1.3049687881534270e+01 0.0000000000000000e+00  2.4187644601246712e+00 2.1337241919425495e+01 0.0000000000000000e+00  1.8096991777130782e+00 9.2585967859859775e+00 0.0000000000000000e+00  1.8176907997434770e+00 9.6177877703815593e+00 0.0000000000000000e+00  2.4961412465173334e+00 2.3045170339091872e+01 0.0000000000000000e+00  1.9453244958743856e+00 1.2310392036312329e+01 0.0000000000000000e+00  1.5867792545453765e+00 5.3453092781943807e+00 0.0000000000000000e+00  2.4269998348820288e+00 2.2093117655281024e+01 0.0000000000000000e+00  2.2446166917338659e+00 1.8254879345146907e+01 0.0000000000000000e+00  1.4130225169505384e+00 2.7181615433648507e+00 0.0000000000000000e+00  2.0928401752701355e+00 1.5482465093668605e+01 0.0000000000000000e+00  2.6052491755110356e+00 2.6041632614095416e+01 0.0000000000000000e+00  1.5591977316246453e+00 5.6728655352654940e+00 0.0000000000000000e+00  1.5018334254516084e+00 4.6368589378598370e+00 0.0000000000000000e+00  2.6423775756195385e+00 2.7228804914858827e+01 0.0000000000000000e+00  2.1787748170293724e+00 1.7418689829446020e+01 0.0000000000000000e+00  1.1525865997022040e+00 -5.8239334941412357e-01 0.0000000000000000e+00  1.9013634782948154e+00 1.2127448646755964e+01 0.0000000000000000e+00  2.8047606287640323e+00 3.1184073911526390e+01 0.0000000000000000e+00  1.7050948144917815e+00 8.4894396568196857e+00 0.0000000000000000e+00  1.0584472420173658e+00 -1.4130134463872219e+00 0.0000000000000000e+00  2.1924286535618989e+00 1.7837702927860420e+01 0.0000000000000000e+00  2.7626637590691341e+00 3.0430299422815139e+01 0.0000000000000000e+00  1.4550881161912568e+00 4.2646660684963313e+00 0.0000000000000000e+00  1.0594659431021605e+00 -1.1099406485672416e+00 0.0000000000000000e+00  2.3145182461537477e+00 2.0279616763252317e+01 0.0000000000000000e+00  2.6981985843141354e+00 2.9164805331738137e+01 0.0000000000000000e+00  1.3871755646087789e+00 2.5200374803809966e+00 0.0000000000000000e+00  9.3292793031485755e-01 -4.1847407095436290e-01 0.0000000000000000e+00  1.0114077739186658e+00 8.7623465611564491e-02 0.0000000000000000e+00  9.9951865245942006e-01 -2.6560227153226958e-02 0.0000000000000000e+00  9.9844506791477627e-01 1.5259088447967991e-02 0.0000000000000000e+00  1.0017620671902212e+00 -1.2051879537268950e-02 0.0000000000000000e+00  9.9843595745825831e-01 9.9914263618367406e-03 0.0000000000000000e+00  1.0012852636602039e+00 -8.0812757385980982e-03 0.0000000000000000e+00  9.9898716159417156e-01 6.3522513075812258e-03 0.0000000000000000e+00  1.0007749365303580e+00 -4.8534372113124644e-03 0.0000000000000000e+00  9.9942129712254590e-01 3.6254084797298692e-03 0.0000000000000000e+00  1.0004233052815263e+00 -2.6508767998713566e-03 0.0000000000000000e+00  9.9969605784023918e-01 1.9038225552273967e-03 0.0000000000000000e+00  1.0002146245098211e+00 -1.3441249355453733e-03 0.0000000000000000e+00  9.9985075755320196e-01 9.3476795450464229e-04 0.0000000000000000e+00  1.0001023197676484e+00 -6.4081934304864542e-04 0.0000000000000000e+00  9.9993077019067511e-01 4.3360380181950762e-04 0.0000000000000000e+00  1.0000462673727202e+00 -2.8977358804127237e-04 0.0000000000000000e+00  9.9996943517617276e-01 1.9143282827148640e-04 0.0000000000000000e+00  1.0000199722241525e+00 -1.2508753880921525e-04 0.0000000000000000e+00  9.9998708358799804e-01 8.0897289376857662e-05 0.0000000000000000e+00  1.0000082718193926e+00 -5.1807217155206408e-05 0.0000000000000000e+00  9.9999475178598163e-01 3.2870217076378806e-05 0.0000000000000000e+00  1.0000033003828561e+00 -2.0670653974966588e-05 0.0000000000000000e+00  9.9999794205939385e-01 1.2889125198220252e-05 0.0000000000000000e+00  1.0000012728498406e+00 -7.9720008957050876e-06 0.0000000000000000e+00  9.9999921883188869e-01 4.8925462760883522e-06 0.0000000000000000e+00  1.0000004758513876e+00 -2.9803111741004354e-06 0.0000000000000000e+00  9.9999971220434225e-01 1.8024972303888106e-06 0.0000000000000000e+00  1.0000001728626471e+00 -1.0826584475153664e-06 0.0000000000000000e+00  9.9999989685880031e-01 6.4598513504893099e-07 0.0000000000000000e+00  1.0000000611477349e+00 -3.8297524295679974e-07 0.0000000000000000e+00  9.9999996397181479e-01 2.2564865241637696e-07 0.0000000000000000e+00  1.0000000211012965e+00 -1.3215983126072027e-07 0.0000000000000000e+00  9.9999998771242427e-01 7.6958491610591682e-08 0.0000000000000000e+00  1.0000000071153197e+00 -4.4564058338758009e-08 0.0000000000000000e+00  9.9999999590201871e-01 2.5666122249785896e-08 0.0000000000000000e+00  1.0000000023478237e+00 -1.4704684590323041e-08 0.0000000000000000e+00  9.9999999866171374e-01 8.3818433617062806e-09 0.0000000000000000e+00  1.0000000007590779e+00 -4.7541867498556635e-09 0.0000000000000000e+00  9.9999999957151253e-01 2.6836675245529984e-09 0.0000000000000000e+00  1.0000000002407494e+00 -1.5078404384001919e-09 0.0000000000000000e+00  9.9999999986534560e-01 8.4336209329270573e-10 0.0000000000000000e+00  1.0000000000749831e+00 -4.6962686571803129e-10 0.0000000000000000e+00  9.9999999995842503e-01 2.6039298125470757e-10 0.0000000000000000e+00  1.0000000000229559e+00 -1.4378081774255132e-10 0.0000000000000000e+00  9.9999999998737665e-01 7.9065560452960524e-11 0.0000000000000000e+00  1.0000000000069149e+00 -4.3300971971012387e-11 0.0000000000000000e+00  9.9999999999622780e-01 2.3627797310471520e-11 0.0000000000000000e+00  1.0000000000020510e+00 -1.2844242600339008e-11 0.0000000000000000e+00  9.9999999999888978e-01 6.9530279736905860e-12 0.0000000000000000e+00  1.0000000000005991e+00 -3.7543519612841321e-12 0.0000000000000000e+00  9.9999999999967815e-01 2.0239046132538262e-12 0.0000000000000000e+00  1.0000000000001730e+00 -1.0857654332571185e-12 0.0000000000000000e+00  9.9999999999990796e-01 5.8015229510568583e-13 0.0000000000000000e+00  1.0000000000000493e+00 -3.0902594937617564e-13 0.0000000000000000e+00  9.9999999999997369e-01 1.6524063161200973e-13 0.0000000000000000e+00  1.0000000000000138e+00 -8.2570268310348594e-14 0.0000000000000000e+00  9.9999999999999256e-01 4.5466246298203510e-14 0.0000000000000000e+00  1.0000000000000036e+00 -2.0552635936391706e-14 0.0000000000000000e+00  9.9999999999999800e-01 1.2681961844032341e-14 0.0000000000000000e+00  1.0000000000000009e+00 -4.7478580661639889e-15 0.0000000000000000e+00  9.9999999999999956e-01 9.4397167998752133e-16 0.0000000000000000e+00  1.0000000000000002e+00 -2.3966902828998589e-15 0.0000000000000000e+00  9.9999999999999933e-01 1.2850904345760293e-15 0.0000000000000000e+00  1.0000000000000007e+00 -9.6515185810568817e-16 0.0000000000000000e+00  1.0000000000000007e+00 4.5590333789735819e-15 0.0000000000000000e+00  9.9999999999999989e-01 1.4417967017164027e-15 0.0000000000000000e+00  1.0000000000000000e+00 0.0000000000000000e+00 0.0000000000000000e+00  </DataArray> 
</PointData> 
</Piece>
</UnstructuredGrid>
</VTKFile>