<?xml version="1.0"?>
<VTKFile type="UnstructuredGrid"  version="0.1"  >
<UnstructuredGrid>
<Piece  NumberOfPoints="201" NumberOfCells="200">
<Points>
<DataArray  type="Float64"  NumberOfComponents="3"  format="ascii">-5 0 0  -4.95 0 0  -4.9 0 0  -4.85 0 0  -4.8 0 0  -4.75 0 0  -4.7 0 0  -4.65 0 0  -4.6 0 0  -4.55 0 0  -4.5 0 0  -4.45 0 0  -4.4 0 0  -4.35 0 0  -4.3 0 0  -4.25 0 0  -4.2 0 0  -4.15 0 0  -4.1 0 0  -4.05 0 0  -4 0 0  -3.95 0 0  -3.9 0 0  -3.85 0 0  -3.8 0 0  -3.75 0 0  -3.7 0 0  -3.65 0 0  -3.6 0 0  -3.55 0 0  -3.5 0 0  -3.45 0 0  -3.4 0 0  -3.35 0 0  -3.3 0 0  -3.25 0 0  -3.2 0 0  -3.15 0 0  -3.1 0 0  -3.05 0 0  -3 0 0  -2.95 0 0  -2.9 0 0  -2.85 0 0  -2.8 0 0  -2.75 0 0  -2.7 0 0  -2.65 0 0  -2.6 0 0  -2.55 0 0  -2.5 0 0  -2.45 0 0  -2.4 0 0  -2.35 0 0  -2.3 0 0  -2.25 0 0  -2.2 0 0  -2.15 0 0  -2.1 0 0  -2.05 0 0  -2 0 0  -1.95 0 0  -1.9 0 0  -1.85 0 0  -1.8 0 0  -1.75 0 0  -1.7 0 0  -1.65 0 0  -1.6 0 0  -1.55 0 0  -1.5 0 0  -1.45 0 0  -1.4 0 0  -1.35 0 0  -1.3 0 0  -1.25 0 0  -1.2 0 0  -1.15 0 0  -1.1 0 0  -1.05 0 0  -1 0 0  -0.9500000000000002 0 0  -0.9000000000000004 0 0  -0.8499999999999996 0 0  -0.7999999999999998 0 0  -0.75 0 0  -0.7000000000000002 0 0  -0.6500000000000004 0 0  -0.5999999999999996 0 0  -0.5499999999999998 0 0  -0.5 0 0  -0.4500000000000002 0 0  -0.4000000000000004 0 0  -0.3499999999999996 0 0  -0.2999999999999998 0 0  -0.25 0 0  -0.2000000000000002 0 0  -0.1500000000000004 0 0  -0.09999999999999964 0 0  -0.04999999999999982 0 0  0 0 0  0.04999999999999982 0 0  0.09999999999999964 0 0  0.1500000000000004 0 0  0.2000000000000002 0 0  0.25 0 0  0.2999999999999998 0 0  0.3499999999999996 0 0  0.4000000000000004 0 0  0.4500000000000002 0 0  0.5 0 0  0.5499999999999998 0 0  0.5999999999999996 0 0  0.6500000000000004 0 0  0.7000000000000002 0 0  0.75 0 0  0.7999999999999998 0 0  0.8499999999999996 0 0  0.9000000000000004 0 0  0.9500000000000002 0 0  1 0 0  1.05 0 0  1.1 0 0  1.15 0 0  1.2 0 0  1.25 0 0  1.3 0 0  1.35 0 0  1.4 0 0  1.45 0 0  1.5 0 0  1.55 0 0  1.6 0 0  1.65 0 0  1.7 0 0  1.75 0 0  1.8 0 0  1.85 0 0  1.9 0 0  1.95 0 0  2 0 0  2.05 0 0  2.1 0 0  2.15 0 0  2.2 0 0  2.25 0 0  2.3 0 0  2.35 0 0  2.4 0 0  2.45 0 0  2.5 0 0  2.55 0 0  2.6 0 0  2.65 0 0  2.7 0 0  2.75 0 0  2.8 0 0  2.85 0 0  2.9 0 0  2.95 0 0  3 0 0  3.050000000000001 0 0  3.1 0 0  3.15 0 0  3.199999999999999 0 0  3.25 0 0  3.300000000000001 0 0  3.35 0 0  3.4 0 0  3.449999999999999 0 0  3.5 0 0  3.550000000000001 0 0  3.6 0 0  3.65 0 0  3.699999999999999 0 0  3.75 0 0  3.800000000000001 0 0  3.85 0 0  3.9 0 0  3.949999999999999 0 0  4 0 0  4.050000000000001 0 0  4.1 0 0  4.15 0 0  4.199999999999999 0 0  4.25 0 0  4.300000000000001 0 0  4.35 0 0  4.4 0 0  4.449999999999999 0 0  4.5 0 0  4.550000000000001 0 0  4.6 0 0  4.65 0 0  4.699999999999999 0 0  4.75 0 0  4.800000000000001 0 0  4.85 0 0  4.9 0 0  4.949999999999999 0 0  5 0 0  </DataArray>
</Points>
<Cells>
<DataArray  type="UInt32"  Name="connectivity"  format="ascii">0 1  1 2  2 3  3 4  4 5  5 6  6 7  7 8  8 9  9 10  10 11  11 12  12 13  13 14  14 15  15 16  16 17  17 18  18 19  19 20  20 21  21 22  22 23  23 24  24 25  25 26  26 27  27 28  28 29  29 30  30 31  31 32  32 33  33 34  34 35  35 36  36 37  37 38  38 39  39 40  40 41  41 42  42 43  43 44  44 45  45 46  46 47  47 48  48 49  49 50  50 51  51 52  52 53  53 54  54 55  55 56  56 57  57 58  58 59  59 60  60 61  61 62  62 63  63 64  64 65  65 66  66 67  67 68  68 69  69 70  70 71  71 72  72 73  73 74  74 75  75 76  76 77  77 78  78 79  79 80  80 81  81 82  82 83  83 84  84 85  85 86  86 87  87 88  88 89  89 90  90 91  91 92  92 93  93 94  94 95  95 96  96 97  97 98  98 99  99 100  100 101  101 102  102 103  103 104  104 105  105 106  106 107  107 108  108 109  109 110  110 111  111 112  112 113  113 114  114 115  115 116  116 117  117 118  118 119  119 120  120 121  121 122  122 123  123 124  124 125  125 126  126 127  127 128  128 129  129 130  130 131  131 132  132 133  133 134  134 135  135 136  136 137  137 138  138 139  139 140  140 141  141 142  142 143  143 144  144 145  145 146  146 147  147 148  148 149  149 150  150 151  151 152  152 153  153 154  154 155  155 156  156 157  157 158  158 159  159 160  160 161  161 162  162 163  163 164  164 165  165 166  166 167  167 168  168 169  169 170  170 171  171 172  172 173  173 174  174 175  175 176  176 177  177 178  178 179  179 180  180 181  181 182  182 183  183 184  184 185  185 186  186 187  187 188  188 189  189 190  190 191  191 192  192 193  193 194  194 195  195 196  196 197  197 198  198 199  199 200  </DataArray>
<DataArray  type="UInt32"  Name="offsets"  format="ascii">2 4 6 8 10 12 14 16 18 20 22 24 26 28 30 32 34 36 38 40 42 44 46 48 50 52 54 56 58 60 62 64 66 68 70 72 74 76 78 80 82 84 86 88 90 92 94 96 98 100 102 104 106 108 110 112 114 116 118 120 122 124 126 128 130 132 134 136 138 140 142 144 146 148 150 152 154 156 158 160 162 164 166 168 170 172 174 176 178 180 182 184 186 188 190 192 194 196 198 200 202 204 206 208 210 212 214 216 218 220 222 224 226 228 230 232 234 236 238 240 242 244 246 248 250 252 254 256 258 260 262 264 266 268 270 272 274 276 278 280 282 284 286 288 290 292 294 296 298 300 302 304 306 308 310 312 314 316 318 320 322 324 326 328 330 332 334 336 338 340 342 344 346 348 350 352 354 356 358 360 362 364 366 368 370 372 374 376 378 380 382 384 386 388 390 392 394 396 398 400 </DataArray>
<DataArray  type="UInt8"  Name="types"  format="ascii">3 3 3 3 3 3 3 3 3 3 3 3 3 3 3 3 3 3 3 3 3 3 3 3 3 3 3 3 3 3 3 3 3 3 3 3 3 3 3 3 3 3 3 3 3 3 3 3 3 3 3 3 3 3 3 3 3 3 3 3 3 3 3 3 3 3 3 3 3 3 3 3 3 3 3 3 3 3 3 3 3 3 3 3 3 3 3 3 3 3 3 3 3 3 3 3 3 3 3 3 3 3 3 3 3 3 3 3 3 3 3 3 3 3 3 3 3 3 3 3 3 3 3 3 3 3 3 3 3 3 3 3 3 3 3 3 3 3 3 3 3 3 3 3 3 3 3 3 3 3 3 3 3 3 3 3 3 3 3 3 3 3 3 3 3 3 3 3 3 3 3 3 3 3 3 3 3 3 3 3 3 3 3 3 3 3 3 3 3 3 3 3 3 3 3 3 3 3 3 3 </DataArray>
</Cells>
<PointData  Vectors="(s, w)"> 
<DataArray  type="Float64"  Name="(s, w)"  NumberOfComponents="3" format="ascii">3.1104107568219548e+00 0.0000000000000000e+00 0.0000000000000000e+00  3.1003749121842024e+00 3.8678894829829452e-01 0.0000000000000000e+00  3.1004122831792711e+00 3.4806262284556194e-01 0.0000000000000000e+00  3.1038517045820289e+00 9.5598300711122142e-01 0.0000000000000000e+00  3.0812398307546576e+00 9.6168832410042726e-01 0.0000000000000000e+00  3.0965231601696690e+00 1.2059123658468016e+00 0.0000000000000000e+00  3.0688766949780586e+00 1.6691665571188476e+00 0.0000000000000000e+00  3.0732966656561107e+00 1.4875924454856222e+00 0.0000000000000000e+00  3.0611450723335687e+00 2.0644618024470351e+00 0.0000000000000000e+00  3.0474598517718792e+00 2.0870380336957948e+00 0.0000000000000000e+00  3.0445601646281726e+00 2.1510896346663988e+00 0.0000000000000000e+00  3.0303681295894749e+00 2.7248463503847038e+00 0.0000000000000000e+00  3.0182169551038545e+00 2.4310761469027828e+00 0.0000000000000000e+00  3.0164911196618971e+00 2.9565475848725526e+00 0.0000000000000000e+00  2.9932001274805495e+00 3.1201755463460508e+00 0.0000000000000000e+00  2.9977185080054287e+00 2.9746123926096519e+00 0.0000000000000000e+00  2.9730238843456780e+00 3.7043429759332391e+00 0.0000000000000000e+00  2.9757618266131312e+00 3.3842391109655248e+00 0.0000000000000000e+00  2.9546428022050382e+00 3.7785676321364319e+00 0.0000000000000000e+00  2.9512868343598422e+00 4.1379039405407330e+00 0.0000000000000000e+00  2.9396881110666930e+00 3.8240348641894100e+00 0.0000000000000000e+00  2.9236567932180098e+00 4.5450072235096570e+00 0.0000000000000000e+00  2.9230616924822930e+00 4.3847374492805971e+00 0.0000000000000000e+00  2.9049022387425296e+00 4.5195187386130753e+00 0.0000000000000000e+00  2.8915601111501430e+00 5.0641721567398994e+00 0.0000000000000000e+00  2.8998011339852763e+00 4.7394450746117736e+00 0.0000000000000000e+00  2.8573952338024822e+00 5.2927656088294901e+00 0.0000000000000000e+00  2.8813639403187778e+00 5.3528361808820426e+00 0.0000000000000000e+00  2.8496146005393936e+00 5.3649533787291137e+00 0.0000000000000000e+00  2.8372583837364180e+00 5.8199951676099060e+00 0.0000000000000000e+00  2.8509163917237128e+00 5.7120371707073438e+00 0.0000000000000000e+00  2.8087450339627273e+00 6.0389890628564995e+00 0.0000000000000000e+00  2.8166674011935640e+00 6.1465054549831093e+00 0.0000000000000000e+00  2.8152365056972588e+00 6.2763788456966108e+00 0.0000000000000000e+00  2.7683073335640267e+00 6.5475568318568973e+00 0.0000000000000000e+00  2.8053108813211622e+00 6.4849966385007267e+00 0.0000000000000000e+00  2.7593281892271229e+00 6.9512352814497138e+00 0.0000000000000000e+00  2.7574360611507753e+00 6.8142737663844075e+00 0.0000000000000000e+00  2.7652639545359654e+00 7.0579884910567188e+00 0.0000000000000000e+00  2.7250477045233983e+00 7.4647447198598256e+00 0.0000000000000000e+00  2.7363163847561793e+00 7.0906241017159299e+00 0.0000000000000000e+00  2.7246318815389259e+00 7.7599539228636818e+00 0.0000000000000000e+00  2.6956738376165719e+00 7.7408693357892808e+00 0.0000000000000000e+00  2.7146818657288794e+00 7.5268271173407850e+00 0.0000000000000000e+00  2.6746880728998939e+00 8.3891270276993417e+00 0.0000000000000000e+00  2.6860043416067514e+00 7.9023505720477054e+00 0.0000000000000000e+00  2.6651551302517480e+00 8.1683657218294137e+00 0.0000000000000000e+00  2.6514205279402874e+00 8.7676582163327854e+00 0.0000000000000000e+00  2.6582015931124401e+00 8.1747265780400404e+00 0.0000000000000000e+00  2.6228450599474908e+00 8.8313345825239082e+00 0.0000000000000000e+00  2.6298819473347468e+00 8.9733552682943998e+00 0.0000000000000000e+00  2.6264790873201465e+00 8.6466100575538647e+00 0.0000000000000000e+00  2.5790110313561230e+00 9.3423278605142261e+00 0.0000000000000000e+00  2.6210814733246872e+00 9.1710992965457905e+00 0.0000000000000000e+00  2.5733457340537829e+00 9.2527366563872864e+00 0.0000000000000000e+00  2.5599977598429606e+00 9.6428964138714726e+00 0.0000000000000000e+00  2.5919126494960354e+00 9.4898477938949188e+00 0.0000000000000000e+00  2.5308822009939536e+00 9.8490994056241696e+00 0.0000000000000000e+00  2.5407403781638958e+00 9.8052780817453549e+00 0.0000000000000000e+00  2.5583889000044087e+00 9.9768945626444321e+00 0.0000000000000000e+00  2.4887964461667105e+00 1.0282682770477299e+01 0.0000000000000000e+00  2.5295327869760444e+00 9.9826532348487618e+00 0.0000000000000000e+00  2.5079155701406193e+00 1.0535424204188438e+01 0.0000000000000000e+00  2.4679725422123830e+00 1.0591250209680252e+01 0.0000000000000000e+00  2.5009921996536715e+00 1.0198420953559236e+01 0.0000000000000000e+00  2.4635283166339073e+00 1.1102880407235922e+01 0.0000000000000000e+00  2.4505609365457377e+00 1.0777733351832238e+01 0.0000000000000000e+00  2.4680926474075138e+00 1.0584365299475159e+01 0.0000000000000000e+00  2.4186495978969682e+00 1.1515074058066320e+01 0.0000000000000000e+00  2.4413087082159994e+00 1.0983569091157573e+01 0.0000000000000000e+00  2.4197797405955215e+00 1.0995547969830605e+01 0.0000000000000000e+00  2.3895250191980959e+00 1.1857608475641031e+01 0.0000000000000000e+00  2.4241503562089828e+00 1.1206114791851618e+01 0.0000000000000000e+00  2.3719296218743060e+00 1.1481035317687351e+01 0.0000000000000000e+00  2.3627079108052160e+00 1.1990992137968414e+01 0.0000000000000000e+00  2.4045510429672827e+00 1.1567511827842251e+01 0.0000000000000000e+00  2.3215344714175679e+00 1.1924322359430802e+01 0.0000000000000000e+00  2.3482125063383390e+00 1.2092430935712098e+01 0.0000000000000000e+00  2.3694838165906780e+00 1.1962495628927048e+01 0.0000000000000000e+00  2.2829126868941994e+00 1.2358108135997053e+01 0.0000000000000000e+00  2.3294369125613481e+00 1.2061020593419617e+01 0.0000000000000000e+00  2.3279675011105763e+00 1.2467376169728112e+01 0.0000000000000000e+00  2.2538173467211586e+00 1.2714733762687633e+01 0.0000000000000000e+00  2.3145109503190477e+00 1.2095423098098586e+01 0.0000000000000000e+00  2.2667551105048589e+00 1.2927637468447173e+01 0.0000000000000000e+00  2.2509910044269748e+00 1.2986127435712094e+01 0.0000000000000000e+00  2.2794594389289116e+00 1.2199539702597177e+01 0.0000000000000000e+00  2.2056631601800962e+00 1.3321682492584095e+01 0.0000000000000000e+00  2.2668266298330577e+00 1.3139301140278414e+01 0.0000000000000000e+00  2.2231771510977287e+00 1.2661383123455751e+01 0.0000000000000000e+00  2.1583113551415312e+00 1.3355355415494955e+01 0.0000000000000000e+00  2.2916804848916428e+00 1.3329129239974696e+01 0.0000000000000000e+00  2.1104391101271900e+00 1.3480172934421928e+01 0.0000000000000000e+00  2.2126445283430116e+00 1.2559512058138168e+01 0.0000000000000000e+00  2.1737253229324907e+00 1.4550959436404199e+01 0.0000000000000000e+00  2.1747662391074027e+00 1.3125404056430755e+01 0.0000000000000000e+00  2.1016379993962100e+00 1.2965179809506971e+01 0.0000000000000000e+00  2.2025902108820299e+00 1.4701619920896254e+01 0.0000000000000000e+00  2.1196848339467822e+00 1.3599136355900042e+01 0.0000000000000000e+00  2.0658808833963409e+00 1.2737324794748515e+01 0.0000000000000000e+00  2.1693340542257489e+00 1.5315592063318938e+01 0.0000000000000000e+00  2.1012777213176621e+00 1.3767107234057388e+01 0.0000000000000000e+00  2.0124369814313812e+00 1.2522268994121251e+01 0.0000000000000000e+00  2.1868269979202970e+00 1.5726729365525744e+01 0.0000000000000000e+00  2.0939378051423563e+00 1.3989642461458070e+01 0.0000000000000000e+00  1.9921669906749304e+00 1.1844557410631271e+01 0.0000000000000000e+00  2.2015549377822783e+00 1.6219832757985230e+01 0.0000000000000000e+00  2.1141462430160525e+00 1.4408146053418186e+01 0.0000000000000000e+00  1.9313768245481733e+00 1.0962484806724035e+01 0.0000000000000000e+00  2.2103491012795553e+00 1.6430163367263457e+01 0.0000000000000000e+00  2.1546841433122101e+00 1.5456114018938626e+01 0.0000000000000000e+00  1.8723818811924291e+00 9.8506928995127012e+00 0.0000000000000000e+00  2.1777598933171083e+00 1.6009592692833351e+01 0.0000000000000000e+00  2.2374930788471152e+00 1.7145835875314496e+01 0.0000000000000000e+00  1.8252348118071693e+00 9.1624025566791634e+00 0.0000000000000000e+00  2.0979808621284275e+00 1.4484582026889816e+01 0.0000000000000000e+00  2.3311821920296296e+00 1.9226422419237878e+01 0.0000000000000000e+00  1.8357713709543320e+00 9.4525625790055727e+00 0.0000000000000000e+00  1.9593117121611965e+00 1.1939716932727810e+01 0.0000000000000000e+00  2.4055620623154526e+00 2.0817628362498162e+01 0.0000000000000000e+00  1.9181645507310339e+00 1.1245914854592622e+01 0.0000000000000000e+00  1.7993653700210239e+00 8.9052304761656327e+00 0.0000000000000000e+00  2.4039619204360330e+00 2.0978098362802424e+01 0.0000000000000000e+00  2.0816587747476540e+00 1.4514865232852614e+01 0.0000000000000000e+00  1.6632190097250781e+00 6.4824514708667946e+00 0.0000000000000000e+00  2.2978298664653871e+00 1.8914344586363139e+01 0.0000000000000000e+00  2.2857899636769252e+00 1.8716162949670696e+01 0.0000000000000000e+00  1.6198415077208055e+00 5.7689845953467938e+00 0.0000000000000000e+00  2.0792297712737042e+00 1.4694088799207512e+01 0.0000000000000000e+00  2.4682046684479246e+00 2.2483682159395318e+01 0.0000000000000000e+00  1.7118603339501830e+00 7.6835453689248503e+00 0.0000000000000000e+00  1.8010232241532966e+00 9.3426332105726058e+00 0.0000000000000000e+00  2.5309315863478585e+00 2.3942922365456862e+01 0.0000000000000000e+00  1.9559437583197830e+00 1.2426487342591145e+01 0.0000000000000000e+00  1.5547932796322714e+00 4.8679626573747248e+00 0.0000000000000000e+00  2.3959272502359799e+00 2.1276478240271700e+01 0.0000000000000000e+00  2.2904950569139459e+00 1.9150139775523400e+01 0.0000000000000000e+00  1.4717646401527438e+00 3.5106180886300531e+00 0.0000000000000000e+00  2.0490516675001795e+00 1.4453362259030476e+01 0.0000000000000000e+00  2.5731336227943973e+00 2.5068581285013490e+01 0.0000000000000000e+00  1.6515130080642766e+00 7.0007331513998077e+00 0.0000000000000000e+00  1.6194171624504721e+00 6.3640510358569422e+00 0.0000000000000000e+00  2.5876513369963816e+00 2.5593234327141275e+01 0.0000000000000000e+00  2.0858149628839082e+00 1.5321723321066786e+01 0.0000000000000000e+00  1.3466209472606088e+00 1.7207809469971513e+00 0.0000000000000000e+00  2.2136416113419717e+00 1.7966652309639930e+01 0.0000000000000000e+00  2.5581836065091981e+00 2.5077255663298072e+01 0.0000000000000000e+00  1.4760645519468616e+00 4.1560615188143641e+00 0.0000000000000000e+00  1.6218591344962578e+00 6.7288251219153379e+00 0.0000000000000000e+00  2.6749049256968584e+00 2.7750538736562376e+01 0.0000000000000000e+00  2.0240495347402585e+00 1.4325581872559139e+01 0.0000000000000000e+00  1.2419376880255342e+00 3.5668209314428262e-01 0.0000000000000000e+00  2.1903708188628297e+00 1.7682928587860310e+01 0.0000000000000000e+00  2.6354624611551656e+00 2.6964964261281246e+01 0.0000000000000000e+00  1.4586243599454234e+00 4.1271778309819211e+00 0.0000000000000000e+00  1.4561336910705749e+00 4.0217311787844556e+00 0.0000000000000000e+00  2.6525912558450369e+00 2.7520810627627103e+01 0.0000000000000000e+00  2.2053027183268563e+00 1.7973263159125118e+01 0.0000000000000000e+00  1.1585714218772771e+00 -5.1662904277312094e-01 0.0000000000000000e+00  1.8966544170241260e+00 1.1990976115301342e+01 0.0000000000000000e+00  2.7823858744096022e+00 3.0563382173441905e+01 0.0000000000000000e+00  1.7046559918296926e+00 8.4876259973151953e+00 0.0000000000000000e+00  1.1572564115073851e+00 -3.7612013003596506e-01 0.0000000000000000e+00  2.3380818237530598e+00 2.0846429001807845e+01 0.0000000000000000e+00  2.6212054872712685e+00 2.6972712423933704e+01 0.0000000000000000e+00  1.3240677845563988e+00 2.2272724157906971e+00 0.0000000000000000e+00  1.3431001396348348e+00 2.4907527671812990e+00 0.0000000000000000e+00  2.6508255267235930e+00 2.7735878295379607e+01 0.0000000000000000e+00  2.3270262889171272e+00 2.0569771555261291e+01 0.0000000000000000e+00  1.1042395419005560e+00 -8.0337317282216703e-01 0.0000000000000000e+00  1.5851121266678878e+00 6.3934036103058851e+00 0.0000000000000000e+00  2.8045073216007084e+00 3.1390124946419608e+01 0.0000000000000000e+00  2.0405830140387966e+00 1.4681085608600732e+01 0.0000000000000000e+00  1.0088521590079815e+00 -1.8438810665036185e+00 0.0000000000000000e+00  1.7974521400972843e+00 1.0073234193297724e+01 0.0000000000000000e+00  2.8494390106588385e+00 3.2562669953897633e+01 0.0000000000000000e+00  1.8231314829189631e+00 1.0499362650759096e+01 0.0000000000000000e+00  9.7855600626613326e-01 -2.0400694081812265e+00 0.0000000000000000e+00  1.9505256087074927e+00 1.2899912361653922e+01 0.0000000000000000e+00  2.8450434413151044e+00 3.2524834463378276e+01 0.0000000000000000e+00  1.6792264315081824e+00 7.9067695373109430e+00 0.0000000000000000e+00  9.8247126570005339e-01 -1.9204501743208171e+00 0.0000000000000000e+00  2.0637843513173331e+00 1.5092851139003017e+01 0.0000000000000000e+00  2.8180469316696031e+00 3.1859343925847796e+01 0.0000000000000000e+00  1.5758777974220504e+00 6.1836557663621896e+00 0.0000000000000000e+00  1.0333310288646183e+00 -1.4506629265814150e+00 0.0000000000000000e+00  2.2208615826294555e+00 1.8318081310696837e+01 0.0000000000000000e+00  2.7445134937718425e+00 3.0018047472231384e+01 0.0000000000000000e+00  1.4302698162029612e+00 3.8866551529914974e+00 0.0000000000000000e+00  1.1225091332231065e+00 -4.5552557475642386e-01 0.0000000000000000e+00  2.4186931456377074e+00 2.2596153654460867e+01 0.0000000000000000e+00  2.6231951222946490e+00 2.7176060564618471e+01 0.0000000000000000e+00  1.2669026038267979e+00 1.5040152645499534e+00 0.0000000000000000e+00  1.2119569201739662e+00 7.4905354260537038e-01 0.0000000000000000e+00  2.5650611099096055e+00 2.5836289883013254e+01 0.0000000000000000e+00  2.4875432432751960e+00 2.4294512230685985e+01 0.0000000000000000e+00  1.1882496350085787e+00 -1.7307618853676557e-01 0.0000000000000000e+00  9.4793975441216349e-01 1.2647185782797138e-01 0.0000000000000000e+00  1.0145615488873279e+00 -5.4626423204604105e-02 0.0000000000000000e+00  9.9610748079946099e-01 1.8729530009566793e-02 0.0000000000000000e+00  1.0015936452947269e+00 0.0000000000000000e+00 0.0000000000000000e+00  </DataArray> 
</PointData> 
</Piece>
</UnstructuredGrid>
</VTKFile>