<?xml version="1.0"?>
<VTKFile type="UnstructuredGrid"  version="0.1"  >
<UnstructuredGrid>
<Piece  NumberOfPoints="201" NumberOfCells="200">
<Points>
<DataArray  type="Float64"  NumberOfComponents="3"  format="ascii">-5 0 0  -4.95 0 0  -4.9 0 0  -4.85 0 0  -4.8 0 0  -4.75 0 0  -4.7 0 0  -4.65 0 0  -4.6 0 0  -4.55 0 0  -4.5 0 0  -4.45 0 0  -4.4 0 0  -4.35 0 0  -4.3 0 0  -4.25 0 0  -4.2 0 0  -4.15 0 0  -4.1 0 0  -4.05 0 0  -4 0 0  -3.95 0 0  -3.9 0 0  -3.85 0 0  -3.8 0 0  -3.75 0 0  -3.7 0 0  -3.65 0 0  -3.6 0 0  -3.55 0 0  -3.5 0 0  -3.45 0 0  -3.4 0 0  -3.35 0 0  -3.3 0 0  -3.25 0 0  -3.2 0 0  -3.15 0 0  -3.1 0 0  -3.05 0 0  -3 0 0  -2.95 0 0  -2.9 0 0  -2.85 0 0  -2.8 0 0  -2.75 0 0  -2.7 0 0  -2.65 0 0  -2.6 0 0  -2.55 0 0  -2.5 0 0  -2.45 0 0  -2.4 0 0  -2.35 0 0  -2.3 0 0  -2.25 0 0  -2.2 0 0  -2.15 0 0  -2.1 0 0  -2.05 0 0  -2 0 0  -1.95 0 0  -1.9 0 0  -1.85 0 0  -1.8 0 0  -1.75 0 0  -1.7 0 0  -1.65 0 0  -1.6 0 0  -1.55 0 0  -1.5 0 0  -1.45 0 0  -1.4 0 0  -1.35 0 0  -1.3 0 0  -1.25 0 0  -1.2 0 0  -1.15 0 0  -1.1 0 0  -1.05 0 0  -1 0 0  -0.9500000000000002 0 0  -0.9000000000000004 0 0  -0.8499999999999996 0 0  -0.7999999999999998 0 0  -0.75 0 0  -0.7000000000000002 0 0  -0.6500000000000004 0 0  -0.5999999999999996 0 0  -0.5499999999999998 0 0  -0.5 0 0  -0.4500000000000002 0 0  -0.4000000000000004 0 0  -0.3499999999999996 0 0  -0.2999999999999998 0 0  -0.25 0 0  -0.2000000000000002 0 0  -0.1500000000000004 0 0  -0.09999999999999964 0 0  -0.04999999999999982 0 0  0 0 0  0.04999999999999982 0 0  0.09999999999999964 0 0  0.1500000000000004 0 0  0.2000000000000002 0 0  0.25 0 0  0.2999999999999998 0 0  0.3499999999999996 0 0  0.4000000000000004 0 0  0.4500000000000002 0 0  0.5 0 0  0.5499999999999998 0 0  0.5999999999999996 0 0  0.6500000000000004 0 0  0.7000000000000002 0 0  0.75 0 0  0.7999999999999998 0 0  0.8499999999999996 0 0  0.9000000000000004 0 0  0.9500000000000002 0 0  1 0 0  1.05 0 0  1.1 0 0  1.15 0 0  1.2 0 0  1.25 0 0  1.3 0 0  1.35 0 0  1.4 0 0  1.45 0 0  1.5 0 0  1.55 0 0  1.6 0 0  1.65 0 0  1.7 0 0  1.75 0 0  1.8 0 0  1.85 0 0  1.9 0 0  1.95 0 0  2 0 0  2.05 0 0  2.1 0 0  2.15 0 0  2.2 0 0  2.25 0 0  2.3 0 0  2.35 0 0  2.4 0 0  2.45 0 0  2.5 0 0  2.55 0 0  2.6 0 0  2.65 0 0  2.7 0 0  2.75 0 0  2.8 0 0  2.85 0 0  2.9 0 0  2.95 0 0  3 0 0  3.050000000000001 0 0  3.1 0 0  3.15 0 0  3.199999999999999 0 0  3.25 0 0  3.300000000000001 0 0  3.35 0 0  3.4 0 0  3.449999999999999 0 0  3.5 0 0  3.550000000000001 0 0  3.6 0 0  3.65 0 0  3.699999999999999 0 0  3.75 0 0  3.800000000000001 0 0  3.85 0 0  3.9 0 0  3.949999999999999 0 0  4 0 0  4.050000000000001 0 0  4.1 0 0  4.15 0 0  4.199999999999999 0 0  4.25 0 0  4.300000000000001 0 0  4.35 0 0  4.4 0 0  4.449999999999999 0 0  4.5 0 0  4.550000000000001 0 0  4.6 0 0  4.65 0 0  4.699999999999999 0 0  4.75 0 0  4.800000000000001 0 0  4.85 0 0  4.9 0 0  4.949999999999999 0 0  5 0 0  </DataArray>
</Points>
<Cells>
<DataArray  type="UInt32"  Name="connectivity"  format="ascii">0 1  1 2  2 3  3 4  4 5  5 6  6 7  7 8  8 9  9 10  10 11  11 12  12 13  13 14  14 15  15 16  16 17  17 18  18 19  19 20  20 21  21 22  22 23  23 24  24 25  25 26  26 27  27 28  28 29  29 30  30 31  31 32  32 33  33 34  34 35  35 36  36 37  37 38  38 39  39 40  40 41  41 42  42 43  43 44  44 45  45 46  46 47  47 48  48 49  49 50  50 51  51 52  52 53  53 54  54 55  55 56  56 57  57 58  58 59  59 60  60 61  61 62  62 63  63 64  64 65  65 66  66 67  67 68  68 69  69 70  70 71  71 72  72 73  73 74  74 75  75 76  76 77  77 78  78 79  79 80  80 81  81 82  82 83  83 84  84 85  85 86  86 87  87 88  88 89  89 90  90 91  91 92  92 93  93 94  94 95  95 96  96 97  97 98  98 99  99 100  100 101  101 102  102 103  103 104  104 105  105 106  106 107  107 108  108 109  109 110  110 111  111 112  112 113  113 114  114 115  115 116  116 117  117 118  118 119  119 120  120 121  121 122  122 123  123 124  124 125  125 126  126 127  127 128  128 129  129 130  130 131  131 132  132 133  133 134  134 135  135 136  136 137  137 138  138 139  139 140  140 141  141 142  142 143  143 144  144 145  145 146  146 147  147 148  148 149  149 150  150 151  151 152  152 153  153 154  154 155  155 156  156 157  157 158  158 159  159 160  160 161  161 162  162 163  163 164  164 165  165 166  166 167  167 168  168 169  169 170  170 171  171 172  172 173  173 174  174 175  175 176  176 177  177 178  178 179  179 180  180 181  181 182  182 183  183 184  184 185  185 186  186 187  187 188  188 189  189 190  190 191  191 192  192 193  193 194  194 195  195 196  196 197  197 198  198 199  199 200  </DataArray>
<DataArray  type="UInt32"  Name="offsets"  format="ascii">2 4 6 8 10 12 14 16 18 20 22 24 26 28 30 32 34 36 38 40 42 44 46 48 50 52 54 56 58 60 62 64 66 68 70 72 74 76 78 80 82 84 86 88 90 92 94 96 98 100 102 104 106 108 110 112 114 116 118 120 122 124 126 128 130 132 134 136 138 140 142 144 146 148 150 152 154 156 158 160 162 164 166 168 170 172 174 176 178 180 182 184 186 188 190 192 194 196 198 200 202 204 206 208 210 212 214 216 218 220 222 224 226 228 230 232 234 236 238 240 242 244 246 248 250 252 254 256 258 260 262 264 266 268 270 272 274 276 278 280 282 284 286 288 290 292 294 296 298 300 302 304 306 308 310 312 314 316 318 320 322 324 326 328 330 332 334 336 338 340 342 344 346 348 350 352 354 356 358 360 362 364 366 368 370 372 374 376 378 380 382 384 386 388 390 392 394 396 398 400 </DataArray>
<DataArray  type="UInt8"  Name="types"  format="ascii">3 3 3 3 3 3 3 3 3 3 3 3 3 3 3 3 3 3 3 3 3 3 3 3 3 3 3 3 3 3 3 3 3 3 3 3 3 3 3 3 3 3 3 3 3 3 3 3 3 3 3 3 3 3 3 3 3 3 3 3 3 3 3 3 3 3 3 3 3 3 3 3 3 3 3 3 3 3 3 3 3 3 3 3 3 3 3 3 3 3 3 3 3 3 3 3 3 3 3 3 3 3 3 3 3 3 3 3 3 3 3 3 3 3 3 3 3 3 3 3 3 3 3 3 3 3 3 3 3 3 3 3 3 3 3 3 3 3 3 3 3 3 3 3 3 3 3 3 3 3 3 3 3 3 3 3 3 3 3 3 3 3 3 3 3 3 3 3 3 3 3 3 3 3 3 3 3 3 3 3 3 3 3 3 3 3 3 3 3 3 3 3 3 3 3 3 3 3 3 3 </DataArray>
</Cells>
<PointData  Vectors="(s, w)"> 
<DataArray  type="Float64"  Name="(s, w)"  NumberOfComponents="3" format="ascii">3.1622756711658306e+00 0.0000000000000000e+00 0.0000000000000000e+00  3.1622797595034138e+00 1.3441700149984792e-05 0.0000000000000000e+00  3.1622752187861174e+00 -2.8303444133511313e-05 0.0000000000000000e+00  3.1622807094194609e+00 4.6138268817798856e-05 0.0000000000000000e+00  3.1622736771195932e+00 -6.8775863612675043e-05 0.0000000000000000e+00  3.1622829941806603e+00 9.8487117824868020e-05 0.0000000000000000e+00  3.1622704280086191e+00 -1.3818349866674066e-04 0.0000000000000000e+00  3.1622875171581040e+00 1.9166189820897384e-04 0.0000000000000000e+00  3.1622642083237174e+00 -2.6391793397394860e-04 0.0000000000000000e+00  3.1622960030954150e+00 3.6153495274594019e-04 0.0000000000000000e+00  3.1622526963428386e+00 -4.9319531623557471e-04 0.0000000000000000e+00  3.1623115474917380e+00 6.7029816178194412e-04 0.0000000000000000e+00  3.1622317949079530e+00 -9.0779719523752570e-04 0.0000000000000000e+00  3.1623395400117489e+00 1.2251465306461213e-03 0.0000000000000000e+00  3.1621944544101455e+00 -1.6476728816855774e-03 0.0000000000000000e+00  3.1623891507155091e+00 2.2079191676590303e-03 0.0000000000000000e+00  3.1621288134839132e+00 -2.9479227509346131e-03 0.0000000000000000e+00  3.1624756345368290e+00 3.9208383352070516e-03 0.0000000000000000e+00  3.1620153716753352e+00 -5.1948942232874166e-03 0.0000000000000000e+00  3.1626237634004828e+00 6.8545078415360467e-03 0.0000000000000000e+00  3.1618228742561176e+00 -9.0077812109549266e-03 0.0000000000000000e+00  3.1628726961351483e+00 1.1784304590968988e-02 0.0000000000000000e+00  3.1615026411887333e+00 -1.5351106404213159e-02 0.0000000000000000e+00  3.1632824686811487e+00 1.9898710124107058e-02 0.0000000000000000e+00  3.1609813074200663e+00 -2.5678866831849223e-02 0.0000000000000000e+00  3.1639419097351840e+00 3.2955553079849313e-02 0.0000000000000000e+00  3.1601525064304981e+00 -4.2100063050216817e-02 0.0000000000000000e+00  3.1649769915714252e+00 5.3446205186567779e-02 0.0000000000000000e+00  3.1588691077472189e+00 -6.7534174237034506e-02 0.0000000000000000e+00  3.1665572245864930e+00 8.4719773671778451e-02 0.0000000000000000e+00  3.1569393814304978e+00 -1.0579048075262407e-01 0.0000000000000000e+00  3.1688955756338433e+00 1.3097697368798664e-01 0.0000000000000000e+00  3.1541329329640169e+00 -1.6145623833180758e-01 0.0000000000000000e+00  3.1722346587192982e+00 1.9698952292251581e-01 0.0000000000000000e+00  3.1502050703330999e+00 -2.3942205418581777e-01 0.0000000000000000e+00  3.1768092795168053e+00 2.8734971831447614e-01 0.0000000000000000e+00  3.1449503360531863e+00 -3.4382894006002618e-01 0.0000000000000000e+00  3.1827744053206590e+00 4.0503921092782669e-01 0.0000000000000000e+00  3.1382950651194537e+00 -4.7623283823710294e-01 0.0000000000000000e+00  3.1900910987379487e+00 5.4918222515098947e-01 0.0000000000000000e+00  3.1304316191166595e+00 -6.3291750005205838e-01 0.0000000000000000e+00  3.1983747722389855e+00 7.1208958323224925e-01 0.0000000000000000e+00  3.1219794786817707e+00 -8.0163091501236061e-01 0.0000000000000000e+00  3.2067339538169368e+00 8.7616557932787387e-01 0.0000000000000000e+00  3.1141283070394525e+00 -9.5863742142660457e-01 0.0000000000000000e+00  3.2136640201551452e+00 1.0119269378830154e+00 0.0000000000000000e+00  3.1086785373542427e+00 -1.0678217693599446e+00 0.0000000000000000e+00  3.2171012670289918e+00 1.0791095584022339e+00 0.0000000000000000e+00  3.1078597650772855e+00 -1.0843608700116678e+00 0.0000000000000000e+00  3.2147663848338865e+00 1.0332399338958438e+00 0.0000000000000000e+00  3.1138055664044275e+00 -9.6551299478515651e-01 0.0000000000000000e+00  3.2048933867701153e+00 8.3950396444953679e-01 0.0000000000000000e+00  3.1276406631304896e+00 -6.8930578723549607e-01 0.0000000000000000e+00  3.1873000401558329e+00 4.9339770913056596e-01 0.0000000000000000e+00  3.1483390959964006e+00 -2.7741107796810938e-01 0.0000000000000000e+00  3.1644814511327515e+00 4.2667451715861442e-02 0.0000000000000000e+00  3.1718377836902203e+00 1.8816056304800755e-01 0.0000000000000000e+00  3.1420665766969154e+00 -4.0212833587137881e-01 0.0000000000000000e+00  3.1912017799431185e+00 5.7010884636161507e-01 0.0000000000000000e+00  3.1277975416321637e+00 -6.8639039637773258e-01 0.0000000000000000e+00  3.1986225223767204e+00 7.1595234026446830e-01 0.0000000000000000e+00  3.1285209801530223e+00 -6.7217365184723388e-01 0.0000000000000000e+00  3.1893241185365260e+00 5.3271965504719199e-01 0.0000000000000000e+00  3.1457761842887919e+00 -3.2899749402273831e-01 0.0000000000000000e+00  3.1659460576912704e+00 7.0836653880554837e-02 0.0000000000000000e+00  3.1722826160295621e+00 1.9602688534646004e-01 0.0000000000000000e+00  3.1402347104653998e+00 -4.3963122640080621e-01 0.0000000000000000e+00  3.1929667974693015e+00 6.0366545767452151e-01 0.0000000000000000e+00  3.1285421585295663e+00 -6.7295712832918342e-01 0.0000000000000000e+00  3.1930472115912809e+00 6.0463315041883048e-01 0.0000000000000000e+00  3.1407799964202496e+00 -4.2999255988224611e-01 0.0000000000000000e+00  3.1704666549666030e+00 1.5852790818520465e-01 0.0000000000000000e+00  3.1691936827902314e+00 1.3380306682382651e-01 0.0000000000000000e+00  3.1426236639750647e+00 -3.9030070812935519e-01 0.0000000000000000e+00  3.1888924199818347e+00 5.3502291800167834e-01 0.0000000000000000e+00  3.1352266604129047e+00 -4.9967578993647072e-01 0.0000000000000000e+00  3.1767278461263104e+00 3.9461338076462393e-01 0.0000000000000000e+00  3.1527656335121206e+00 8.5978660128262871e-02 0.0000000000000000e+00  3.1338725739943887e+00 4.3924834724363204e-02 0.0000000000000000e+00  3.1555580164599064e+00 1.0678654801377636e+00 0.0000000000000000e+00  3.0833383585076075e+00 5.6834860276690580e-01 0.0000000000000000e+00  3.0894248757790743e+00 1.9638008886598237e+00 0.0000000000000000e+00  3.0370361485219521e+00 2.5109994982949564e+00 0.0000000000000000e+00  2.9677621761420010e+00 2.9047692814465211e+00 0.0000000000000000e+00  2.9592729019134070e+00 4.6183702111882914e+00 0.0000000000000000e+00  2.8727263730112811e+00 4.8193348261592792e+00 0.0000000000000000e+00  2.8204462315881171e+00 5.6833887744198703e+00 0.0000000000000000e+00  2.8007351550155928e+00 7.1717582740324355e+00 0.0000000000000000e+00  2.7075925433142665e+00 7.1685191058867801e+00 0.0000000000000000e+00  2.6623752325361565e+00 8.0525332553559252e+00 0.0000000000000000e+00  2.6439580594047078e+00 9.4384659494184273e+00 0.0000000000000000e+00  2.5540240185378518e+00 9.3540876464725269e+00 0.0000000000000000e+00  2.4874778530350943e+00 9.6764248092875942e+00 0.0000000000000000e+00  2.5076526068209453e+00 1.1681447514564251e+01 0.0000000000000000e+00  2.4084515110831815e+00 1.1295141711176159e+01 0.0000000000000000e+00  2.2859487927548017e+00 1.0368451555713168e+01 0.0000000000000000e+00  2.3988993981368787e+00 1.4103922279687898e+01 0.0000000000000000e+00  2.2784544636991733e+00 1.3205119401734066e+01 0.0000000000000000e+00  2.0345528376930226e+00 9.7905136583601564e+00 0.0000000000000000e+00  2.3096485785480820e+00 1.6695613066688274e+01 0.0000000000000000e+00  2.1468494842221570e+00 1.5838421482894944e+01 0.0000000000000000e+00  1.7645640043329638e+00 8.0071306837764915e+00 0.0000000000000000e+00  2.2330322239720957e+00 1.7710603288054056e+01 0.0000000000000000e+00  2.2853416306525030e+00 1.8297225973385121e+01 0.0000000000000000e+00  1.6235951961488604e+00 5.9942118943121665e+00 0.0000000000000000e+00  2.1300940930486227e+00 1.5692892377451614e+01 0.0000000000000000e+00  2.4586573844330371e+00 2.2574367928927121e+01 0.0000000000000000e+00  1.5913899125570283e+00 5.7085276881350051e+00 0.0000000000000000e+00  1.7893701954637906e+00 9.6239211612360780e+00 0.0000000000000000e+00  2.6576278758926106e+00 2.7074211264153337e+01 0.0000000000000000e+00  1.8433133450267964e+00 1.0984130064801750e+01 0.0000000000000000e+00  1.2840773085215516e+00 9.1014364360186695e-01 0.0000000000000000e+00  2.3851674315197440e+00 2.1985716792262210e+01 0.0000000000000000e+00  2.5537504348638516e+00 2.5201150290031258e+01 0.0000000000000000e+00  1.2595579408722710e+00 1.4703677214810120e+00 0.0000000000000000e+00  1.3506489368249832e+00 2.5302869721911523e+00 0.0000000000000000e+00  2.6825555556832397e+00 2.8664844707394799e+01 0.0000000000000000e+00  2.3409095540080931e+00 2.0949002280081356e+01 0.0000000000000000e+00  1.0985219062023561e+00 -1.0299283397221406e+00 0.0000000000000000e+00  9.6372930796607958e-01 2.8534054479243931e-01 0.0000000000000000e+00  1.0101507741614499e+00 -6.9464807850752250e-02 0.0000000000000000e+00  9.9899301625220938e-01 6.6856076532103605e-03 0.0000000000000000e+00  9.9836018675833005e-01 1.0370740813917517e-02 0.0000000000000000e+00  1.0020596083132478e+00 -1.2925484509221189e-02 0.0000000000000000e+00  9.9820628821713209e-01 1.1254339044842371e-02 0.0000000000000000e+00  1.0013828319788509e+00 -8.6594947100759861e-03 0.0000000000000000e+00  9.9899824590513475e-01 6.2769771235897448e-03 0.0000000000000000e+00  1.0006977778751560e+00 -4.3693979521334412e-03 0.0000000000000000e+00  9.9952793655511296e-01 2.9570779935947978e-03 0.0000000000000000e+00  1.0003119572040056e+00 -1.9536342665956714e-03 0.0000000000000000e+00  9.9979796922369257e-01 1.2654244650333638e-03 0.0000000000000000e+00  1.0001285303967593e+00 -8.0496839287877312e-04 0.0000000000000000e+00  9.9991953832733904e-01 5.0395328102540013e-04 0.0000000000000000e+00  1.0000496335199716e+00 -3.1085568268694242e-04 0.0000000000000000e+00  9.9996979705057176e-01 1.8916626071417857e-04 0.0000000000000000e+00  1.0000181483375612e+00 -1.1366449107049431e-04 0.0000000000000000e+00  9.9998922294042747e-01 6.7498172319917216e-05 0.0000000000000000e+00  1.0000063294124029e+00 -3.9641758789386028e-05 0.0000000000000000e+00  9.9999632114912951e-01 2.3041088135789393e-05 0.0000000000000000e+00  1.0000021174091371e+00 -1.3261567148799916e-05 0.0000000000000000e+00  9.9999879253743873e-01 7.5624785962206045e-06 0.0000000000000000e+00  1.0000006825437810e+00 -4.2748488412573021e-06 0.0000000000000000e+00  9.9999961737948739e-01 2.3963962426865344e-06 0.0000000000000000e+00  1.0000002127961904e+00 -1.3327667729887908e-06 0.0000000000000000e+00  9.9999988254269989e-01 7.3564851430233635e-07 0.0000000000000000e+00  1.0000000643675429e+00 -4.0314126586250462e-07 0.0000000000000000e+00  9.9999996496810928e-01 2.1940873343793301e-07 0.0000000000000000e+00  1.0000000189408276e+00 -1.1862856526704175e-07 0.0000000000000000e+00  9.9999998982362648e-01 6.3735787757971606e-08 0.0000000000000000e+00  1.0000000054344780e+00 -3.4036750296520224e-08 0.0000000000000000e+00  9.9999999711465504e-01 1.8071245219750703e-08 0.0000000000000000e+00  1.0000000015233892e+00 -9.5411571975753034e-09 0.0000000000000000e+00  9.9999999920000127e-01 5.0104786689617782e-09 0.0000000000000000e+00  1.0000000004179448e+00 -2.6176332620147976e-09 0.0000000000000000e+00  9.9999999978273957e-01 1.3607274994607377e-09 0.0000000000000000e+00  1.0000000001123965e+00 -7.0395066660655546e-10 0.0000000000000000e+00  9.9999999994212307e-01 3.6248659191060039e-10 0.0000000000000000e+00  1.0000000000296694e+00 -1.8582347142665085e-10 0.0000000000000000e+00  9.9999999998485700e-01 9.4844996706758387e-11 0.0000000000000000e+00  1.0000000000076974e+00 -4.8208206629121875e-11 0.0000000000000000e+00  9.9999999999610378e-01 2.4402954992931432e-11 0.0000000000000000e+00  1.0000000000019651e+00 -1.2304579892630602e-11 0.0000000000000000e+00  9.9999999999901268e-01 6.1786682411102570e-12 0.0000000000000000e+00  1.0000000000004943e+00 -3.0953418991702570e-12 0.0000000000000000e+00  9.9999999999975386e-01 1.5441325185808891e-12 0.0000000000000000e+00  1.0000000000001223e+00 -7.6814292528351713e-13 0.0000000000000000e+00  9.9999999999994027e-01 3.8218699573263353e-13 0.0000000000000000e+00  1.0000000000000302e+00 -1.8881093931760839e-13 0.0000000000000000e+00  9.9999999999998535e-01 9.1390397993786976e-14 0.0000000000000000e+00  1.0000000000000075e+00 -4.4432004763589379e-14 0.0000000000000000e+00  9.9999999999999645e-01 2.3974906744679928e-14 0.0000000000000000e+00  1.0000000000000022e+00 -1.0959823865046364e-14 0.0000000000000000e+00  9.9999999999999956e-01 3.3166410704544454e-15 0.0000000000000000e+00  1.0000000000000009e+00 -6.4304154603083098e-15 0.0000000000000000e+00  9.9999999999999989e-01 5.3841336047913119e-15 0.0000000000000000e+00  1.0000000000000007e+00 3.6403075340750946e-16 0.0000000000000000e+00  1.0000000000000002e+00 2.6758114081246028e-15 0.0000000000000000e+00  1.0000000000000002e+00 -3.1693403016042113e-15 0.0000000000000000e+00  1.0000000000000002e+00 9.5633448322783333e-16 0.0000000000000000e+00  1.0000000000000002e+00 3.0758417544789258e-15 0.0000000000000000e+00  1.0000000000000002e+00 -3.2083418442327496e-15 0.0000000000000000e+00  1.0000000000000002e+00 2.5005638699783922e-15 0.0000000000000000e+00  1.0000000000000002e+00 -3.4404986647793292e-15 0.0000000000000000e+00  1.0000000000000002e+00 1.0770911957859385e-15 0.0000000000000000e+00  1.0000000000000002e+00 3.1460683108303098e-15 0.0000000000000000e+00  1.0000000000000002e+00 -3.3804499620650110e-15 0.0000000000000000e+00  1.0000000000000002e+00 2.7016438132122617e-15 0.0000000000000000e+00  1.0000000000000002e+00 -3.7546839408620970e-15 0.0000000000000000e+00  1.0000000000000002e+00 2.1660810770423570e-15 0.0000000000000000e+00  1.0000000000000002e+00 2.0953419141227041e-15 0.0000000000000000e+00  1.0000000000000002e+00 -2.4080067237477500e-15 0.0000000000000000e+00  9.9999999999999989e-01 -4.7768438735622862e-16 0.0000000000000000e+00  1.0000000000000002e+00 -1.1279522595695523e-16 0.0000000000000000e+00  1.0000000000000000e+00 2.4180484311699267e-15 0.0000000000000000e+00  1.0000000000000004e+00 4.8553720186454780e-15 0.0000000000000000e+00  1.0000000000000000e+00 -2.0324500516605606e-15 0.0000000000000000e+00  9.9999999999999967e-01 1.3084540682606809e-15 0.0000000000000000e+00  1.0000000000000000e+00 -1.4897643898050835e-15 0.0000000000000000e+00  1.0000000000000002e+00 -5.8007872603239300e-16 0.0000000000000000e+00  1.0000000000000000e+00 5.7076415996026012e-16 0.0000000000000000e+00  9.9999999999999978e-01 0.0000000000000000e+00 0.0000000000000000e+00  </DataArray> 
</PointData> 
</Piece>
</UnstructuredGrid>
</VTKFile>