<?xml version="1.0"?>
<VTKFile type="UnstructuredGrid"  version="0.1"  >
<UnstructuredGrid>
<Piece  NumberOfPoints="201" NumberOfCells="200">
<Points>
<DataArray  type="Float64"  NumberOfComponents="3"  format="ascii">-5 0 0  -4.95 0 0  -4.9 0 0  -4.85 0 0  -4.8 0 0  -4.75 0 0  -4.7 0 0  -4.65 0 0  -4.6 0 0  -4.55 0 0  -4.5 0 0  -4.45 0 0  -4.4 0 0  -4.35 0 0  -4.3 0 0  -4.25 0 0  -4.2 0 0  -4.15 0 0  -4.1 0 0  -4.05 0 0  -4 0 0  -3.95 0 0  -3.9 0 0  -3.85 0 0  -3.8 0 0  -3.75 0 0  -3.7 0 0  -3.65 0 0  -3.6 0 0  -3.55 0 0  -3.5 0 0  -3.45 0 0  -3.4 0 0  -3.35 0 0  -3.3 0 0  -3.25 0 0  -3.2 0 0  -3.15 0 0  -3.1 0 0  -3.05 0 0  -3 0 0  -2.95 0 0  -2.9 0 0  -2.85 0 0  -2.8 0 0  -2.75 0 0  -2.7 0 0  -2.65 0 0  -2.6 0 0  -2.55 0 0  -2.5 0 0  -2.45 0 0  -2.4 0 0  -2.35 0 0  -2.3 0 0  -2.25 0 0  -2.2 0 0  -2.15 0 0  -2.1 0 0  -2.05 0 0  -2 0 0  -1.95 0 0  -1.9 0 0  -1.85 0 0  -1.8 0 0  -1.75 0 0  -1.7 0 0  -1.65 0 0  -1.6 0 0  -1.55 0 0  -1.5 0 0  -1.45 0 0  -1.4 0 0  -1.35 0 0  -1.3 0 0  -1.25 0 0  -1.2 0 0  -1.15 0 0  -1.1 0 0  -1.05 0 0  -1 0 0  -0.9500000000000002 0 0  -0.9000000000000004 0 0  -0.8499999999999996 0 0  -0.7999999999999998 0 0  -0.75 0 0  -0.7000000000000002 0 0  -0.6500000000000004 0 0  -0.5999999999999996 0 0  -0.5499999999999998 0 0  -0.5 0 0  -0.4500000000000002 0 0  -0.4000000000000004 0 0  -0.3499999999999996 0 0  -0.2999999999999998 0 0  -0.25 0 0  -0.2000000000000002 0 0  -0.1500000000000004 0 0  -0.09999999999999964 0 0  -0.04999999999999982 0 0  0 0 0  0.04999999999999982 0 0  0.09999999999999964 0 0  0.1500000000000004 0 0  0.2000000000000002 0 0  0.25 0 0  0.2999999999999998 0 0  0.3499999999999996 0 0  0.4000000000000004 0 0  0.4500000000000002 0 0  0.5 0 0  0.5499999999999998 0 0  0.5999999999999996 0 0  0.6500000000000004 0 0  0.7000000000000002 0 0  0.75 0 0  0.7999999999999998 0 0  0.8499999999999996 0 0  0.9000000000000004 0 0  0.9500000000000002 0 0  1 0 0  1.05 0 0  1.1 0 0  1.15 0 0  1.2 0 0  1.25 0 0  1.3 0 0  1.35 0 0  1.4 0 0  1.45 0 0  1.5 0 0  1.55 0 0  1.6 0 0  1.65 0 0  1.7 0 0  1.75 0 0  1.8 0 0  1.85 0 0  1.9 0 0  1.95 0 0  2 0 0  2.05 0 0  2.1 0 0  2.15 0 0  2.2 0 0  2.25 0 0  2.3 0 0  2.35 0 0  2.4 0 0  2.45 0 0  2.5 0 0  2.55 0 0  2.6 0 0  2.65 0 0  2.7 0 0  2.75 0 0  2.8 0 0  2.85 0 0  2.9 0 0  2.95 0 0  3 0 0  3.050000000000001 0 0  3.1 0 0  3.15 0 0  3.199999999999999 0 0  3.25 0 0  3.300000000000001 0 0  3.35 0 0  3.4 0 0  3.449999999999999 0 0  3.5 0 0  3.550000000000001 0 0  3.6 0 0  3.65 0 0  3.699999999999999 0 0  3.75 0 0  3.800000000000001 0 0  3.85 0 0  3.9 0 0  3.949999999999999 0 0  4 0 0  4.050000000000001 0 0  4.1 0 0  4.15 0 0  4.199999999999999 0 0  4.25 0 0  4.300000000000001 0 0  4.35 0 0  4.4 0 0  4.449999999999999 0 0  4.5 0 0  4.550000000000001 0 0  4.6 0 0  4.65 0 0  4.699999999999999 0 0  4.75 0 0  4.800000000000001 0 0  4.85 0 0  4.9 0 0  4.949999999999999 0 0  5 0 0  </DataArray>
</Points>
<Cells>
<DataArray  type="UInt32"  Name="connectivity"  format="ascii">0 1  1 2  2 3  3 4  4 5  5 6  6 7  7 8  8 9  9 10  10 11  11 12  12 13  13 14  14 15  15 16  16 17  17 18  18 19  19 20  20 21  21 22  22 23  23 24  24 25  25 26  26 27  27 28  28 29  29 30  30 31  31 32  32 33  33 34  34 35  35 36  36 37  37 38  38 39  39 40  40 41  41 42  42 43  43 44  44 45  45 46  46 47  47 48  48 49  49 50  50 51  51 52  52 53  53 54  54 55  55 56  56 57  57 58  58 59  59 60  60 61  61 62  62 63  63 64  64 65  65 66  66 67  67 68  68 69  69 70  70 71  71 72  72 73  73 74  74 75  75 76  76 77  77 78  78 79  79 80  80 81  81 82  82 83  83 84  84 85  85 86  86 87  87 88  88 89  89 90  90 91  91 92  92 93  93 94  94 95  95 96  96 97  97 98  98 99  99 100  100 101  101 102  102 103  103 104  104 105  105 106  106 107  107 108  108 109  109 110  110 111  111 112  112 113  113 114  114 115  115 116  116 117  117 118  118 119  119 120  120 121  121 122  122 123  123 124  124 125  125 126  126 127  127 128  128 129  129 130  130 131  131 132  132 133  133 134  134 135  135 136  136 137  137 138  138 139  139 140  140 141  141 142  142 143  143 144  144 145  145 146  146 147  147 148  148 149  149 150  150 151  151 152  152 153  153 154  154 155  155 156  156 157  157 158  158 159  159 160  160 161  161 162  162 163  163 164  164 165  165 166  166 167  167 168  168 169  169 170  170 171  171 172  172 173  173 174  174 175  175 176  176 177  177 178  178 179  179 180  180 181  181 182  182 183  183 184  184 185  185 186  186 187  187 188  188 189  189 190  190 191  191 192  192 193  193 194  194 195  195 196  196 197  197 198  198 199  199 200  </DataArray>
<DataArray  type="UInt32"  Name="offsets"  format="ascii">2 4 6 8 10 12 14 16 18 20 22 24 26 28 30 32 34 36 38 40 42 44 46 48 50 52 54 56 58 60 62 64 66 68 70 72 74 76 78 80 82 84 86 88 90 92 94 96 98 100 102 104 106 108 110 112 114 116 118 120 122 124 126 128 130 132 134 136 138 140 142 144 146 148 150 152 154 156 158 160 162 164 166 168 170 172 174 176 178 180 182 184 186 188 190 192 194 196 198 200 202 204 206 208 210 212 214 216 218 220 222 224 226 228 230 232 234 236 238 240 242 244 246 248 250 252 254 256 258 260 262 264 266 268 270 272 274 276 278 280 282 284 286 288 290 292 294 296 298 300 302 304 306 308 310 312 314 316 318 320 322 324 326 328 330 332 334 336 338 340 342 344 346 348 350 352 354 356 358 360 362 364 366 368 370 372 374 376 378 380 382 384 386 388 390 392 394 396 398 400 </DataArray>
<DataArray  type="UInt8"  Name="types"  format="ascii">3 3 3 3 3 3 3 3 3 3 3 3 3 3 3 3 3 3 3 3 3 3 3 3 3 3 3 3 3 3 3 3 3 3 3 3 3 3 3 3 3 3 3 3 3 3 3 3 3 3 3 3 3 3 3 3 3 3 3 3 3 3 3 3 3 3 3 3 3 3 3 3 3 3 3 3 3 3 3 3 3 3 3 3 3 3 3 3 3 3 3 3 3 3 3 3 3 3 3 3 3 3 3 3 3 3 3 3 3 3 3 3 3 3 3 3 3 3 3 3 3 3 3 3 3 3 3 3 3 3 3 3 3 3 3 3 3 3 3 3 3 3 3 3 3 3 3 3 3 3 3 3 3 3 3 3 3 3 3 3 3 3 3 3 3 3 3 3 3 3 3 3 3 3 3 3 3 3 3 3 3 3 3 3 3 3 3 3 3 3 3 3 3 3 3 3 3 3 3 3 </DataArray>
</Cells>
<PointData  Vectors="(s, w)"> 
<DataArray  type="Float64"  Name="(s, w)"  NumberOfComponents="3" format="ascii">3.1622776601680056e+00 0.0000000000000000e+00 0.0000000000000000e+00  3.1622776601687921e+00 3.4666251590283716e-12 0.0000000000000000e+00  3.1622776601678444e+00 -7.6034486718023551e-12 0.0000000000000000e+00  3.1622776601691487e+00 1.3305435376195726e-11 0.0000000000000000e+00  3.1622776601672222e+00 -2.1702478766226157e-11 0.0000000000000000e+00  3.1622776601701590e+00 3.4464185251073106e-11 0.0000000000000000e+00  3.1622776601656213e+00 -5.4140776347257021e-11 0.0000000000000000e+00  3.1622776601726672e+00 8.4615795355971771e-11 0.0000000000000000e+00  3.1622776601617120e+00 -1.3186731750766920e-10 0.0000000000000000e+00  3.1622776601787455e+00 2.0517176528638557e-10 0.0000000000000000e+00  3.1622776601522813e+00 -3.1875213053966368e-10 0.0000000000000000e+00  3.1622776601933542e+00 4.9458249096547734e-10 0.0000000000000000e+00  3.1622776601296834e+00 -7.6637108601330389e-10 0.0000000000000000e+00  3.1622776602282623e+00 1.1859868133069349e-09 0.0000000000000000e+00  3.1622776600758313e+00 -1.8329927012697644e-09 0.0000000000000000e+00  3.1622776603112230e+00 2.8291014525745415e-09 0.0000000000000000e+00  3.1622776599482139e+00 -4.3605525238850112e-09 0.0000000000000000e+00  3.1622776605072485e+00 6.7115141805658446e-09 0.0000000000000000e+00  3.1622776596475686e+00 -1.0315040790770027e-08 0.0000000000000000e+00  3.1622776609676344e+00 1.5829816006652995e-08 0.0000000000000000e+00  3.1622776589436858e+00 -2.4255941041905522e-08 0.0000000000000000e+00  3.1622776620420314e+00 3.7109002710099793e-08 0.0000000000000000e+00  3.1622776573065039e+00 -5.6681469982699670e-08 0.0000000000000000e+00  3.1622776645324699e+00 8.6433873331022124e-08 0.0000000000000000e+00  3.1622776535248764e+00 -1.3157928610701835e-07 0.0000000000000000e+00  3.1622776702641624e+00 1.9995408992997190e-07 0.0000000000000000e+00  3.1622776448539867e+00 -3.0331235233150253e-07 0.0000000000000000e+00  3.1622776833558559e+00 4.5924431726092921e-07 0.0000000000000000e+00  3.1622776251273699e+00 -6.9401194656390210e-07 0.0000000000000000e+00  3.1622777130182391e+00 1.0467287910752506e-06 0.0000000000000000e+00  3.1622775806205330e+00 -1.5755013140678885e-06 0.0000000000000000e+00  3.1622777796503687e+00 2.3664251326231444e-06 0.0000000000000000e+00  3.1622774810927377e+00 -3.5467196410466667e-06 0.0000000000000000e+00  3.1622779279617674e+00 5.3038370171482611e-06 0.0000000000000000e+00  3.1622772606286009e+00 -7.9131678898140526e-06 0.0000000000000000e+00  3.1622782548479029e+00 1.1778047109648937e-05 0.0000000000000000e+00  3.1622767772251401e+00 -1.7487316261330391e-05 0.0000000000000000e+00  3.1622789677585446e+00 2.5897742695953358e-05 0.0000000000000000e+00  3.1622757288248455e+00 -3.8251631396513771e-05 0.0000000000000000e+00  3.1622805049856701e+00 5.6343596697939912e-05 0.0000000000000000e+00  3.1622734817553906e+00 -8.2756460878625755e-05 0.0000000000000000e+00  3.1622837792114322e+00 1.2119188223424257e-04 0.0000000000000000e+00  3.1622687266962837e+00 -1.7693390924428961e-04 0.0000000000000000e+00  3.1622906609391213e+00 2.5748905493732808e-04 0.0000000000000000e+00  3.1622588031722363e+00 -3.7347694835037992e-04 0.0000000000000000e+00  3.1623049167615513e+00 5.3983436338455519e-04 0.0000000000000000e+00  3.1622384046921916e+00 -7.7748597950263445e-04 0.0000000000000000e+00  3.1623339840487801e+00 1.1155269360163976e-03 0.0000000000000000e+00  3.1621971646950713e+00 -1.5942845685481459e-03 0.0000000000000000e+00  3.1623922282219574e+00 2.2690711479638531e-03 0.0000000000000000e+00  3.1621153009473737e+00 -3.2156993029457256e-03 0.0000000000000000e+00  3.1625067106854692e+00 4.5363875406516782e-03 0.0000000000000000e+00  3.1619560616959475e+00 -6.3697203986673679e-03 0.0000000000000000e+00  3.1627269632539234e+00 8.8983060788645884e-03 0.0000000000000000e+00  3.1616532573994514e+00 -1.2367622089967081e-02 0.0000000000000000e+00  3.1631406469069008e+00 1.7090375760595179e-02 0.0000000000000000e+00  3.1610919766540686e+00 -2.3486474762855390e-02 0.0000000000000000e+00  3.1638967915390848e+00 3.2062128562346116e-02 0.0000000000000000e+00  3.1600813968395607e+00 -4.3509395376582494e-02 0.0000000000000000e+00  3.1652365354901471e+00 5.8582948725430753e-02 0.0000000000000000e+00  3.1583218292475022e+00 -7.8383070952037975e-02 0.0000000000000000e+00  3.1675260611299358e+00 1.0388663218762181e-01 0.0000000000000000e+00  3.1553760686796841e+00 -1.3679710951826912e-01 0.0000000000000000e+00  3.1712751319858117e+00 1.7802064333140141e-01 0.0000000000000000e+00  3.1506704445678189e+00 -2.3018827169531270e-01 0.0000000000000000e+00  3.1771049714195305e+00 2.9317589336234939e-01 0.0000000000000000e+00  3.1435746535259512e+00 -3.7120000225325284e-01 0.0000000000000000e+00  3.1856027368457256e+00 4.6075925745300617e-01 0.0000000000000000e+00  3.1336352419888431e+00 -5.6909257757770637e-01 0.0000000000000000e+00  3.1969796244248951e+00 6.8461369730260058e-01 0.0000000000000000e+00  3.1210422186846460e+00 -8.2044392799530130e-01 0.0000000000000000e+00  3.2104719682143608e+00 9.4931842408387146e-01 0.0000000000000000e+00  3.1073404735891299e+00 -1.0947489507236259e+00 0.0000000000000000e+00  3.2235571740123228e+00 1.2051616349901424e+00 0.0000000000000000e+00  3.0961806592119183e+00 -1.3189275405325078e+00 0.0000000000000000e+00  3.2313785189113609e+00 1.3574241631126966e+00 0.0000000000000000e+00  3.0934835822491169e+00 -1.3737083294129400e+00 0.0000000000000000e+00  3.2272823092528662e+00 1.2767115635553510e+00 0.0000000000000000e+00  3.1058801075396656e+00 -1.1259129714605396e+00 0.0000000000000000e+00  3.2057572993740528e+00 8.5431853174780548e-01 0.0000000000000000e+00  3.1362474664788635e+00 -5.2039998567617007e-01 0.0000000000000000e+00  3.1683929976579384e+00 1.1711062758079256e-01 0.0000000000000000e+00  3.1768679173638570e+00 2.8412773935235314e-01 0.0000000000000000e+00  3.1302707215482921e+00 -6.4036397860231009e-01 0.0000000000000000e+00  3.2054055277380114e+00 8.4820527476368957e-01 0.0000000000000000e+00  3.1181041290229268e+00 -8.6886139988631250e-01 0.0000000000000000e+00  3.1937078978662337e+00 6.7635948638844468e-01 0.0000000000000000e+00  3.1459488343806106e+00 -1.1513507808342978e-01 0.0000000000000000e+00  3.1303827527265806e+00 -1.0928697357427269e-02 0.0000000000000000e+00  3.1614489350979076e+00 1.5539802756425352e+00 0.0000000000000000e+00  3.0305852669986981e+00 7.4995768557488063e-01 0.0000000000000000e+00  3.0323921742960529e+00 3.4936469543825179e+00 0.0000000000000000e+00  2.9262958637683250e+00 4.8723492750136579e+00 0.0000000000000000e+00  2.7533826095438210e+00 5.1455252040513431e+00 0.0000000000000000e+00  2.7559502280066503e+00 8.8789223231689771e+00 0.0000000000000000e+00  2.6082009982310717e+00 9.4600697700890972e+00 0.0000000000000000e+00  2.3859348159783700e+00 8.2736559601479254e+00 0.0000000000000000e+00  2.5243143467601539e+00 1.4060034763528430e+01 0.0000000000000000e+00  2.3002122000253600e+00 1.2710076448099773e+01 0.0000000000000000e+00  1.9595027227608157e+00 8.6580166620081176e+00 0.0000000000000000e+00  2.2959581265842299e+00 1.9543897959535805e+01 0.0000000000000000e+00  2.1221616449651535e+00 1.5234000863154359e+01 0.0000000000000000e+00  1.5955945453347524e+00 5.5868106074220893e+00 0.0000000000000000e+00  2.3698687551522060e+00 2.0655548136872799e+01 0.0000000000000000e+00  2.3060289868846890e+00 1.9765850505849595e+01 0.0000000000000000e+00  1.3309615204831049e+00 1.5394511550137688e+00 0.0000000000000000e+00  1.9361299051785401e+00 1.2889724540240778e+01 0.0000000000000000e+00  2.7824186163589757e+00 3.0576695027444078e+01 0.0000000000000000e+00  1.6655518463124313e+00 7.3885664603892520e+00 0.0000000000000000e+00  9.4261296054887034e-01 -1.2141977609807939e+00 0.0000000000000000e+00  9.9571954859988865e-01 3.2401054386191547e-01 0.0000000000000000e+00  1.0091590562682704e+00 -1.1072701765206502e-01 0.0000000000000000e+00  9.9320790441113860e-01 5.2337460443007612e-02 0.0000000000000000e+00  1.0045128301845332e+00 -2.9976298116369704e-02 0.0000000000000000e+00  9.9708576129489945e-01 1.8583556210287587e-02 0.0000000000000000e+00  1.0018454010384565e+00 -1.1607355577796720e-02 0.0000000000000000e+00  9.9885698788556643e-01 7.1713713055805289e-03 0.0000000000000000e+00  1.0006921720970432e+00 -4.3359771549882865e-03 0.0000000000000000e+00  9.9959003731991725e-01 2.5682714348393460e-03 0.0000000000000000e+00  1.0002378639115785e+00 -1.4897154098914734e-03 0.0000000000000000e+00  9.9986458749779572e-01 8.4814685512992968e-04 0.0000000000000000e+00  1.0000757661709421e+00 -4.7452325716995961e-04 0.0000000000000000e+00  9.9995827168446327e-01 2.6135256907616088e-04 0.0000000000000000e+00  1.0000226529682779e+00 -1.4187726250572278e-04 0.0000000000000000e+00  9.9998786387559258e-01 7.6010195745819441e-05 0.0000000000000000e+00  1.0000064233238195e+00 -4.0229940917833540e-05 0.0000000000000000e+00  9.9999663820191187e-01 2.1055344767070118e-05 0.0000000000000000e+00  1.0000017413126852e+00 -1.0906035203907333e-05 0.0000000000000000e+00  9.9999910670374759e-01 5.5948178040833141e-06 0.0000000000000000e+00  1.0000004541652214e+00 -2.8444883260354350e-06 0.0000000000000000e+00  9.9999977102507032e-01 1.4340962293013308e-06 0.0000000000000000e+00  1.0000001145376296e+00 -7.1736223695535504e-07 0.0000000000000000e+00  9.9999994312743223e-01 3.5619939682038646e-07 0.0000000000000000e+00  1.0000000280440484e+00 -1.7564307704658776e-07 0.0000000000000000e+00  9.9999998626167930e-01 8.6044671820065402e-08 0.0000000000000000e+00  1.0000000066886523e+00 -4.1891792539288846e-08 0.0000000000000000e+00  9.9999999676257822e-01 2.0276342407631567e-08 0.0000000000000000e+00  1.0000000015582884e+00 -9.7597369676258829e-09 0.0000000000000000e+00  9.9999999925388494e-01 4.6730025828803953e-09 0.0000000000000000e+00  1.0000000003554554e+00 -2.2262595376714234e-09 0.0000000000000000e+00  9.9999999983146481e-01 1.0555567621159521e-09 0.0000000000000000e+00  1.0000000000795461e+00 -4.9820589614102410e-10 0.0000000000000000e+00  9.9999999996261846e-01 2.3412607867241669e-10 0.0000000000000000e+00  1.0000000000174942e+00 -1.0956728825895270e-10 0.0000000000000000e+00  9.9999999999184530e-01 5.1071647547766852e-11 0.0000000000000000e+00  1.0000000000037867e+00 -2.3715681818821763e-11 0.0000000000000000e+00  9.9999999999824807e-01 1.0972273501518774e-11 0.0000000000000000e+00  1.0000000000008082e+00 -5.0582219022432574e-12 0.0000000000000000e+00  9.9999999999962863e-01 2.3252051860545936e-12 0.0000000000000000e+00  1.0000000000001699e+00 -1.0660850721686142e-12 0.0000000000000000e+00  9.9999999999992251e-01 4.8684264175339460e-13 0.0000000000000000e+00  1.0000000000000357e+00 -2.2129914737094455e-13 0.0000000000000000e+00  9.9999999999998435e-01 9.9193417664021523e-14 0.0000000000000000e+00  1.0000000000000071e+00 -4.6352480750726733e-14 0.0000000000000000e+00  9.9999999999999656e-01 2.1174577294335113e-14 0.0000000000000000e+00  1.0000000000000018e+00 -7.3189624598469023e-15 0.0000000000000000e+00  9.9999999999999933e-01 3.7352376500940527e-15 0.0000000000000000e+00  1.0000000000000004e+00 1.4283618475783944e-16 0.0000000000000000e+00  9.9999999999999956e-01 -2.1678592124781176e-15 0.0000000000000000e+00  1.0000000000000002e+00 -9.1080398071658567e-16 0.0000000000000000e+00  1.0000000000000002e+00 -2.5540534729314871e-15 0.0000000000000000e+00  1.0000000000000004e+00 3.9146687153435921e-16 0.0000000000000000e+00  1.0000000000000004e+00 2.7283454369048898e-16 0.0000000000000000e+00  1.0000000000000004e+00 -1.5032708884366772e-15 0.0000000000000000e+00  1.0000000000000002e+00 3.4557601988787166e-15 0.0000000000000000e+00  1.0000000000000002e+00 -1.8283878011311253e-15 0.0000000000000000e+00  1.0000000000000000e+00 -5.7185145420111657e-18 0.0000000000000000e+00  1.0000000000000007e+00 1.7361860366789818e-15 0.0000000000000000e+00  9.9999999999999967e-01 4.7921717433696127e-18 0.0000000000000000e+00  1.0000000000000004e+00 -2.4344975692051505e-15 0.0000000000000000e+00  1.0000000000000002e+00 1.2263600707137078e-15 0.0000000000000000e+00  1.0000000000000002e+00 -1.0583414293066487e-15 0.0000000000000000e+00  1.0000000000000004e+00 1.1769073258507361e-15 0.0000000000000000e+00  9.9999999999999978e-01 8.9941491579860063e-16 0.0000000000000000e+00  1.0000000000000007e+00 -1.0675840478858904e-15 0.0000000000000000e+00  1.0000000000000002e+00 -1.4480233132416321e-16 0.0000000000000000e+00  1.0000000000000002e+00 2.0799355205132467e-16 0.0000000000000000e+00  1.0000000000000002e+00 1.6021366064777580e-15 0.0000000000000000e+00  9.9999999999999956e-01 -2.0488493123143168e-16 0.0000000000000000e+00  1.0000000000000007e+00 -1.4808028039081390e-15 0.0000000000000000e+00  1.0000000000000002e+00 -1.2932291324007527e-16 0.0000000000000000e+00  1.0000000000000002e+00 2.1502538816451548e-16 0.0000000000000000e+00  1.0000000000000002e+00 1.5997319791969766e-15 0.0000000000000000e+00  9.9999999999999956e-01 -2.0527458272441211e-16 0.0000000000000000e+00  1.0000000000000007e+00 -1.4786022806668444e-15 0.0000000000000000e+00  1.0000000000000002e+00 -1.3420099703211840e-16 0.0000000000000000e+00  1.0000000000000002e+00 2.2550604439207461e-16 0.0000000000000000e+00  1.0000000000000002e+00 1.5770018636109714e-15 0.0000000000000000e+00  9.9999999999999956e-01 -1.5566958498871182e-16 0.0000000000000000e+00  1.0000000000000007e+00 -1.5882859362540932e-15 0.0000000000000000e+00  1.0000000000000002e+00 1.2003235709479111e-16 0.0000000000000000e+00  1.0000000000000002e+00 -4.5367677178868599e-16 0.0000000000000000e+00  1.0000000000000004e+00 2.3553171390955385e-15 0.0000000000000000e+00  9.9999999999999944e-01 -1.3547231823961769e-15 0.0000000000000000e+00  1.0000000000000007e+00 8.6593039065075607e-17 0.0000000000000000e+00  9.9999999999999967e-01 7.3652549724774610e-17 0.0000000000000000e+00  1.0000000000000002e+00 1.3372740106708055e-15 0.0000000000000000e+00  1.0000000000000000e+00 -1.3598062765102921e-15 0.0000000000000000e+00  9.9999999999999989e-01 5.0819150308732283e-16 0.0000000000000000e+00  1.0000000000000000e+00 -3.7101217331368605e-16 0.0000000000000000e+00  1.0000000000000004e+00 0.0000000000000000e+00 0.0000000000000000e+00  </DataArray> 
</PointData> 
</Piece>
</UnstructuredGrid>
</VTKFile>