<?xml version="1.0"?>
<VTKFile type="UnstructuredGrid"  version="0.1"  >
<UnstructuredGrid>
<Piece  NumberOfPoints="201" NumberOfCells="200">
<Points>
<DataArray  type="Float64"  NumberOfComponents="3"  format="ascii">-5 0 0  -4.95 0 0  -4.9 0 0  -4.85 0 0  -4.8 0 0  -4.75 0 0  -4.7 0 0  -4.65 0 0  -4.6 0 0  -4.55 0 0  -4.5 0 0  -4.45 0 0  -4.4 0 0  -4.35 0 0  -4.3 0 0  -4.25 0 0  -4.2 0 0  -4.15 0 0  -4.1 0 0  -4.05 0 0  -4 0 0  -3.95 0 0  -3.9 0 0  -3.85 0 0  -3.8 0 0  -3.75 0 0  -3.7 0 0  -3.65 0 0  -3.6 0 0  -3.55 0 0  -3.5 0 0  -3.45 0 0  -3.4 0 0  -3.35 0 0  -3.3 0 0  -3.25 0 0  -3.2 0 0  -3.15 0 0  -3.1 0 0  -3.05 0 0  -3 0 0  -2.95 0 0  -2.9 0 0  -2.85 0 0  -2.8 0 0  -2.75 0 0  -2.7 0 0  -2.65 0 0  -2.6 0 0  -2.55 0 0  -2.5 0 0  -2.45 0 0  -2.4 0 0  -2.35 0 0  -2.3 0 0  -2.25 0 0  -2.2 0 0  -2.15 0 0  -2.1 0 0  -2.05 0 0  -2 0 0  -1.95 0 0  -1.9 0 0  -1.85 0 0  -1.8 0 0  -1.75 0 0  -1.7 0 0  -1.65 0 0  -1.6 0 0  -1.55 0 0  -1.5 0 0  -1.45 0 0  -1.4 0 0  -1.35 0 0  -1.3 0 0  -1.25 0 0  -1.2 0 0  -1.15 0 0  -1.1 0 0  -1.05 0 0  -1 0 0  -0.9500000000000002 0 0  -0.9000000000000004 0 0  -0.8499999999999996 0 0  -0.7999999999999998 0 0  -0.75 0 0  -0.7000000000000002 0 0  -0.6500000000000004 0 0  -0.5999999999999996 0 0  -0.5499999999999998 0 0  -0.5 0 0  -0.4500000000000002 0 0  -0.4000000000000004 0 0  -0.3499999999999996 0 0  -0.2999999999999998 0 0  -0.25 0 0  -0.2000000000000002 0 0  -0.1500000000000004 0 0  -0.09999999999999964 0 0  -0.04999999999999982 0 0  0 0 0  0.04999999999999982 0 0  0.09999999999999964 0 0  0.1500000000000004 0 0  0.2000000000000002 0 0  0.25 0 0  0.2999999999999998 0 0  0.3499999999999996 0 0  0.4000000000000004 0 0  0.4500000000000002 0 0  0.5 0 0  0.5499999999999998 0 0  0.5999999999999996 0 0  0.6500000000000004 0 0  0.7000000000000002 0 0  0.75 0 0  0.7999999999999998 0 0  0.8499999999999996 0 0  0.9000000000000004 0 0  0.9500000000000002 0 0  1 0 0  1.05 0 0  1.1 0 0  1.15 0 0  1.2 0 0  1.25 0 0  1.3 0 0  1.35 0 0  1.4 0 0  1.45 0 0  1.5 0 0  1.55 0 0  1.6 0 0  1.65 0 0  1.7 0 0  1.75 0 0  1.8 0 0  1.85 0 0  1.9 0 0  1.95 0 0  2 0 0  2.05 0 0  2.1 0 0  2.15 0 0  2.2 0 0  2.25 0 0  2.3 0 0  2.35 0 0  2.4 0 0  2.45 0 0  2.5 0 0  2.55 0 0  2.6 0 0  2.65 0 0  2.7 0 0  2.75 0 0  2.8 0 0  2.85 0 0  2.9 0 0  2.95 0 0  3 0 0  3.050000000000001 0 0  3.1 0 0  3.15 0 0  3.199999999999999 0 0  3.25 0 0  3.300000000000001 0 0  3.35 0 0  3.4 0 0  3.449999999999999 0 0  3.5 0 0  3.550000000000001 0 0  3.6 0 0  3.65 0 0  3.699999999999999 0 0  3.75 0 0  3.800000000000001 0 0  3.85 0 0  3.9 0 0  3.949999999999999 0 0  4 0 0  4.050000000000001 0 0  4.1 0 0  4.15 0 0  4.199999999999999 0 0  4.25 0 0  4.300000000000001 0 0  4.35 0 0  4.4 0 0  4.449999999999999 0 0  4.5 0 0  4.550000000000001 0 0  4.6 0 0  4.65 0 0  4.699999999999999 0 0  4.75 0 0  4.800000000000001 0 0  4.85 0 0  4.9 0 0  4.949999999999999 0 0  5 0 0  </DataArray>
</Points>
<Cells>
<DataArray  type="UInt32"  Name="connectivity"  format="ascii">0 1  1 2  2 3  3 4  4 5  5 6  6 7  7 8  8 9  9 10  10 11  11 12  12 13  13 14  14 15  15 16  16 17  17 18  18 19  19 20  20 21  21 22  22 23  23 24  24 25  25 26  26 27  27 28  28 29  29 30  30 31  31 32  32 33  33 34  34 35  35 36  36 37  37 38  38 39  39 40  40 41  41 42  42 43  43 44  44 45  45 46  46 47  47 48  48 49  49 50  50 51  51 52  52 53  53 54  54 55  55 56  56 57  57 58  58 59  59 60  60 61  61 62  62 63  63 64  64 65  65 66  66 67  67 68  68 69  69 70  70 71  71 72  72 73  73 74  74 75  75 76  76 77  77 78  78 79  79 80  80 81  81 82  82 83  83 84  84 85  85 86  86 87  87 88  88 89  89 90  90 91  91 92  92 93  93 94  94 95  95 96  96 97  97 98  98 99  99 100  100 101  101 102  102 103  103 104  104 105  105 106  106 107  107 108  108 109  109 110  110 111  111 112  112 113  113 114  114 115  115 116  116 117  117 118  118 119  119 120  120 121  121 122  122 123  123 124  124 125  125 126  126 127  127 128  128 129  129 130  130 131  131 132  132 133  133 134  134 135  135 136  136 137  137 138  138 139  139 140  140 141  141 142  142 143  143 144  144 145  145 146  146 147  147 148  148 149  149 150  150 151  151 152  152 153  153 154  154 155  155 156  156 157  157 158  158 159  159 160  160 161  161 162  162 163  163 164  164 165  165 166  166 167  167 168  168 169  169 170  170 171  171 172  172 173  173 174  174 175  175 176  176 177  177 178  178 179  179 180  180 181  181 182  182 183  183 184  184 185  185 186  186 187  187 188  188 189  189 190  190 191  191 192  192 193  193 194  194 195  195 196  196 197  197 198  198 199  199 200  </DataArray>
<DataArray  type="UInt32"  Name="offsets"  format="ascii">2 4 6 8 10 12 14 16 18 20 22 24 26 28 30 32 34 36 38 40 42 44 46 48 50 52 54 56 58 60 62 64 66 68 70 72 74 76 78 80 82 84 86 88 90 92 94 96 98 100 102 104 106 108 110 112 114 116 118 120 122 124 126 128 130 132 134 136 138 140 142 144 146 148 150 152 154 156 158 160 162 164 166 168 170 172 174 176 178 180 182 184 186 188 190 192 194 196 198 200 202 204 206 208 210 212 214 216 218 220 222 224 226 228 230 232 234 236 238 240 242 244 246 248 250 252 254 256 258 260 262 264 266 268 270 272 274 276 278 280 282 284 286 288 290 292 294 296 298 300 302 304 306 308 310 312 314 316 318 320 322 324 326 328 330 332 334 336 338 340 342 344 346 348 350 352 354 356 358 360 362 364 366 368 370 372 374 376 378 380 382 384 386 388 390 392 394 396 398 400 </DataArray>
<DataArray  type="UInt8"  Name="types"  format="ascii">3 3 3 3 3 3 3 3 3 3 3 3 3 3 3 3 3 3 3 3 3 3 3 3 3 3 3 3 3 3 3 3 3 3 3 3 3 3 3 3 3 3 3 3 3 3 3 3 3 3 3 3 3 3 3 3 3 3 3 3 3 3 3 3 3 3 3 3 3 3 3 3 3 3 3 3 3 3 3 3 3 3 3 3 3 3 3 3 3 3 3 3 3 3 3 3 3 3 3 3 3 3 3 3 3 3 3 3 3 3 3 3 3 3 3 3 3 3 3 3 3 3 3 3 3 3 3 3 3 3 3 3 3 3 3 3 3 3 3 3 3 3 3 3 3 3 3 3 3 3 3 3 3 3 3 3 3 3 3 3 3 3 3 3 3 3 3 3 3 3 3 3 3 3 3 3 3 3 3 3 3 3 3 3 3 3 3 3 3 3 3 3 3 3 3 3 3 3 3 3 </DataArray>
</Cells>
<PointData  Vectors="(s, w)"> 
<DataArray  type="Float64"  Name="(s, w)"  NumberOfComponents="3" format="ascii">2.5267328871170598e+00 0.0000000000000000e+00 0.0000000000000000e+00  2.5292801823314335e+00 3.7657096001399520e-01 0.0000000000000000e+00  2.5240706988568671e+00 3.2242932139654790e-01 0.0000000000000000e+00  2.5312807678315403e+00 6.2172097794830161e-01 0.0000000000000000e+00  2.5248919590581078e+00 1.0662630428556552e+00 0.0000000000000000e+00  2.5281553737620954e+00 1.0349552437310781e+00 0.0000000000000000e+00  2.5261522690865110e+00 1.2550441290743817e+00 0.0000000000000000e+00  2.5298339852935841e+00 1.7419306631920184e+00 0.0000000000000000e+00  2.5227808638252962e+00 1.7604008572302128e+00 0.0000000000000000e+00  2.5304335300581391e+00 1.8891660881750783e+00 0.0000000000000000e+00  2.5253439083944342e+00 2.4065545484973589e+00 0.0000000000000000e+00  2.5268984703542823e+00 2.4769755452774436e+00 0.0000000000000000e+00  2.5250290651293672e+00 2.5368137329749270e+00 0.0000000000000000e+00  2.5301614898208897e+00 3.0479866916479614e+00 0.0000000000000000e+00  2.5210389301846261e+00 3.2031372766337820e+00 0.0000000000000000e+00  2.5287191913410672e+00 3.1868644162434974e+00 0.0000000000000000e+00  2.5250544291484207e+00 3.6944685318730732e+00 0.0000000000000000e+00  2.5245863129147876e+00 3.9153778339247300e+00 0.0000000000000000e+00  2.5226486102130012e+00 3.8591607184752186e+00 0.0000000000000000e+00  2.5300155680120673e+00 4.3161442413119984e+00 0.0000000000000000e+00  2.5184775770228374e+00 4.6348844350973541e+00 0.0000000000000000e+00  2.5263142766118936e+00 4.5246176179774000e+00 0.0000000000000000e+00  2.5251363975203196e+00 4.9497322981472145e+00 0.0000000000000000e+00  2.5218221406753876e+00 5.3341091980597373e+00 0.0000000000000000e+00  2.5191328045447956e+00 5.2209652444896584e+00 0.0000000000000000e+00  2.5302669476452166e+00 5.5579308461826900e+00 0.0000000000000000e+00  2.5150573824871514e+00 6.0392200822698685e+00 0.0000000000000000e+00  2.5217757548399669e+00 5.9009569863022584e+00 0.0000000000000000e+00  2.5253092491973135e+00 6.1779658016672210e+00 0.0000000000000000e+00  2.5186685513399762e+00 6.7093541428817760e+00 0.0000000000000000e+00  2.5125878762286611e+00 6.6135921094706989e+00 0.0000000000000000e+00  2.5304248277345054e+00 6.7753699313810465e+00 0.0000000000000000e+00  2.5119094798549653e+00 7.3818185967993877e+00 0.0000000000000000e+00  2.5136880398140042e+00 7.3078361123096505e+00 0.0000000000000000e+00  2.5242001486687786e+00 7.3926154988772597e+00 0.0000000000000000e+00  2.5170560978426195e+00 8.0121089359107884e+00 0.0000000000000000e+00  2.5018720760989841e+00 8.0279680374438538e+00 0.0000000000000000e+00  2.5282683778339314e+00 7.9954860636916925e+00 0.0000000000000000e+00  2.5113084789750495e+00 8.6230853718986999e+00 0.0000000000000000e+00  2.5014465765017277e+00 8.7241964120440549e+00 0.0000000000000000e+00  2.5170889475828102e+00 8.6137374185389106e+00 0.0000000000000000e+00  2.5189574358508851e+00 9.1802647648709357e+00 0.0000000000000000e+00  2.4862125964642288e+00 9.3826980000697908e+00 0.0000000000000000e+00  2.5149723870343825e+00 9.2204914625215046e+00 0.0000000000000000e+00  2.5106772398080470e+00 9.6512709667110883e+00 0.0000000000000000e+00  2.4848695095428459e+00 9.9759517627995304e+00 0.0000000000000000e+00  2.4901656752115744e+00 9.7624938843199391e+00 0.0000000000000000e+00  2.5153835957112962e+00 1.0083649156022460e+01 0.0000000000000000e+00  2.4657376665596997e+00 1.0392871140837784e+01 0.0000000000000000e+00  2.4767827697278673e+00 1.0324251592324883e+01 0.0000000000000000e+00  2.4936480919566382e+00 1.0361223108602436e+01 0.0000000000000000e+00  2.4687346335612035e+00 1.0774984897562089e+01 0.0000000000000000e+00  2.4362246623929571e+00 1.0674656505987466e+01 0.0000000000000000e+00  2.4853785610131962e+00 1.0770946573801480e+01 0.0000000000000000e+00  2.4479798879180352e+00 1.0850338769813581e+01 0.0000000000000000e+00  2.4238686414401416e+00 1.1138753940726259e+01 0.0000000000000000e+00  2.4375548843147992e+00 1.0960094322238287e+01 0.0000000000000000e+00  2.4573811289903889e+00 1.1173201706663885e+01 0.0000000000000000e+00  2.3870467783736107e+00 1.1168863364444194e+01 0.0000000000000000e+00  2.4172864919710935e+00 1.1530702798408468e+01 0.0000000000000000e+00  2.4226004738014271e+00 1.1178167741921332e+01 0.0000000000000000e+00  2.4001160133671182e+00 1.1503175373091699e+01 0.0000000000000000e+00  2.3590433841981633e+00 1.1608041759877436e+01 0.0000000000000000e+00  2.4146843074606115e+00 1.1779009669639930e+01 0.0000000000000000e+00  2.3754529508655904e+00 1.1330566362030920e+01 0.0000000000000000e+00  2.3566994805448851e+00 1.1999505081354577e+01 0.0000000000000000e+00  2.3518101312274799e+00 1.1971423751837470e+01 0.0000000000000000e+00  2.3833577744122603e+00 1.1738506566251498e+01 0.0000000000000000e+00  2.3305199489754926e+00 1.1819527670527439e+01 0.0000000000000000e+00  2.3290622953105453e+00 1.2411908120715026e+01 0.0000000000000000e+00  2.3402839059340859e+00 1.2108610129870057e+01 0.0000000000000000e+00  2.3346092189986902e+00 1.1748556782529894e+01 0.0000000000000000e+00  2.3084686207754972e+00 1.2702930703405423e+01 0.0000000000000000e+00  2.2923426761728152e+00 1.2286526296859510e+01 0.0000000000000000e+00  2.3308389987326747e+00 1.2424194551078063e+01 0.0000000000000000e+00  2.2804084559559641e+00 1.1929919180125035e+01 0.0000000000000000e+00  2.2981215459278612e+00 1.3552839723001012e+01 0.0000000000000000e+00  2.2408020491559446e+00 1.1662098250346052e+01 0.0000000000000000e+00  2.3369688564825690e+00 1.3326483507844950e+01 0.0000000000000000e+00  2.2106320512243252e+00 1.1896776057297645e+01 0.0000000000000000e+00  2.2939313209143735e+00 1.4191787431509375e+01 0.0000000000000000e+00  2.1928249088249143e+00 1.1068942575672596e+01 0.0000000000000000e+00  2.3435873447061195e+00 1.4572006859134214e+01 0.0000000000000000e+00  2.1239374130284632e+00 1.1432469525082764e+01 0.0000000000000000e+00  2.3113116515215384e+00 1.4845371216738080e+01 0.0000000000000000e+00  2.1499659752225155e+00 1.0841195209932417e+01 0.0000000000000000e+00  2.3149273281949929e+00 1.5444911103064738e+01 0.0000000000000000e+00  2.0683419537184329e+00 1.1122395491969524e+01 0.0000000000000000e+00  2.3336331990310830e+00 1.5286362876650882e+01 0.0000000000000000e+00  2.0930429517345619e+00 1.1091608612655909e+01 0.0000000000000000e+00  2.2577223808244975e+00 1.5711015569390392e+01 0.0000000000000000e+00  2.0960410804428755e+00 1.1443535067076603e+01 0.0000000000000000e+00  2.2657314904209205e+00 1.4693324157935448e+01 0.0000000000000000e+00  2.0768626408712647e+00 1.2829439233196675e+01 0.0000000000000000e+00  2.2113586263612999e+00 1.4518386564591488e+01 0.0000000000000000e+00  2.1305897075988658e+00 1.2560387172564010e+01 0.0000000000000000e+00  2.0910586495515102e+00 1.4116896042860123e+01 0.0000000000000000e+00  2.2427964981609518e+00 1.4783656688502504e+01 0.0000000000000000e+00  1.9675897111419365e+00 1.1492389409804067e+01 0.0000000000000000e+00  2.2515582469578117e+00 1.6180645262561114e+01 0.0000000000000000e+00  2.0035799649280661e+00 1.2104398427108336e+01 0.0000000000000000e+00  2.2280128803453283e+00 1.6197291579650859e+01 0.0000000000000000e+00  1.8786969578152890e+00 9.7225034386230611e+00 0.0000000000000000e+00  2.4166381992926018e+00 2.0175989622154916e+01 0.0000000000000000e+00  1.7666917398031832e+00 7.3826543333625523e+00 0.0000000000000000e+00  2.3526135066255818e+00 1.8873893379075589e+01 0.0000000000000000e+00  1.9128220249821504e+00 1.0420749662889078e+01 0.0000000000000000e+00  2.3118324709934122e+00 1.8221958500039612e+01 0.0000000000000000e+00  1.7700296822520802e+00 7.5753107910599136e+00 0.0000000000000000e+00  2.4673862947068073e+00 2.1215491027145546e+01 0.0000000000000000e+00  1.8125590897396826e+00 8.4632730807899090e+00 0.0000000000000000e+00  2.1906158123642947e+00 1.5928874141791386e+01 0.0000000000000000e+00  2.1018230097024717e+00 1.4343758248084923e+01 0.0000000000000000e+00  2.1156139222807377e+00 1.4567705900111198e+01 0.0000000000000000e+00  1.9564668469078563e+00 1.1482505396555480e+01 0.0000000000000000e+00  2.1934054483979879e+00 1.6138597023260132e+01 0.0000000000000000e+00  2.1916920672147180e+00 1.6105251888719163e+01 0.0000000000000000e+00  1.7427267787674305e+00 7.1170321468758422e+00 0.0000000000000000e+00  2.4652910312883307e+00 2.1513687116358497e+01 0.0000000000000000e+00  1.8746313472297902e+00 9.9023791084636379e+00 0.0000000000000000e+00  2.1320491982365755e+00 1.5266499654472513e+01 0.0000000000000000e+00  1.9136896812781128e+00 1.0874780347909420e+01 0.0000000000000000e+00  2.5138852825050146e+00 2.2447717159613440e+01 0.0000000000000000e+00  1.5384429458072975e+00 3.3013238689213731e+00 0.0000000000000000e+00  2.3588165683355609e+00 1.9496516641411525e+01 0.0000000000000000e+00  2.1435758426738651e+00 1.5533386393250343e+01 0.0000000000000000e+00  1.9280939842918634e+00 1.1513830440223250e+01 0.0000000000000000e+00  1.9328480069948888e+00 1.1370165001147720e+01 0.0000000000000000e+00  2.3817436739407576e+00 2.0426589814705231e+01 0.0000000000000000e+00  1.9853121795663304e+00 1.2454516041981966e+01 0.0000000000000000e+00  1.6893044327244324e+00 6.4584635624046882e+00 0.0000000000000000e+00  2.5889824574579090e+00 2.4369688482705371e+01 0.0000000000000000e+00  1.8506175295195191e+00 9.8886319751703944e+00 0.0000000000000000e+00  1.8966625191782152e+00 1.1158036350281160e+01 0.0000000000000000e+00  2.1057148091146609e+00 1.5398762700410391e+01 0.0000000000000000e+00  2.4299486902338265e+00 2.1187584751339731e+01 0.0000000000000000e+00  1.5177201979297315e+00 3.6175459685373790e+00 0.0000000000000000e+00  2.1729114639685188e+00 1.6204432007640882e+01 0.0000000000000000e+00  2.4626362645131716e+00 2.2033159305520048e+01 0.0000000000000000e+00  1.6037004555757899e+00 5.6160885141616683e+00 0.0000000000000000e+00  2.0231368486337220e+00 1.3668199215385185e+01 0.0000000000000000e+00  2.2839154124555554e+00 1.9253968911115233e+01 0.0000000000000000e+00  2.1883768636262424e+00 1.6940086982020304e+01 0.0000000000000000e+00  1.3368885919018427e+00 -2.3592311234875532e-01 0.0000000000000000e+00  2.7395851821217456e+00 2.7396714340568661e+01 0.0000000000000000e+00  1.9033587133858227e+00 1.1462146143496490e+01 0.0000000000000000e+00  1.7914390846483603e+00 9.6568790329196048e+00 0.0000000000000000e+00  1.9259244018368500e+00 1.2410575167499346e+01 0.0000000000000000e+00  2.6501390532783540e+00 2.5901425873895914e+01 0.0000000000000000e+00  1.5039869529896479e+00 3.6916510262528215e+00 0.0000000000000000e+00  1.8331321408312415e+00 1.0175450140981763e+01 0.0000000000000000e+00  2.6478238681218462e+00 2.6126272822919137e+01 0.0000000000000000e+00  1.7612546221826879e+00 9.0814444906623297e+00 0.0000000000000000e+00  1.6873738529364748e+00 8.1311399907312385e+00 0.0000000000000000e+00  2.1717544299231499e+00 1.7143555390559598e+01 0.0000000000000000e+00  2.6394072441432210e+00 2.5549356520625324e+01 0.0000000000000000e+00  1.0290985883507269e+00 -5.3345582388059523e+00 0.0000000000000000e+00  2.4515455214664943e+00 2.1965310954190180e+01 0.0000000000000000e+00  2.1634974568726819e+00 1.8436584778520984e+01 0.0000000000000000e+00  2.0828753884203866e+00 1.5499929593279345e+01 0.0000000000000000e+00  1.1390177402982973e+00 -3.0666867912846199e+00 0.0000000000000000e+00  2.9625504920664310e+00 3.1550110012783801e+01 0.0000000000000000e+00  1.8607962630301689e+00 1.0739858655630895e+01 0.0000000000000000e+00  1.4590125803858796e+00 4.5187439847924384e+00 0.0000000000000000e+00  2.1095496718939870e+00 1.6642150724213320e+01 0.0000000000000000e+00  2.5049790946110400e+00 2.4539662942600867e+01 0.0000000000000000e+00  1.7512674144695344e+00 9.5365744193041699e+00 0.0000000000000000e+00  1.2309355740258328e+00 -1.7576650873359438e+00 0.0000000000000000e+00  3.1639036429666580e+00 3.5023342759348921e+01 0.0000000000000000e+00  1.4859900500022893e+00 4.7504811057305689e+00 0.0000000000000000e+00  1.7762837270777538e+00 1.1728824786779773e+01 0.0000000000000000e+00  1.5687305242550458e+00 6.6806126637687493e+00 0.0000000000000000e+00  3.2454224523443163e+00 3.5706449817269664e+01 0.0000000000000000e+00  8.8817142478747080e-01 -7.4190137982077937e+00 0.0000000000000000e+00  1.9916511257163165e+00 1.4357396181068079e+01 0.0000000000000000e+00  2.3277342903217648e+00 2.1980200477426319e+01 0.0000000000000000e+00  2.3547749065738794e+00 2.1760129999278458e+01 0.0000000000000000e+00  1.0888310592541652e+00 -5.1206127170640050e+00 0.0000000000000000e+00  1.7343210781939917e+00 1.8481667551562598e+01 0.0000000000000000e+00  4.2418117165297513e+00 1.2982540859812756e+01 0.0000000000000000e+00  1.9025496943731688e+00 -3.4066599187121341e+01 0.0000000000000000e+00  3.1660879389005587e+00 3.4536639772005891e+01 0.0000000000000000e+00  2.2981532488500793e+00 4.8503870899906083e+00 0.0000000000000000e+00  3.2357109741101917e+00 -2.6849461195933230e+01 0.0000000000000000e+00  2.7112878568165129e+00 2.2075569334933167e+01 0.0000000000000000e+00  3.0597216774627007e+00 1.2320786992373711e-01 0.0000000000000000e+00  3.0387200763059234e+00 -1.6609336168944584e+01 0.0000000000000000e+00  2.2055607472042884e+00 1.1884356353105694e+01 0.0000000000000000e+00  2.7722207551981692e+00 2.9437754503861459e+01 0.0000000000000000e+00  2.9275108978709432e+00 -1.1831333154985302e+01 0.0000000000000000e+00  3.0926996752704747e+00 -1.0396830452304986e+01 0.0000000000000000e+00  3.8699980827113221e+00 1.2640812731390092e+01 0.0000000000000000e+00  1.9808586521601836e+00 -3.0853073279689180e+01 0.0000000000000000e+00  3.0151640829541839e+00 8.6593779923972178e+00 0.0000000000000000e+00  3.6240282650437652e+00 1.4966647185977832e+01 0.0000000000000000e+00  2.0266256744623439e+00 -1.8917041935028664e+01 0.0000000000000000e+00  3.1350457793120632e+00 2.7673246716580760e+01 0.0000000000000000e+00  3.4308411540335864e+00 -1.8096558451327112e+01 0.0000000000000000e+00  2.5044440376683652e+00 -2.0951433205403912e+01 0.0000000000000000e+00  1.9322277188903743e+00 3.5176709889991606e+01 0.0000000000000000e+00  3.6226851845742143e+00 0.0000000000000000e+00 0.0000000000000000e+00  </DataArray> 
</PointData> 
</Piece>
</UnstructuredGrid>
</VTKFile>