<?xml version="1.0"?>
<VTKFile type="UnstructuredGrid"  version="0.1"  >
<UnstructuredGrid>
<Piece  NumberOfPoints="201" NumberOfCells="200">
<Points>
<DataArray  type="Float64"  NumberOfComponents="3"  format="ascii">-5 0 0  -4.95 0 0  -4.9 0 0  -4.85 0 0  -4.8 0 0  -4.75 0 0  -4.7 0 0  -4.65 0 0  -4.6 0 0  -4.55 0 0  -4.5 0 0  -4.45 0 0  -4.4 0 0  -4.35 0 0  -4.3 0 0  -4.25 0 0  -4.2 0 0  -4.15 0 0  -4.1 0 0  -4.05 0 0  -4 0 0  -3.95 0 0  -3.9 0 0  -3.85 0 0  -3.8 0 0  -3.75 0 0  -3.7 0 0  -3.65 0 0  -3.6 0 0  -3.55 0 0  -3.5 0 0  -3.45 0 0  -3.4 0 0  -3.35 0 0  -3.3 0 0  -3.25 0 0  -3.2 0 0  -3.15 0 0  -3.1 0 0  -3.05 0 0  -3 0 0  -2.95 0 0  -2.9 0 0  -2.85 0 0  -2.8 0 0  -2.75 0 0  -2.7 0 0  -2.65 0 0  -2.6 0 0  -2.55 0 0  -2.5 0 0  -2.45 0 0  -2.4 0 0  -2.35 0 0  -2.3 0 0  -2.25 0 0  -2.2 0 0  -2.15 0 0  -2.1 0 0  -2.05 0 0  -2 0 0  -1.95 0 0  -1.9 0 0  -1.85 0 0  -1.8 0 0  -1.75 0 0  -1.7 0 0  -1.65 0 0  -1.6 0 0  -1.55 0 0  -1.5 0 0  -1.45 0 0  -1.4 0 0  -1.35 0 0  -1.3 0 0  -1.25 0 0  -1.2 0 0  -1.15 0 0  -1.1 0 0  -1.05 0 0  -1 0 0  -0.9500000000000002 0 0  -0.9000000000000004 0 0  -0.8499999999999996 0 0  -0.7999999999999998 0 0  -0.75 0 0  -0.7000000000000002 0 0  -0.6500000000000004 0 0  -0.5999999999999996 0 0  -0.5499999999999998 0 0  -0.5 0 0  -0.4500000000000002 0 0  -0.4000000000000004 0 0  -0.3499999999999996 0 0  -0.2999999999999998 0 0  -0.25 0 0  -0.2000000000000002 0 0  -0.1500000000000004 0 0  -0.09999999999999964 0 0  -0.04999999999999982 0 0  0 0 0  0.04999999999999982 0 0  0.09999999999999964 0 0  0.1500000000000004 0 0  0.2000000000000002 0 0  0.25 0 0  0.2999999999999998 0 0  0.3499999999999996 0 0  0.4000000000000004 0 0  0.4500000000000002 0 0  0.5 0 0  0.5499999999999998 0 0  0.5999999999999996 0 0  0.6500000000000004 0 0  0.7000000000000002 0 0  0.75 0 0  0.7999999999999998 0 0  0.8499999999999996 0 0  0.9000000000000004 0 0  0.9500000000000002 0 0  1 0 0  1.05 0 0  1.1 0 0  1.15 0 0  1.2 0 0  1.25 0 0  1.3 0 0  1.35 0 0  1.4 0 0  1.45 0 0  1.5 0 0  1.55 0 0  1.6 0 0  1.65 0 0  1.7 0 0  1.75 0 0  1.8 0 0  1.85 0 0  1.9 0 0  1.95 0 0  2 0 0  2.05 0 0  2.1 0 0  2.15 0 0  2.2 0 0  2.25 0 0  2.3 0 0  2.35 0 0  2.4 0 0  2.45 0 0  2.5 0 0  2.55 0 0  2.6 0 0  2.65 0 0  2.7 0 0  2.75 0 0  2.8 0 0  2.85 0 0  2.9 0 0  2.95 0 0  3 0 0  3.050000000000001 0 0  3.1 0 0  3.15 0 0  3.199999999999999 0 0  3.25 0 0  3.300000000000001 0 0  3.35 0 0  3.4 0 0  3.449999999999999 0 0  3.5 0 0  3.550000000000001 0 0  3.6 0 0  3.65 0 0  3.699999999999999 0 0  3.75 0 0  3.800000000000001 0 0  3.85 0 0  3.9 0 0  3.949999999999999 0 0  4 0 0  4.050000000000001 0 0  4.1 0 0  4.15 0 0  4.199999999999999 0 0  4.25 0 0  4.300000000000001 0 0  4.35 0 0  4.4 0 0  4.449999999999999 0 0  4.5 0 0  4.550000000000001 0 0  4.6 0 0  4.65 0 0  4.699999999999999 0 0  4.75 0 0  4.800000000000001 0 0  4.85 0 0  4.9 0 0  4.949999999999999 0 0  5 0 0  </DataArray>
</Points>
<Cells>
<DataArray  type="UInt32"  Name="connectivity"  format="ascii">0 1  1 2  2 3  3 4  4 5  5 6  6 7  7 8  8 9  9 10  10 11  11 12  12 13  13 14  14 15  15 16  16 17  17 18  18 19  19 20  20 21  21 22  22 23  23 24  24 25  25 26  26 27  27 28  28 29  29 30  30 31  31 32  32 33  33 34  34 35  35 36  36 37  37 38  38 39  39 40  40 41  41 42  42 43  43 44  44 45  45 46  46 47  47 48  48 49  49 50  50 51  51 52  52 53  53 54  54 55  55 56  56 57  57 58  58 59  59 60  60 61  61 62  62 63  63 64  64 65  65 66  66 67  67 68  68 69  69 70  70 71  71 72  72 73  73 74  74 75  75 76  76 77  77 78  78 79  79 80  80 81  81 82  82 83  83 84  84 85  85 86  86 87  87 88  88 89  89 90  90 91  91 92  92 93  93 94  94 95  95 96  96 97  97 98  98 99  99 100  100 101  101 102  102 103  103 104  104 105  105 106  106 107  107 108  108 109  109 110  110 111  111 112  112 113  113 114  114 115  115 116  116 117  117 118  118 119  119 120  120 121  121 122  122 123  123 124  124 125  125 126  126 127  127 128  128 129  129 130  130 131  131 132  132 133  133 134  134 135  135 136  136 137  137 138  138 139  139 140  140 141  141 142  142 143  143 144  144 145  145 146  146 147  147 148  148 149  149 150  150 151  151 152  152 153  153 154  154 155  155 156  156 157  157 158  158 159  159 160  160 161  161 162  162 163  163 164  164 165  165 166  166 167  167 168  168 169  169 170  170 171  171 172  172 173  173 174  174 175  175 176  176 177  177 178  178 179  179 180  180 181  181 182  182 183  183 184  184 185  185 186  186 187  187 188  188 189  189 190  190 191  191 192  192 193  193 194  194 195  195 196  196 197  197 198  198 199  199 200  </DataArray>
<DataArray  type="UInt32"  Name="offsets"  format="ascii">2 4 6 8 10 12 14 16 18 20 22 24 26 28 30 32 34 36 38 40 42 44 46 48 50 52 54 56 58 60 62 64 66 68 70 72 74 76 78 80 82 84 86 88 90 92 94 96 98 100 102 104 106 108 110 112 114 116 118 120 122 124 126 128 130 132 134 136 138 140 142 144 146 148 150 152 154 156 158 160 162 164 166 168 170 172 174 176 178 180 182 184 186 188 190 192 194 196 198 200 202 204 206 208 210 212 214 216 218 220 222 224 226 228 230 232 234 236 238 240 242 244 246 248 250 252 254 256 258 260 262 264 266 268 270 272 274 276 278 280 282 284 286 288 290 292 294 296 298 300 302 304 306 308 310 312 314 316 318 320 322 324 326 328 330 332 334 336 338 340 342 344 346 348 350 352 354 356 358 360 362 364 366 368 370 372 374 376 378 380 382 384 386 388 390 392 394 396 398 400 </DataArray>
<DataArray  type="UInt8"  Name="types"  format="ascii">3 3 3 3 3 3 3 3 3 3 3 3 3 3 3 3 3 3 3 3 3 3 3 3 3 3 3 3 3 3 3 3 3 3 3 3 3 3 3 3 3 3 3 3 3 3 3 3 3 3 3 3 3 3 3 3 3 3 3 3 3 3 3 3 3 3 3 3 3 3 3 3 3 3 3 3 3 3 3 3 3 3 3 3 3 3 3 3 3 3 3 3 3 3 3 3 3 3 3 3 3 3 3 3 3 3 3 3 3 3 3 3 3 3 3 3 3 3 3 3 3 3 3 3 3 3 3 3 3 3 3 3 3 3 3 3 3 3 3 3 3 3 3 3 3 3 3 3 3 3 3 3 3 3 3 3 3 3 3 3 3 3 3 3 3 3 3 3 3 3 3 3 3 3 3 3 3 3 3 3 3 3 3 3 3 3 3 3 3 3 3 3 3 3 3 3 3 3 3 3 </DataArray>
</Cells>
<PointData  Vectors="(s, w)"> 
<DataArray  type="Float64"  Name="(s, w)"  NumberOfComponents="3" format="ascii">3.1622776601683804e+00 0.0000000000000000e+00 0.0000000000000000e+00  3.1622776601683800e+00 1.0860004868315072e-14 0.0000000000000000e+00  3.1622776601683800e+00 -5.1309017641850517e-15 0.0000000000000000e+00  3.1622776601683800e+00 5.9381158912210104e-16 0.0000000000000000e+00  3.1622776601683800e+00 7.0158802840316179e-15 0.0000000000000000e+00  3.1622776601683800e+00 -1.9296278588868376e-16 0.0000000000000000e+00  3.1622776601683800e+00 -1.2565935876330350e-14 0.0000000000000000e+00  3.1622776601683804e+00 -4.8831276259772706e-15 0.0000000000000000e+00  3.1622776601683804e+00 1.3744171069463333e-14 0.0000000000000000e+00  3.1622776601683800e+00 3.9236312252812841e-15 0.0000000000000000e+00  3.1622776601683800e+00 -4.6688274830340003e-15 0.0000000000000000e+00  3.1622776601683800e+00 2.3575963969348062e-15 0.0000000000000000e+00  3.1622776601683800e+00 -5.1410143257187252e-15 0.0000000000000000e+00  3.1622776601683800e+00 5.5247804964033525e-16 0.0000000000000000e+00  3.1622776601683800e+00 3.8047514275364756e-15 0.0000000000000000e+00  3.1622776601683800e+00 -9.5470500995780146e-16 0.0000000000000000e+00  3.1622776601683800e+00 -2.1896059760466469e-15 0.0000000000000000e+00  3.1622776601683804e+00 -7.5783039616379137e-15 0.0000000000000000e+00  3.1622776601683804e+00 1.0379292523997064e-14 0.0000000000000000e+00  3.1622776601683800e+00 2.6841878337005263e-15 0.0000000000000000e+00  3.1622776601683800e+00 -2.5736613692578636e-15 0.0000000000000000e+00  3.1622776601683800e+00 -4.7335570587638976e-15 0.0000000000000000e+00  3.1622776601683804e+00 3.5652254670285406e-15 0.0000000000000000e+00  3.1622776601683800e+00 2.5872688495630864e-15 0.0000000000000000e+00  3.1622776601683800e+00 -7.9080727186856104e-15 0.0000000000000000e+00  3.1622776601683800e+00 1.2713205519594561e-14 0.0000000000000000e+00  3.1622776601683800e+00 -8.1957458092485357e-15 0.0000000000000000e+00  3.1622776601683800e+00 1.8420478909818806e-15 0.0000000000000000e+00  3.1622776601683800e+00 1.7869597845940756e-15 0.0000000000000000e+00  3.1622776601683800e+00 -8.1257947015991699e-15 0.0000000000000000e+00  3.1622776601683800e+00 1.2588895266703658e-14 0.0000000000000000e+00  3.1622776601683800e+00 -7.8532336065824551e-15 0.0000000000000000e+00  3.1622776601683800e+00 1.1605098240624057e-15 0.0000000000000000e+00  3.1622776601683800e+00 3.0241104404358122e-15 0.0000000000000000e+00  3.1622776601683800e+00 -1.0187984998766493e-14 0.0000000000000000e+00  3.1622776601683800e+00 1.7035806535562298e-14 0.0000000000000000e+00  3.1622776601683795e+00 -1.6586021016346879e-14 0.0000000000000000e+00  3.1622776601683809e+00 1.7256608346161788e-14 0.0000000000000000e+00  3.1622776601683786e+00 -2.4735837555562281e-14 0.0000000000000000e+00  3.1622776601683822e+00 3.5387014273623078e-14 0.0000000000000000e+00  3.1622776601683764e+00 -6.1116833650922446e-14 0.0000000000000000e+00  3.1622776601683862e+00 1.1680621200544870e-13 0.0000000000000000e+00  3.1622776601683693e+00 -2.1075880105995268e-13 0.0000000000000000e+00  3.1622776601683986e+00 3.6789034248215760e-13 0.0000000000000000e+00  3.1622776601683480e+00 -6.4033133795572888e-13 0.0000000000000000e+00  3.1622776601684350e+00 1.1039525934660974e-12 0.0000000000000000e+00  3.1622776601682849e+00 -1.8880900613348292e-12 0.0000000000000000e+00  3.1622776601685438e+00 3.2406448691114896e-12 0.0000000000000000e+00  3.1622776601680980e+00 -5.5796054824883895e-12 0.0000000000000000e+00  3.1622776601688654e+00 9.6105476464662060e-12 0.0000000000000000e+00  3.1622776601675433e+00 -1.6560434827137555e-11 0.0000000000000000e+00  3.1622776601698210e+00 2.8541906501450731e-11 0.0000000000000000e+00  3.1622776601658971e+00 -4.9182194123408832e-11 0.0000000000000000e+00  3.1622776601726579e+00 8.4731086232318361e-11 0.0000000000000000e+00  3.1622776601610103e+00 -1.4597509726156439e-10 0.0000000000000000e+00  3.1622776601810765e+00 2.5147996622209043e-10 0.0000000000000000e+00  3.1622776601465068e+00 -4.3322342008736233e-10 0.0000000000000000e+00  3.1622776602060623e+00 7.4632249516184090e-10 0.0000000000000000e+00  3.1622776601034630e+00 -1.2857213693494606e-09 0.0000000000000000e+00  3.1622776602802158e+00 2.2149711326098596e-09 0.0000000000000000e+00  3.1622776599757154e+00 -3.8158445508282147e-09 0.0000000000000000e+00  3.1622776605002931e+00 6.5737654061686658e-09 0.0000000000000000e+00  3.1622776595965760e+00 -1.1324979944896501e-08 0.0000000000000000e+00  3.1622776611534560e+00 1.9510134823474804e-08 0.0000000000000000e+00  3.1622776584713383e+00 -3.3611119956988435e-08 0.0000000000000000e+00  3.1622776630919613e+00 5.7903606571894981e-08 0.0000000000000000e+00  3.1622776551317755e+00 -9.9753512400823638e-08 0.0000000000000000e+00  3.1622776688451975e+00 1.7185050239441540e-07 0.0000000000000000e+00  3.1622776452203794e+00 -2.9605570869545462e-07 0.0000000000000000e+00  3.1622776859200710e+00 5.1003041480556834e-07 0.0000000000000000e+00  3.1622776158046157e+00 -8.7865567706688288e-07 0.0000000000000000e+00  3.1622777365961223e+00 1.5137053947649083e-06 0.0000000000000000e+00  3.1622775285023716e+00 -2.6077383327474449e-06 0.0000000000000000e+00  3.1622778869961987e+00 4.4924850116761785e-06 0.0000000000000000e+00  3.1622772694004202e+00 -7.7394358495484910e-06 0.0000000000000000e+00  3.1622783333645024e+00 1.3333123430963278e-05 0.0000000000000000e+00  3.1622765004188182e+00 -2.2969662802767291e-05 0.0000000000000000e+00  3.1622796581289325e+00 3.9571008951108319e-05 0.0000000000000000e+00  3.1622742181795087e+00 -6.8171052696447556e-05 0.0000000000000000e+00  3.1622835898620090e+00 1.1744167457797371e-04 0.0000000000000000e+00  3.1622674447858619e+00 -2.0232314901332321e-04 0.0000000000000000e+00  3.1622952587524331e+00 3.4855154428665189e-04 0.0000000000000000e+00  3.1622473422354003e+00 -6.0047057314696996e-04 0.0000000000000000e+00  3.1623298905948292e+00 1.0344530682371011e-03 0.0000000000000000e+00  3.1621876806010603e+00 -1.7821308857336024e-03 0.0000000000000000e+00  3.1624326740263444e+00 3.0700936195648381e-03 0.0000000000000000e+00  3.1620106140287767e+00 -5.2892312293005006e-03 0.0000000000000000e+00  3.1627377268343939e+00 9.1113699529472830e-03 0.0000000000000000e+00  3.1614851167666478e+00 -1.5698588560101395e-02 0.0000000000000000e+00  3.1636431257372126e+00 2.7038946141789848e-02 0.0000000000000000e+00  3.1599256282257175e+00 -4.6598648105584228e-02 0.0000000000000000e+00  3.1663305887983610e+00 8.0226813546087544e-02 0.0000000000000000e+00  3.1552982532270284e+00 -1.3836126385602704e-01 0.0000000000000000e+00  3.1743091892919293e+00 2.3792712800096241e-01 0.0000000000000000e+00  3.1415681173045771e+00 -4.1108370073257317e-01 0.0000000000000000e+00  3.1979654378819240e+00 7.0551971336393549e-01 0.0000000000000000e+00  3.1004368703254150e+00 -1.2157422276993952e+00 0.0000000000000000e+00  3.2643625485566301e+00 2.1602593582582394e+00 0.0000000000000000e+00  2.9426215659809483e+00 -2.9102772856827146e+00 0.0000000000000000e+00  3.0362028470207862e+00 1.4089348060586993e+01 0.0000000000000000e+00  1.5282488691254097e+00 8.8057225143933984e+00 0.0000000000000000e+00  1.0426787216721145e+00 -1.2793620703358426e+00 0.0000000000000000e+00  9.6320655271850275e-01 3.8163786779877917e-01 0.0000000000000000e+00  1.0171983263208899e+00 -1.2792353876578599e-01 0.0000000000000000e+00  9.9293394431920434e-01 4.7195443506427445e-02 0.0000000000000000e+00  1.0027941606200803e+00 -1.7893879297661251e-02 0.0000000000000000e+00  9.9890986853790964e-01 6.8851741825431316e-03 0.0000000000000000e+00  1.0004233511574472e+00 -2.6591596136656616e-03 0.0000000000000000e+00  9.9983587336206559e-01 1.0290716571430293e-03 0.0000000000000000e+00  1.0000635915525398e+00 -3.9843021393888242e-04 0.0000000000000000e+00  9.9997536667399356e-01 1.5430344534905592e-04 0.0000000000000000e+00  1.0000095414250199e+00 -5.9761932481835243e-05 0.0000000000000000e+00  9.9999630435024989e-01 2.3146710321638333e-05 0.0000000000000000e+00  1.0000014314099468e+00 -8.9651403091348548e-06 0.0000000000000000e+00  9.9999944558418852e-01 3.4723780805501599e-06 0.0000000000000000e+00  1.0000002147368718e+00 -1.3449226523159090e-06 0.0000000000000000e+00  9.9999991682794709e-01 5.2091623650389766e-07 0.0000000000000000e+00  1.0000000322142590e+00 -2.0176160635323675e-07 0.0000000000000000e+00  9.9999998752275110e-01 7.8146439406934131e-08 0.0000000000000000e+00  1.0000000048326969e+00 -3.0267731169591415e-08 0.0000000000000000e+00  9.9999999812819662e-01 1.1723318375616205e-08 0.0000000000000000e+00  1.0000000007249883e+00 -4.5406835347040292e-09 0.0000000000000000e+00  9.9999999971919706e-01 1.7587004626816227e-09 0.0000000000000000e+00  1.0000000001087610e+00 -6.8118154815037452e-10 0.0000000000000000e+00  9.9999999995787492e-01 2.6383598216598807e-10 0.0000000000000000e+00  1.0000000000163161e+00 -1.0218873600558597e-10 0.0000000000000000e+00  9.9999999999368050e-01 3.9579818461957281e-11 0.0000000000000000e+00  1.0000000000024478e+00 -1.5330303447161962e-11 0.0000000000000000e+00  9.9999999999905209e-01 5.9373183592010634e-12 0.0000000000000000e+00  1.0000000000003675e+00 -2.2994448632740881e-12 0.0000000000000000e+00  9.9999999999985778e-01 8.9099221658905365e-13 0.0000000000000000e+00  1.0000000000000551e+00 -3.4502566629554299e-13 0.0000000000000000e+00  9.9999999999997868e-01 1.3346353927618295e-13 0.0000000000000000e+00  1.0000000000000084e+00 -5.2133887164226561e-14 0.0000000000000000e+00  9.9999999999999700e-01 2.0460831476397834e-14 0.0000000000000000e+00  1.0000000000000011e+00 -7.6159165666107648e-15 0.0000000000000000e+00  9.9999999999999956e-01 3.0039139726798733e-15 0.0000000000000000e+00  1.0000000000000002e+00 -1.3299914790706235e-15 0.0000000000000000e+00  1.0000000000000002e+00 3.1592819814285789e-17 0.0000000000000000e+00  1.0000000000000002e+00 1.8058805358145720e-16 0.0000000000000000e+00  1.0000000000000000e+00 2.9484934832941730e-16 0.0000000000000000e+00  1.0000000000000000e+00 -2.5289612015373150e-17 0.0000000000000000e+00  1.0000000000000000e+00 -2.2053405702706913e-16 0.0000000000000000e+00  1.0000000000000002e+00 -3.4501862478234946e-16 0.0000000000000000e+00  1.0000000000000002e+00 3.4268067168295907e-16 0.0000000000000000e+00  1.0000000000000000e+00 2.2980077229597722e-16 0.0000000000000000e+00  1.0000000000000000e+00 2.2101223755816930e-19 0.0000000000000000e+00  1.0000000000000000e+00 -2.3045695190056033e-16 0.0000000000000000e+00  1.0000000000000002e+00 -3.4117469431564568e-16 0.0000000000000000e+00  1.0000000000000002e+00 3.4120542783790399e-16 0.0000000000000000e+00  1.0000000000000000e+00 2.3033496481200422e-16 0.0000000000000000e+00  1.0000000000000000e+00 1.1046015407048301e-19 0.0000000000000000e+00  1.0000000000000000e+00 -2.3066302772046501e-16 0.0000000000000000e+00  1.0000000000000002e+00 -3.4045162758306221e-16 0.0000000000000000e+00  1.0000000000000002e+00 3.3926004548352628e-16 0.0000000000000000e+00  1.0000000000000000e+00 2.3542065455545289e-16 0.0000000000000000e+00  1.0000000000000000e+00 -1.3277700964076174e-17 0.0000000000000000e+00  1.0000000000000000e+00 -1.9432751046429624e-16 0.0000000000000000e+00  1.0000000000000002e+00 -4.4689725024999054e-16 0.0000000000000000e+00  1.0000000000000002e+00 7.0447779359504362e-16 0.0000000000000000e+00  9.9999999999999989e-01 -5.1615703684382504e-16 0.0000000000000000e+00  1.0000000000000004e+00 1.1603336685268218e-16 0.0000000000000000e+00  9.9999999999999989e-01 4.6880127677129508e-17 0.0000000000000000e+00  1.0000000000000004e+00 -3.0940388696422027e-16 0.0000000000000000e+00  1.0000000000000000e+00 5.5359793761170274e-16 0.0000000000000000e+00  1.0000000000000002e+00 -6.3508500472876304e-16 0.0000000000000000e+00  1.0000000000000002e+00 7.3982186011081200e-16 0.0000000000000000e+00  9.9999999999999989e-01 -4.5447348050159832e-16 0.0000000000000000e+00  1.0000000000000004e+00 -1.6965700786084926e-16 0.0000000000000000e+00  1.0000000000000000e+00 5.0707830725444511e-16 0.0000000000000000e+00  1.0000000000000002e+00 -6.1813003705476704e-16 0.0000000000000000e+00  1.0000000000000002e+00 7.3340340261067553e-16 0.0000000000000000e+00  9.9999999999999989e-01 -4.5200823811992146e-16 0.0000000000000000e+00  1.0000000000000004e+00 -1.7060894632391914e-16 0.0000000000000000e+00  1.0000000000000000e+00 5.0744660733580808e-16 0.0000000000000000e+00  1.0000000000000002e+00 -6.1827263065986569e-16 0.0000000000000000e+00  1.0000000000000002e+00 7.3345862418737746e-16 0.0000000000000000e+00  9.9999999999999989e-01 -4.5202962557814663e-16 0.0000000000000000e+00  1.0000000000000004e+00 -1.7060066240020821e-16 0.0000000000000000e+00  1.0000000000000000e+00 5.0744339811637755e-16 0.0000000000000000e+00  1.0000000000000002e+00 -6.1827138584283539e-16 0.0000000000000000e+00  1.0000000000000002e+00 7.3345813733771764e-16 0.0000000000000000e+00  9.9999999999999989e-01 -4.5202942485930387e-16 0.0000000000000000e+00  1.0000000000000004e+00 -1.7060077151717867e-16 0.0000000000000000e+00  1.0000000000000000e+00 5.0744352138337052e-16 0.0000000000000000e+00  1.0000000000000002e+00 -6.1827164272539362e-16 0.0000000000000000e+00  1.0000000000000002e+00 7.3345877679646723e-16 0.0000000000000000e+00  9.9999999999999989e-01 -4.5203106663366080e-16 0.0000000000000000e+00  1.0000000000000004e+00 -1.7059653627576199e-16 0.0000000000000000e+00  1.0000000000000000e+00 5.0743258798567501e-16 0.0000000000000000e+00  1.0000000000000002e+00 -6.1824341452361167e-16 0.0000000000000000e+00  1.0000000000000002e+00 7.3338589305736190e-16 0.0000000000000000e+00  9.9999999999999989e-01 -4.5184286932757609e-16 0.0000000000000000e+00  1.0000000000000004e+00 -1.7108259785241933e-16 0.0000000000000000e+00  1.0000000000000000e+00 5.0868871110860420e-16 0.0000000000000000e+00  1.0000000000000002e+00 -6.2149503863894579e-16 0.0000000000000000e+00  1.0000000000000002e+00 7.4184200176210156e-16 0.0000000000000000e+00  9.9999999999999989e-01 -4.7411124764190809e-16 0.0000000000000000e+00  1.0000000000000004e+00 -1.1046874584035937e-16 0.0000000000000000e+00  1.0000000000000000e+00 3.2986323360248425e-16 0.0000000000000000e+00  1.0000000000000002e+00 0.0000000000000000e+00 0.0000000000000000e+00  </DataArray> 
</PointData> 
</Piece>
</UnstructuredGrid>
</VTKFile>