<?xml version="1.0"?>
<VTKFile type="UnstructuredGrid"  version="0.1"  >
<UnstructuredGrid>
<Piece  NumberOfPoints="201" NumberOfCells="200">
<Points>
<DataArray  type="Float64"  NumberOfComponents="3"  format="ascii">-5 0 0  -4.95 0 0  -4.9 0 0  -4.85 0 0  -4.8 0 0  -4.75 0 0  -4.7 0 0  -4.65 0 0  -4.6 0 0  -4.55 0 0  -4.5 0 0  -4.45 0 0  -4.4 0 0  -4.35 0 0  -4.3 0 0  -4.25 0 0  -4.2 0 0  -4.15 0 0  -4.1 0 0  -4.05 0 0  -4 0 0  -3.95 0 0  -3.9 0 0  -3.85 0 0  -3.8 0 0  -3.75 0 0  -3.7 0 0  -3.65 0 0  -3.6 0 0  -3.55 0 0  -3.5 0 0  -3.45 0 0  -3.4 0 0  -3.35 0 0  -3.3 0 0  -3.25 0 0  -3.2 0 0  -3.15 0 0  -3.1 0 0  -3.05 0 0  -3 0 0  -2.95 0 0  -2.9 0 0  -2.85 0 0  -2.8 0 0  -2.75 0 0  -2.7 0 0  -2.65 0 0  -2.6 0 0  -2.55 0 0  -2.5 0 0  -2.45 0 0  -2.4 0 0  -2.35 0 0  -2.3 0 0  -2.25 0 0  -2.2 0 0  -2.15 0 0  -2.1 0 0  -2.05 0 0  -2 0 0  -1.95 0 0  -1.9 0 0  -1.85 0 0  -1.8 0 0  -1.75 0 0  -1.7 0 0  -1.65 0 0  -1.6 0 0  -1.55 0 0  -1.5 0 0  -1.45 0 0  -1.4 0 0  -1.35 0 0  -1.3 0 0  -1.25 0 0  -1.2 0 0  -1.15 0 0  -1.1 0 0  -1.05 0 0  -1 0 0  -0.9500000000000002 0 0  -0.9000000000000004 0 0  -0.8499999999999996 0 0  -0.7999999999999998 0 0  -0.75 0 0  -0.7000000000000002 0 0  -0.6500000000000004 0 0  -0.5999999999999996 0 0  -0.5499999999999998 0 0  -0.5 0 0  -0.4500000000000002 0 0  -0.4000000000000004 0 0  -0.3499999999999996 0 0  -0.2999999999999998 0 0  -0.25 0 0  -0.2000000000000002 0 0  -0.1500000000000004 0 0  -0.09999999999999964 0 0  -0.04999999999999982 0 0  0 0 0  0.04999999999999982 0 0  0.09999999999999964 0 0  0.1500000000000004 0 0  0.2000000000000002 0 0  0.25 0 0  0.2999999999999998 0 0  0.3499999999999996 0 0  0.4000000000000004 0 0  0.4500000000000002 0 0  0.5 0 0  0.5499999999999998 0 0  0.5999999999999996 0 0  0.6500000000000004 0 0  0.7000000000000002 0 0  0.75 0 0  0.7999999999999998 0 0  0.8499999999999996 0 0  0.9000000000000004 0 0  0.9500000000000002 0 0  1 0 0  1.05 0 0  1.1 0 0  1.15 0 0  1.2 0 0  1.25 0 0  1.3 0 0  1.35 0 0  1.4 0 0  1.45 0 0  1.5 0 0  1.55 0 0  1.6 0 0  1.65 0 0  1.7 0 0  1.75 0 0  1.8 0 0  1.85 0 0  1.9 0 0  1.95 0 0  2 0 0  2.05 0 0  2.1 0 0  2.15 0 0  2.2 0 0  2.25 0 0  2.3 0 0  2.35 0 0  2.4 0 0  2.45 0 0  2.5 0 0  2.55 0 0  2.6 0 0  2.65 0 0  2.7 0 0  2.75 0 0  2.8 0 0  2.85 0 0  2.9 0 0  2.95 0 0  3 0 0  3.050000000000001 0 0  3.1 0 0  3.15 0 0  3.199999999999999 0 0  3.25 0 0  3.300000000000001 0 0  3.35 0 0  3.4 0 0  3.449999999999999 0 0  3.5 0 0  3.550000000000001 0 0  3.6 0 0  3.65 0 0  3.699999999999999 0 0  3.75 0 0  3.800000000000001 0 0  3.85 0 0  3.9 0 0  3.949999999999999 0 0  4 0 0  4.050000000000001 0 0  4.1 0 0  4.15 0 0  4.199999999999999 0 0  4.25 0 0  4.300000000000001 0 0  4.35 0 0  4.4 0 0  4.449999999999999 0 0  4.5 0 0  4.550000000000001 0 0  4.6 0 0  4.65 0 0  4.699999999999999 0 0  4.75 0 0  4.800000000000001 0 0  4.85 0 0  4.9 0 0  4.949999999999999 0 0  5 0 0  </DataArray>
</Points>
<Cells>
<DataArray  type="UInt32"  Name="connectivity"  format="ascii">0 1  1 2  2 3  3 4  4 5  5 6  6 7  7 8  8 9  9 10  10 11  11 12  12 13  13 14  14 15  15 16  16 17  17 18  18 19  19 20  20 21  21 22  22 23  23 24  24 25  25 26  26 27  27 28  28 29  29 30  30 31  31 32  32 33  33 34  34 35  35 36  36 37  37 38  38 39  39 40  40 41  41 42  42 43  43 44  44 45  45 46  46 47  47 48  48 49  49 50  50 51  51 52  52 53  53 54  54 55  55 56  56 57  57 58  58 59  59 60  60 61  61 62  62 63  63 64  64 65  65 66  66 67  67 68  68 69  69 70  70 71  71 72  72 73  73 74  74 75  75 76  76 77  77 78  78 79  79 80  80 81  81 82  82 83  83 84  84 85  85 86  86 87  87 88  88 89  89 90  90 91  91 92  92 93  93 94  94 95  95 96  96 97  97 98  98 99  99 100  100 101  101 102  102 103  103 104  104 105  105 106  106 107  107 108  108 109  109 110  110 111  111 112  112 113  113 114  114 115  115 116  116 117  117 118  118 119  119 120  120 121  121 122  122 123  123 124  124 125  125 126  126 127  127 128  128 129  129 130  130 131  131 132  132 133  133 134  134 135  135 136  136 137  137 138  138 139  139 140  140 141  141 142  142 143  143 144  144 145  145 146  146 147  147 148  148 149  149 150  150 151  151 152  152 153  153 154  154 155  155 156  156 157  157 158  158 159  159 160  160 161  161 162  162 163  163 164  164 165  165 166  166 167  167 168  168 169  169 170  170 171  171 172  172 173  173 174  174 175  175 176  176 177  177 178  178 179  179 180  180 181  181 182  182 183  183 184  184 185  185 186  186 187  187 188  188 189  189 190  190 191  191 192  192 193  193 194  194 195  195 196  196 197  197 198  198 199  199 200  </DataArray>
<DataArray  type="UInt32"  Name="offsets"  format="ascii">2 4 6 8 10 12 14 16 18 20 22 24 26 28 30 32 34 36 38 40 42 44 46 48 50 52 54 56 58 60 62 64 66 68 70 72 74 76 78 80 82 84 86 88 90 92 94 96 98 100 102 104 106 108 110 112 114 116 118 120 122 124 126 128 130 132 134 136 138 140 142 144 146 148 150 152 154 156 158 160 162 164 166 168 170 172 174 176 178 180 182 184 186 188 190 192 194 196 198 200 202 204 206 208 210 212 214 216 218 220 222 224 226 228 230 232 234 236 238 240 242 244 246 248 250 252 254 256 258 260 262 264 266 268 270 272 274 276 278 280 282 284 286 288 290 292 294 296 298 300 302 304 306 308 310 312 314 316 318 320 322 324 326 328 330 332 334 336 338 340 342 344 346 348 350 352 354 356 358 360 362 364 366 368 370 372 374 376 378 380 382 384 386 388 390 392 394 396 398 400 </DataArray>
<DataArray  type="UInt8"  Name="types"  format="ascii">3 3 3 3 3 3 3 3 3 3 3 3 3 3 3 3 3 3 3 3 3 3 3 3 3 3 3 3 3 3 3 3 3 3 3 3 3 3 3 3 3 3 3 3 3 3 3 3 3 3 3 3 3 3 3 3 3 3 3 3 3 3 3 3 3 3 3 3 3 3 3 3 3 3 3 3 3 3 3 3 3 3 3 3 3 3 3 3 3 3 3 3 3 3 3 3 3 3 3 3 3 3 3 3 3 3 3 3 3 3 3 3 3 3 3 3 3 3 3 3 3 3 3 3 3 3 3 3 3 3 3 3 3 3 3 3 3 3 3 3 3 3 3 3 3 3 3 3 3 3 3 3 3 3 3 3 3 3 3 3 3 3 3 3 3 3 3 3 3 3 3 3 3 3 3 3 3 3 3 3 3 3 3 3 3 3 3 3 3 3 3 3 3 3 3 3 3 3 3 3 </DataArray>
</Cells>
<PointData  Vectors="(s, w)"> 
<DataArray  type="Float64"  Name="(s, w)"  NumberOfComponents="3" format="ascii">2.2022729772430800e+00 0.0000000000000000e+00 0.0000000000000000e+00  2.2109496171057028e+00 1.4950666528057671e-01 0.0000000000000000e+00  2.2022287534649378e+00 3.0428586140440111e-01 0.0000000000000000e+00  2.2109015139514225e+00 4.4850094140437019e-01 0.0000000000000000e+00  2.2020966484202793e+00 6.0850795405391378e-01 0.0000000000000000e+00  2.2108039331652578e+00 7.4744074347044709e-01 0.0000000000000000e+00  2.2018783998841553e+00 9.1259677866503697e-01 0.0000000000000000e+00  2.2106540486433790e+00 1.0462985571986987e+00 0.0000000000000000e+00  2.2015770244686212e+00 1.2164716948369938e+00 0.0000000000000000e+00  2.2104474469410689e+00 1.3450594721060072e+00 0.0000000000000000e+00  2.2011969654159529e+00 1.5200362107936967e+00 0.0000000000000000e+00  2.2101779699322250e+00 1.6437249242612988e+00 0.0000000000000000e+00  2.2007442347550725e+00 1.8231744584949132e+00 0.0000000000000000e+00  2.2098375901263712e+00 1.9423149342481039e+00 0.0000000000000000e+00  2.2002264875168378e+00 2.1257494560247459e+00 0.0000000000000000e+00  2.2094163874500050e+00 2.2408681913298691e+00 0.0000000000000000e+00  2.1996529537639100e+00 2.4276038423021986e+00 0.0000000000000000e+00  2.2089027049638443e+00 2.5394392970243849e+00 0.0000000000000000e+00  2.1990341501766406e+00 2.7285637627541734e+00 0.0000000000000000e+00  2.2082835596618895e+00 2.8380925621417039e+00 0.0000000000000000e+00  2.1983813013090656e+00 3.0284464308158250e+00 0.0000000000000000e+00  2.2075453685699840e+00 3.1368920024432327e+00 0.0000000000000000e+00  2.1977054257777646e+00 3.3270715415611658e+00 0.0000000000000000e+00  2.2066750158808488e+00 3.4358876316037277e+00 0.0000000000000000e+00  2.1970160874761704e+00 3.6242761502481513e+00 0.0000000000000000e+00  2.2056612321643194e+00 3.7350988015956457e+00 0.0000000000000000e+00  2.1963198760576557e+00 3.9199318762625457e+00 0.0000000000000000e+00  2.2044961842714250e+00 4.0344961323924080e+00 0.0000000000000000e+00  2.1956187589799088e+00 4.2139624411625212e+00 0.0000000000000000e+00  2.2031770927456913e+00 4.3339843841847845e+00 0.0000000000000000e+00  2.1949085276274922e+00 4.5063587580775044e+00 0.0000000000000000e+00  2.2017076173587586e+00 4.6333892745542249e+00 0.0000000000000000e+00  2.1941776244490416e+00 4.7971882785470283e+00 0.0000000000000000e+00  2.2000987016150186e+00 4.9324515090218854e+00 0.0000000000000000e+00  2.1934066644563432e+00 5.0865953167737610e+00 0.0000000000000000e+00  2.1983685671758657e+00 5.2308309580809800e+00 0.0000000000000000e+00  2.1925689308409888e+00 5.3747898177186624e+00 0.0000000000000000e+00  2.1965416194516600e+00 5.5281228251595609e+00 0.0000000000000000e+00  2.1916320157253946e+00 5.6620236034945925e+00 0.0000000000000000e+00  2.1946461754698201e+00 5.8238857951931307e+00 0.0000000000000000e+00  2.1905605926276195e+00 5.9485554121676865e+00 0.0000000000000000e+00  2.1927111448870393e+00 6.1176797252408406e+00 0.0000000000000000e+00  2.1893200678640508e+00 6.2346086764048625e+00 0.0000000000000000e+00  2.1907620504921081e+00 6.4091078672798494e+00 0.0000000000000000e+00  2.1878806087287970e+00 6.5203283867755522e+00 0.0000000000000000e+00  2.1888170077280997e+00 6.6978565350185830e+00 0.0000000000000000e+00  2.1862208515506323e+00 6.8057448300022578e+00 0.0000000000000000e+00  2.1868834216081727e+00 6.9837242612315436e+00 0.0000000000000000e+00  2.1843305236086659e+00 7.0907518361507114e+00 0.0000000000000000e+00  2.1849561373378590e+00 7.2666334309063805e+00 0.0000000000000000e+00  2.1822113246426618e+00 7.3751050665074880e+00 0.0000000000000000e+00  2.1830175624919339e+00 7.5466203192935906e+00 0.0000000000000000e+00  2.1798757202569381e+00 7.6584419989558068e+00 0.0000000000000000e+00  2.1810398827760680e+00 7.8238040063397793e+00 0.0000000000000000e+00  2.1773437537139646e+00 7.9403204005534809e+00 0.0000000000000000e+00  2.1789890040212372e+00 8.0983397174931913e+00 0.0000000000000000e+00  2.1746384739034625e+00 8.2202674945452276e+00 0.0000000000000000e+00  2.1768294057082613e+00 8.3703662552162079e+00 0.0000000000000000e+00  2.1717809559113785e+00 8.4978291666076853e+00 0.0000000000000000e+00  2.1745288344408347e+00 8.6399588835957317e+00 0.0000000000000000e+00  2.1687860176003091e+00 8.7726085048747908e+00 0.0000000000000000e+00  2.1720618044688584e+00 8.9070975134224764e+00 0.0000000000000000e+00  2.1656595432341050e+00 9.0442859795542336e+00 0.0000000000000000e+00  2.1694112162204680e+00 9.1716556230542778e+00 0.0000000000000000e+00  2.1623978603146310e+00 9.3126187886790834e+00 0.0000000000000000e+00  2.1665679461106109e+00 9.4334095012166586e+00 0.0000000000000000e+00  2.1589890380318875e+00 9.5774225587244715e+00 0.0000000000000000e+00  2.1635288082133726e+00 9.6920622090042876e+00 0.0000000000000000e+00  2.1554155012014062e+00 9.8385426518597363e+00 0.0000000000000000e+00  2.1602936368945431e+00 9.9472739899215625e+00 0.0000000000000000e+00  2.1516571621984215e+00 1.0095823363045872e+01 0.0000000000000000e+00  2.1568622623554652e+00 1.0198691532464510e+01 0.0000000000000000e+00  2.1476944114430832e+00 1.0349081255937818e+01 0.0000000000000000e+00  2.1532318576414053e+00 1.0445971935240314e+01 0.0000000000000000e+00  2.1435106792920560e+00 1.0598085020901964e+01 0.0000000000000000e+00  2.1493947612065827e+00 1.0688800970684646e+01 0.0000000000000000e+00  2.1390948189900167e+00 1.0842539441689803e+01 0.0000000000000000e+00  2.1453366594884300e+00 1.0926907212098177e+01 0.0000000000000000e+00  2.1344436879799851e+00 1.1082070294587483e+01 0.0000000000000000e+00  2.1410339456084460e+00 1.1160082198661293e+01 0.0000000000000000e+00  2.1295645180793583e+00 1.1316213686562250e+01 0.0000000000000000e+00  2.1364491077168144e+00 1.1388215069083794e+01 0.0000000000000000e+00  2.1244821096975959e+00 1.1544369630993128e+01 0.0000000000000000e+00  2.1315313743967192e+00 1.1611283008246108e+01 0.0000000000000000e+00  2.1192637672679351e+00 1.1765624779027135e+01 0.0000000000000000e+00  2.1262039729198605e+00 1.1829448296253249e+01 0.0000000000000000e+00  2.1139527689474527e+00 1.1979293267750856e+01 0.0000000000000000e+00  2.1201880761027692e+00 1.2044378676793428e+01 0.0000000000000000e+00  2.1087727675223817e+00 1.2183361706762096e+01 0.0000000000000000e+00  2.1140715788920748e+00 1.2251174021650380e+01 0.0000000000000000e+00  2.1044726900134014e+00 1.2372149510211626e+01 0.0000000000000000e+00  2.1050297345166489e+00 1.2470196229655107e+01 0.0000000000000000e+00  2.0976311225776567e+00 1.2570186303248555e+01 0.0000000000000000e+00  2.1034094509546422e+00 1.2626065929326439e+01 0.0000000000000000e+00  2.0991728802409648e+00 1.2699564335263362e+01 0.0000000000000000e+00  2.0793913186115485e+00 1.2930293924477793e+01 0.0000000000000000e+00  2.0821115797942746e+00 1.2948297119100078e+01 0.0000000000000000e+00  2.1126390765025276e+00 1.2826566365573701e+01 0.0000000000000000e+00  2.0338836833462182e+00 1.3394270455807892e+01 0.0000000000000000e+00  2.0924489091880072e+00 1.3079572505178618e+01 0.0000000000000000e+00  2.0630225683899637e+00 1.3317910338379479e+01 0.0000000000000000e+00  2.0677061428727055e+00 1.3351897911748846e+01 0.0000000000000000e+00  2.0623763875704633e+00 1.3426362759035872e+01 0.0000000000000000e+00  2.0586710425217865e+00 1.3509637392641407e+01 0.0000000000000000e+00  2.0537290469295955e+00 1.3576660439380793e+01 0.0000000000000000e+00  2.0500196147743428e+00 1.3654763504496065e+01 0.0000000000000000e+00  2.0447884369084321e+00 1.3718735703286624e+01 0.0000000000000000e+00  2.0411973261919152e+00 1.3791024437636626e+01 0.0000000000000000e+00  2.0355772284188296e+00 1.3852605017295984e+01 0.0000000000000000e+00  2.0319503715082470e+00 1.3920149027678134e+01 0.0000000000000000e+00  2.0263030718508603e+00 1.3977273569603554e+01 0.0000000000000000e+00  2.0221734399018216e+00 1.4042950724413645e+01 0.0000000000000000e+00  2.0168891293369557e+00 1.4093531823421785e+01 0.0000000000000000e+00  2.0121761898228550e+00 1.4157918321482471e+01 0.0000000000000000e+00  2.0069812476122952e+00 1.4203733873678562e+01 0.0000000000000000e+00  2.0021889863277855e+00 1.4264173051895078e+01 0.0000000000000000e+00  1.9966778998387653e+00 1.4307671380124603e+01 0.0000000000000000e+00  1.9919232691154549e+00 1.4363754158949675e+01 0.0000000000000000e+00  1.9862931077929198e+00 1.4404086450022715e+01 0.0000000000000000e+00  1.9813308432483578e+00 1.4457352301018750e+01 0.0000000000000000e+00  1.9756973919353638e+00 1.4494163070997782e+01 0.0000000000000000e+00  1.9706232159090697e+00 1.4544342048326023e+01 0.0000000000000000e+00  1.9648711622189172e+00 1.4578501017842536e+01 0.0000000000000000e+00  1.9597356040141680e+00 1.4625550351099230e+01 0.0000000000000000e+00  1.9539374530209566e+00 1.4657007132279523e+01 0.0000000000000000e+00  1.9487032357388616e+00 1.4701298785238825e+01 0.0000000000000000e+00  1.9428722787122270e+00 1.4730320113753514e+01 0.0000000000000000e+00  1.9375942661805137e+00 1.4771765222266687e+01 0.0000000000000000e+00  1.9317526733957695e+00 1.4798582704192647e+01 0.0000000000000000e+00  1.9264434399633947e+00 1.4837308898271617e+01 0.0000000000000000e+00  1.9206480653354743e+00 1.4861949449381543e+01 0.0000000000000000e+00  1.9154129614967172e+00 1.4897782791378619e+01 0.0000000000000000e+00  1.9097433773648742e+00 1.4920035506156571e+01 0.0000000000000000e+00  1.9047715083058834e+00 1.4952743803380791e+01 0.0000000000000000e+00  1.8999835970280705e+00 1.4969344830035988e+01 0.0000000000000000e+00  1.8962441249889552e+00 1.4996219780086752e+01 0.0000000000000000e+00  1.8942285085622481e+00 1.4999112140203218e+01 0.0000000000000000e+00  1.9008463827322510e+00 1.4986270873480825e+01 0.0000000000000000e+00  1.9136229708287378e+00 1.4924637307078433e+01 0.0000000000000000e+00  1.9256497048478929e+00 1.4891169129146208e+01 0.0000000000000000e+00  1.9305154566705678e+00 1.4852750238389662e+01 0.0000000000000000e+00  1.9338008848995134e+00 1.4865337409381199e+01 0.0000000000000000e+00  1.9334224968999580e+00 1.4836952262748170e+01 0.0000000000000000e+00  1.9358714034182041e+00 1.4867911293673144e+01 0.0000000000000000e+00  1.9341458177816093e+00 1.4827196393275960e+01 0.0000000000000000e+00  1.9373073487936028e+00 1.4874546090385667e+01 0.0000000000000000e+00  1.9343628817904595e+00 1.4818175427314246e+01 0.0000000000000000e+00  1.9384170142328503e+00 1.4880486193572962e+01 0.0000000000000000e+00  1.9344815665917667e+00 1.4814085990464886e+01 0.0000000000000000e+00  1.9389760133452596e+00 1.4877975195998378e+01 0.0000000000000000e+00  1.9351015286888185e+00 1.4825172723017829e+01 0.0000000000000000e+00  1.9383445520707021e+00 1.4852400842684705e+01 0.0000000000000000e+00  1.9372223679315779e+00 1.4870255583980764e+01 0.0000000000000000e+00  1.9353650157379738e+00 1.4779425053846895e+01 0.0000000000000000e+00  1.9423439907686140e+00 1.4978586639023179e+01 0.0000000000000000e+00  1.9284417220317582e+00 1.4623610139639929e+01 0.0000000000000000e+00  1.9521286043664434e+00 1.5188833521413853e+01 0.0000000000000000e+00  1.9165439365317207e+00 1.4340097956579234e+01 0.0000000000000000e+00  1.9661083243291417e+00 1.5545370867782264e+01 0.0000000000000000e+00  1.9042327327554618e+00 1.3874510386844991e+01 0.0000000000000000e+00  1.9712956452056103e+00 1.6109602180754653e+01 0.0000000000000000e+00  1.9219991070678042e+00 1.3121623036630613e+01 0.0000000000000000e+00  1.9157230117018262e+00 1.6992228360403253e+01 0.0000000000000000e+00  3.0102819738917246e+00 1.4337665695116772e+00 0.0000000000000000e+00  3.0568776543434657e+00 -2.6390625479246405e-01 0.0000000000000000e+00  2.9920915095489051e+00 1.1291360259038237e+00 0.0000000000000000e+00  3.1159219474311728e+00 -1.2036906305263444e+00 0.0000000000000000e+00  2.9950249334145185e+00 1.1435058599911736e+00 0.0000000000000000e+00  3.0980364873791379e+00 -8.4215592663427652e-01 0.0000000000000000e+00  3.0237713308124414e+00 6.0010130107077964e-01 0.0000000000000000e+00  3.0710480267540512e+00 -3.2684134458936254e-01 0.0000000000000000e+00  3.0466745567177114e+00 1.6000038487852936e-01 0.0000000000000000e+00  3.0548273954261216e+00 -1.7835090959012447e-02 0.0000000000000000e+00  3.0569720219890377e+00 -3.7567202251697913e-02 0.0000000000000000e+00  3.0496242797740591e+00 8.1746512959435136e-02 0.0000000000000000e+00  3.0587409980772717e+00 -7.1576779762749745e-02 0.0000000000000000e+00  3.0500967786955679e+00 7.2636177252722284e-02 0.0000000000000000e+00  3.0572391214912065e+00 -4.3390767218332446e-02 0.0000000000000000e+00  3.0519592823075068e+00 3.6624692993281110e-02 0.0000000000000000e+00  3.0555432670465246e+00 -1.1638927973916130e-02 0.0000000000000000e+00  3.0533200997553194e+00 1.0182545876267310e-02 0.0000000000000000e+00  3.0546198078898508e+00 5.3655951697845466e-03 0.0000000000000000e+00  3.0538821108820136e+00 -9.7056321804271282e-04 0.0000000000000000e+00  3.0543651861806862e+00 9.5762609065451545e-03 0.0000000000000000e+00  3.0539461578340537e+00 -2.6096738694441931e-03 0.0000000000000000e+00  3.0544242657621821e+00 7.7903282710210815e-03 0.0000000000000000e+00  3.0538382669135231e+00 -9.5266530319675091e-04 0.0000000000000000e+00  3.0545431082120031e+00 4.8797640805710732e-03 0.0000000000000000e+00  3.0537333524288486e+00 6.6115404591552578e-04 0.0000000000000000e+00  3.0546197797645855e+00 2.7964347412368384e-03 0.0000000000000000e+00  3.0536789447442820e+00 1.3264435493142977e-03 0.0000000000000000e+00  3.0546454274747816e+00 1.7140156143296036e-03 0.0000000000000000e+00  3.0536638143524266e+00 1.2661049440047018e-03 0.0000000000000000e+00  3.0546422044200305e+00 1.2113638658224767e-03 0.0000000000000000e+00  3.0536658409615405e+00 9.1087676990456732e-04 0.0000000000000000e+00  3.0546305626919312e+00 8.9695974775380160e-04 0.0000000000000000e+00  3.0536708673520940e+00 5.3782698076544838e-04 0.0000000000000000e+00  3.0546208553588317e+00 5.7447759166940856e-04 0.0000000000000000e+00  3.0536739595554470e+00 2.3976532395298991e-04 0.0000000000000000e+00  3.0546159745207087e+00 1.9946569098209410e-04 0.0000000000000000e+00  3.0536748581179913e+00 0.0000000000000000e+00 0.0000000000000000e+00  </DataArray> 
</PointData> 
</Piece>
</UnstructuredGrid>
</VTKFile>