<?xml version="1.0"?>
<VTKFile type="UnstructuredGrid"  version="0.1"  >
<UnstructuredGrid>
<Piece  NumberOfPoints="201" NumberOfCells="200">
<Points>
<DataArray  type="Float64"  NumberOfComponents="3"  format="ascii">-5 0 0  -4.95 0 0  -4.9 0 0  -4.85 0 0  -4.8 0 0  -4.75 0 0  -4.7 0 0  -4.65 0 0  -4.6 0 0  -4.55 0 0  -4.5 0 0  -4.45 0 0  -4.4 0 0  -4.35 0 0  -4.3 0 0  -4.25 0 0  -4.2 0 0  -4.15 0 0  -4.1 0 0  -4.05 0 0  -4 0 0  -3.95 0 0  -3.9 0 0  -3.85 0 0  -3.8 0 0  -3.75 0 0  -3.7 0 0  -3.65 0 0  -3.6 0 0  -3.55 0 0  -3.5 0 0  -3.45 0 0  -3.4 0 0  -3.35 0 0  -3.3 0 0  -3.25 0 0  -3.2 0 0  -3.15 0 0  -3.1 0 0  -3.05 0 0  -3 0 0  -2.95 0 0  -2.9 0 0  -2.85 0 0  -2.8 0 0  -2.75 0 0  -2.7 0 0  -2.65 0 0  -2.6 0 0  -2.55 0 0  -2.5 0 0  -2.45 0 0  -2.4 0 0  -2.35 0 0  -2.3 0 0  -2.25 0 0  -2.2 0 0  -2.15 0 0  -2.1 0 0  -2.05 0 0  -2 0 0  -1.95 0 0  -1.9 0 0  -1.85 0 0  -1.8 0 0  -1.75 0 0  -1.7 0 0  -1.65 0 0  -1.6 0 0  -1.55 0 0  -1.5 0 0  -1.45 0 0  -1.4 0 0  -1.35 0 0  -1.3 0 0  -1.25 0 0  -1.2 0 0  -1.15 0 0  -1.1 0 0  -1.05 0 0  -1 0 0  -0.9500000000000002 0 0  -0.9000000000000004 0 0  -0.8499999999999996 0 0  -0.7999999999999998 0 0  -0.75 0 0  -0.7000000000000002 0 0  -0.6500000000000004 0 0  -0.5999999999999996 0 0  -0.5499999999999998 0 0  -0.5 0 0  -0.4500000000000002 0 0  -0.4000000000000004 0 0  -0.3499999999999996 0 0  -0.2999999999999998 0 0  -0.25 0 0  -0.2000000000000002 0 0  -0.1500000000000004 0 0  -0.09999999999999964 0 0  -0.04999999999999982 0 0  0 0 0  0.04999999999999982 0 0  0.09999999999999964 0 0  0.1500000000000004 0 0  0.2000000000000002 0 0  0.25 0 0  0.2999999999999998 0 0  0.3499999999999996 0 0  0.4000000000000004 0 0  0.4500000000000002 0 0  0.5 0 0  0.5499999999999998 0 0  0.5999999999999996 0 0  0.6500000000000004 0 0  0.7000000000000002 0 0  0.75 0 0  0.7999999999999998 0 0  0.8499999999999996 0 0  0.9000000000000004 0 0  0.9500000000000002 0 0  1 0 0  1.05 0 0  1.1 0 0  1.15 0 0  1.2 0 0  1.25 0 0  1.3 0 0  1.35 0 0  1.4 0 0  1.45 0 0  1.5 0 0  1.55 0 0  1.6 0 0  1.65 0 0  1.7 0 0  1.75 0 0  1.8 0 0  1.85 0 0  1.9 0 0  1.95 0 0  2 0 0  2.05 0 0  2.1 0 0  2.15 0 0  2.2 0 0  2.25 0 0  2.3 0 0  2.35 0 0  2.4 0 0  2.45 0 0  2.5 0 0  2.55 0 0  2.6 0 0  2.65 0 0  2.7 0 0  2.75 0 0  2.8 0 0  2.85 0 0  2.9 0 0  2.95 0 0  3 0 0  3.050000000000001 0 0  3.1 0 0  3.15 0 0  3.199999999999999 0 0  3.25 0 0  3.300000000000001 0 0  3.35 0 0  3.4 0 0  3.449999999999999 0 0  3.5 0 0  3.550000000000001 0 0  3.6 0 0  3.65 0 0  3.699999999999999 0 0  3.75 0 0  3.800000000000001 0 0  3.85 0 0  3.9 0 0  3.949999999999999 0 0  4 0 0  4.050000000000001 0 0  4.1 0 0  4.15 0 0  4.199999999999999 0 0  4.25 0 0  4.300000000000001 0 0  4.35 0 0  4.4 0 0  4.449999999999999 0 0  4.5 0 0  4.550000000000001 0 0  4.6 0 0  4.65 0 0  4.699999999999999 0 0  4.75 0 0  4.800000000000001 0 0  4.85 0 0  4.9 0 0  4.949999999999999 0 0  5 0 0  </DataArray>
</Points>
<Cells>
<DataArray  type="UInt32"  Name="connectivity"  format="ascii">0 1  1 2  2 3  3 4  4 5  5 6  6 7  7 8  8 9  9 10  10 11  11 12  12 13  13 14  14 15  15 16  16 17  17 18  18 19  19 20  20 21  21 22  22 23  23 24  24 25  25 26  26 27  27 28  28 29  29 30  30 31  31 32  32 33  33 34  34 35  35 36  36 37  37 38  38 39  39 40  40 41  41 42  42 43  43 44  44 45  45 46  46 47  47 48  48 49  49 50  50 51  51 52  52 53  53 54  54 55  55 56  56 57  57 58  58 59  59 60  60 61  61 62  62 63  63 64  64 65  65 66  66 67  67 68  68 69  69 70  70 71  71 72  72 73  73 74  74 75  75 76  76 77  77 78  78 79  79 80  80 81  81 82  82 83  83 84  84 85  85 86  86 87  87 88  88 89  89 90  90 91  91 92  92 93  93 94  94 95  95 96  96 97  97 98  98 99  99 100  100 101  101 102  102 103  103 104  104 105  105 106  106 107  107 108  108 109  109 110  110 111  111 112  112 113  113 114  114 115  115 116  116 117  117 118  118 119  119 120  120 121  121 122  122 123  123 124  124 125  125 126  126 127  127 128  128 129  129 130  130 131  131 132  132 133  133 134  134 135  135 136  136 137  137 138  138 139  139 140  140 141  141 142  142 143  143 144  144 145  145 146  146 147  147 148  148 149  149 150  150 151  151 152  152 153  153 154  154 155  155 156  156 157  157 158  158 159  159 160  160 161  161 162  162 163  163 164  164 165  165 166  166 167  167 168  168 169  169 170  170 171  171 172  172 173  173 174  174 175  175 176  176 177  177 178  178 179  179 180  180 181  181 182  182 183  183 184  184 185  185 186  186 187  187 188  188 189  189 190  190 191  191 192  192 193  193 194  194 195  195 196  196 197  197 198  198 199  199 200  </DataArray>
<DataArray  type="UInt32"  Name="offsets"  format="ascii">2 4 6 8 10 12 14 16 18 20 22 24 26 28 30 32 34 36 38 40 42 44 46 48 50 52 54 56 58 60 62 64 66 68 70 72 74 76 78 80 82 84 86 88 90 92 94 96 98 100 102 104 106 108 110 112 114 116 118 120 122 124 126 128 130 132 134 136 138 140 142 144 146 148 150 152 154 156 158 160 162 164 166 168 170 172 174 176 178 180 182 184 186 188 190 192 194 196 198 200 202 204 206 208 210 212 214 216 218 220 222 224 226 228 230 232 234 236 238 240 242 244 246 248 250 252 254 256 258 260 262 264 266 268 270 272 274 276 278 280 282 284 286 288 290 292 294 296 298 300 302 304 306 308 310 312 314 316 318 320 322 324 326 328 330 332 334 336 338 340 342 344 346 348 350 352 354 356 358 360 362 364 366 368 370 372 374 376 378 380 382 384 386 388 390 392 394 396 398 400 </DataArray>
<DataArray  type="UInt8"  Name="types"  format="ascii">3 3 3 3 3 3 3 3 3 3 3 3 3 3 3 3 3 3 3 3 3 3 3 3 3 3 3 3 3 3 3 3 3 3 3 3 3 3 3 3 3 3 3 3 3 3 3 3 3 3 3 3 3 3 3 3 3 3 3 3 3 3 3 3 3 3 3 3 3 3 3 3 3 3 3 3 3 3 3 3 3 3 3 3 3 3 3 3 3 3 3 3 3 3 3 3 3 3 3 3 3 3 3 3 3 3 3 3 3 3 3 3 3 3 3 3 3 3 3 3 3 3 3 3 3 3 3 3 3 3 3 3 3 3 3 3 3 3 3 3 3 3 3 3 3 3 3 3 3 3 3 3 3 3 3 3 3 3 3 3 3 3 3 3 3 3 3 3 3 3 3 3 3 3 3 3 3 3 3 3 3 3 3 3 3 3 3 3 3 3 3 3 3 3 3 3 3 3 3 3 </DataArray>
</Cells>
<PointData  Vectors="(s, w)"> 
<DataArray  type="Float64"  Name="(s, w)"  NumberOfComponents="3" format="ascii">3.1714921843335886e+00 0.0000000000000000e+00 0.0000000000000000e+00  3.1531703905059087e+00 3.0197063557578857e-01 0.0000000000000000e+00  3.1693670036551045e+00 -5.6125113213933719e-01 0.0000000000000000e+00  3.1573085709811468e+00 7.6741036413648556e-01 0.0000000000000000e+00  3.1645701774438697e+00 -8.6751647311020352e-01 0.0000000000000000e+00  3.1626703408216703e+00 8.7970636027589022e-01 0.0000000000000000e+00  3.1605296206855895e+00 -7.7539853920907820e-01 0.0000000000000000e+00  3.1657140550301301e+00 5.8436822589541071e-01 0.0000000000000000e+00  3.1596005307709465e+00 -3.2072849598426961e-01 0.0000000000000000e+00  3.1652564597494615e+00 1.5302507722665823e-02 0.0000000000000000e+00  3.1608501851433726e+00 2.8984760642453478e-01 0.0000000000000000e+00  3.1638116031054393e+00 -5.6218440444601370e-01 0.0000000000000000e+00  3.1605397574280087e+00 7.6939752279896689e-01 0.0000000000000000e+00  3.1657595158320442e+00 -8.7632252149163958e-01 0.0000000000000000e+00  3.1553707010230996e+00 8.9122915422531057e-01 0.0000000000000000e+00  3.1731752029680069e+00 -7.8833416027610814e-01 0.0000000000000000e+00  3.1462268915741722e+00 6.1177812611580606e-01 0.0000000000000000e+00  3.1825473833124631e+00 -3.6923260230159333e-01 0.0000000000000000e+00  3.1392024169596358e+00 1.0080524284179619e-01 0.0000000000000000e+00  3.1857614212465095e+00 1.4126185194362534e-01 0.0000000000000000e+00  3.1422484990390935e+00 -3.5644716103985719e-01 0.0000000000000000e+00  3.1757746819811334e+00 4.7876793967009151e-01 0.0000000000000000e+00  3.1589557277558300e+00 -5.4042409573020356e-01 0.0000000000000000e+00  3.1533276148199478e+00 5.1791656029226352e-01 0.0000000000000000e+00  3.1837828874996004e+00 -4.4208229076769462e-01 0.0000000000000000e+00  3.1290071541837192e+00 3.4950029568427543e-01 0.0000000000000000e+00  3.2034271361537807e+00 -2.5303510278447455e-01 0.0000000000000000e+00  3.1173790980098115e+00 2.0054517449680415e-01 0.0000000000000000e+00  3.2053104764752036e+00 -1.9327228030831228e-01 0.0000000000000000e+00  3.1263129349372059e+00 2.3254528092980567e-01 0.0000000000000000e+00  3.1876464334459440e+00 -3.1051829665684999e-01 0.0000000000000000e+00  3.1500017116688142e+00 3.8026075128633963e-01 0.0000000000000000e+00  3.1621777454362903e+00 -4.2478915445818921e-01 0.0000000000000000e+00  3.1726877264152757e+00 3.9771422000163215e-01 0.0000000000000000e+00  3.1452979554667087e+00 -2.8903659280438299e-01 0.0000000000000000e+00  3.1816139010085358e+00 9.9758343278213757e-02 0.0000000000000000e+00  3.1437374272439387e+00 1.5139996419345764e-01 0.0000000000000000e+00  3.1783861734858734e+00 -4.1868515108592874e-01 0.0000000000000000e+00  3.1483040501588486e+00 6.5677240545057958e-01 0.0000000000000000e+00  3.1769336699302544e+00 -8.2479508370133781e-01 0.0000000000000000e+00  3.1437050399035282e+00 8.9775074569264235e-01 0.0000000000000000e+00  3.1879560843364216e+00 -8.6093522511414367e-01 0.0000000000000000e+00  3.1258888073074411e+00 7.9737291846642899e-01 0.0000000000000000e+00  3.2049174776904854e+00 -6.1695597743863739e-01 0.0000000000000000e+00  3.1073016472381849e+00 6.5132224659873761e-01 0.0000000000000000e+00  3.2082197738875586e+00 -4.1087850927037900e-01 0.0000000000000000e+00  3.1010095870370158e+00 8.4172063782565643e-01 0.0000000000000000e+00  3.1861790511954298e+00 -3.5731061669379777e-01 0.0000000000000000e+00  3.1006386035165376e+00 1.3979978843609022e+00 0.0000000000000000e+00  3.1499727536385249e+00 -1.4897264726324733e-01 0.0000000000000000e+00  3.0840090713198318e+00 1.9480561384272785e+00 0.0000000000000000e+00  3.1200415807377988e+00 5.7277677003372141e-01 0.0000000000000000e+00  3.0427068168514446e+00 2.2526276468565118e+00 0.0000000000000000e+00  3.0950515796284592e+00 1.6294849365930153e+00 0.0000000000000000e+00  2.9992735621018314e+00 2.6376890813640990e+00 0.0000000000000000e+00  3.0522684711683472e+00 2.4342944696808804e+00 0.0000000000000000e+00  2.9753455221301390e+00 3.4575731291572809e+00 0.0000000000000000e+00  2.9918251400323834e+00 2.9177582242235882e+00 0.0000000000000000e+00  2.9519469464628085e+00 4.3102111175555322e+00 0.0000000000000000e+00  2.9463175497528002e+00 3.6902702033718588e+00 0.0000000000000000e+00  2.9035270204105936e+00 4.6841335152311645e+00 0.0000000000000000e+00  2.9188734683292954e+00 4.7889482576305094e+00 0.0000000000000000e+00  2.8551486717063450e+00 5.0716722238673322e+00 0.0000000000000000e+00  2.8714327088667040e+00 5.4478992029204205e+00 0.0000000000000000e+00  2.8332130066475285e+00 5.9916945454553270e+00 0.0000000000000000e+00  2.8101416069867096e+00 5.7891962386642097e+00 0.0000000000000000e+00  2.8004086088730280e+00 6.7012971993202219e+00 0.0000000000000000e+00  2.7782284620220086e+00 6.6682276582643647e+00 0.0000000000000000e+00  2.7410737834632255e+00 6.8884571788684790e+00 0.0000000000000000e+00  2.7486862618833761e+00 7.5474859616858696e+00 0.0000000000000000e+00  2.7069559529572746e+00 7.5725277022053605e+00 0.0000000000000000e+00  2.6865858532355329e+00 7.7420091319775421e+00 0.0000000000000000e+00  2.6845839371456877e+00 8.4781261493898032e+00 0.0000000000000000e+00  2.6461602636779933e+00 8.3316411902130625e+00 0.0000000000000000e+00  2.6245901313353213e+00 8.6258612642392816e+00 0.0000000000000000e+00  2.6257127063188532e+00 9.2815175035422381e+00 0.0000000000000000e+00  2.5826105029270954e+00 9.1162948046216421e+00 0.0000000000000000e+00  2.5648524485243720e+00 9.4009340852274690e+00 0.0000000000000000e+00  2.5647627034498748e+00 1.0062988129843058e+01 0.0000000000000000e+00  2.5221652591544097e+00 9.8558231576375910e+00 0.0000000000000000e+00  2.5027290714246928e+00 1.0113324766668928e+01 0.0000000000000000e+00  2.5052098896338659e+00 1.0791900462315599e+01 0.0000000000000000e+00  2.4621885998783988e+00 1.0570353820644959e+01 0.0000000000000000e+00  2.4405135596710670e+00 1.0757761527720916e+01 0.0000000000000000e+00  2.4451623666736753e+00 1.1467237295238347e+01 0.0000000000000000e+00  2.4034580905554943e+00 1.1250181921812292e+01 0.0000000000000000e+00  2.3787908401199229e+00 1.1363936030216118e+01 0.0000000000000000e+00  2.3842588198891699e+00 1.2069099755322316e+01 0.0000000000000000e+00  2.3440489330164564e+00 1.1865759251222682e+01 0.0000000000000000e+00  2.3215179464492128e+00 1.2001972180902948e+01 0.0000000000000000e+00  2.3207888273618487e+00 1.2566884202559786e+01 0.0000000000000000e+00  2.2806801468108957e+00 1.2343626363180787e+01 0.0000000000000000e+00  2.2742598201048199e+00 1.2780196007982246e+01 0.0000000000000000e+00  2.2555952216333779e+00 1.2967681027590677e+01 0.0000000000000000e+00  2.2050992637145264e+00 1.2517243352736031e+01 0.0000000000000000e+00  2.2438006414961618e+00 1.3824743107208990e+01 0.0000000000000000e+00  2.1940622675817254e+00 1.3381545378477519e+01 0.0000000000000000e+00  2.1057920925682287e+00 1.2155538500135776e+01 0.0000000000000000e+00  2.2279344867040640e+00 1.5129452786942505e+01 0.0000000000000000e+00  2.1480357375356145e+00 1.4145903121407438e+01 0.0000000000000000e+00  1.9550757579510378e+00 1.1255328368364379e+01 0.0000000000000000e+00  2.2094519237347257e+00 1.6237143162775173e+01 0.0000000000000000e+00  2.1524326778732314e+00 1.5580811141155316e+01 0.0000000000000000e+00  1.8696223888381098e+00 9.6105105845893153e+00 0.0000000000000000e+00  2.1839423932186746e+00 1.6147585383888504e+01 0.0000000000000000e+00  2.2564788458402840e+00 1.7470225999521826e+01 0.0000000000000000e+00  1.7882434659466939e+00 8.5781510490350321e+00 0.0000000000000000e+00  2.0990354247716709e+00 1.4578708958021153e+01 0.0000000000000000e+00  2.3603961142301810e+00 1.9996039198207857e+01 0.0000000000000000e+00  1.7866854195753192e+00 8.6620112920418126e+00 0.0000000000000000e+00  1.9322687708035138e+00 1.1650163404312236e+01 0.0000000000000000e+00  2.4555051702053161e+00 2.2019421296789197e+01 0.0000000000000000e+00  1.8738173291188902e+00 1.0677489126584055e+01 0.0000000000000000e+00  1.7322205199309071e+00 7.8595278662636199e+00 0.0000000000000000e+00  2.4569752333684605e+00 2.2372769077866657e+01 0.0000000000000000e+00  2.0820237365118635e+00 1.4804074817711545e+01 0.0000000000000000e+00  1.5465174922919971e+00 4.6714009381874755e+00 0.0000000000000000e+00  2.3053450733204999e+00 1.9420416082023785e+01 0.0000000000000000e+00  2.3674117878457706e+00 2.0726026520473454e+01 0.0000000000000000e+00  1.5004069245708116e+00 4.0610879414818122e+00 0.0000000000000000e+00  1.9481918714271826e+00 1.2563060537847662e+01 0.0000000000000000e+00  2.6139322091662969e+00 2.5999995522687001e+01 0.0000000000000000e+00  1.7188643075691836e+00 8.3979463043493503e+00 0.0000000000000000e+00  1.4996211380510969e+00 4.3022441474157711e+00 0.0000000000000000e+00  2.5466434145035906e+00 2.4951290632372125e+01 0.0000000000000000e+00  2.2351381846656611e+00 1.8375533118455795e+01 0.0000000000000000e+00  1.2684770608904095e+00 7.8545732216530550e-01 0.0000000000000000e+00  1.9853085318403076e+00 1.3589139507181297e+01 0.0000000000000000e+00  2.7196173900360243e+00 2.8891703534065435e+01 0.0000000000000000e+00  1.6322605637330720e+00 7.1468529212023588e+00 0.0000000000000000e+00  1.2759030268040790e+00 1.1788597389417972e+00 0.0000000000000000e+00  2.4872464507296907e+00 2.3996992930696031e+01 0.0000000000000000e+00  2.4690953821847161e+00 2.3523877965666713e+01 0.0000000000000000e+00  1.2184135716734092e+00 6.1834245240737229e-01 0.0000000000000000e+00  1.5174738243822949e+00 5.2466823146158017e+00 0.0000000000000000e+00  2.7620139412969000e+00 3.0312250690780509e+01 0.0000000000000000e+00  2.1202352999775131e+00 1.6274529217885867e+01 0.0000000000000000e+00  1.0325000635276032e+00 -1.6188214179572336e+00 0.0000000000000000e+00  1.7427404481481072e+00 9.1113624550986572e+00 0.0000000000000000e+00  2.8459935792831885e+00 3.2478278461086290e+01 0.0000000000000000e+00  1.8817768007946527e+00 1.1571596855147959e+01 0.0000000000000000e+00  9.7173671436004427e-01 -2.0609440916973996e+00 0.0000000000000000e+00  1.8656508623729118e+00 1.1267526940835678e+01 0.0000000000000000e+00  2.8557393470881145e+00 3.2783906718094556e+01 0.0000000000000000e+00  1.7664007542225659e+00 9.4603159525496263e+00 0.0000000000000000e+00  9.8388793647881267e-01 -1.9690731435341957e+00 0.0000000000000000e+00  2.0042636523561566e+00 1.3902853770203579e+01 0.0000000000000000e+00  2.8195264924456200e+00 3.1974603448514287e+01 0.0000000000000000e+00  1.6446760942631613e+00 6.8263624481777567e+00 0.0000000000000000e+00  9.3441470830930151e-01 -1.0971495439205674e+00 0.0000000000000000e+00  1.0037046232984992e+00 2.6063295406014564e-01 0.0000000000000000e+00  1.0030298007826977e+00 -7.0199121502145426e-02 0.0000000000000000e+00  9.9744202072869603e-01 2.5350317816383694e-02 0.0000000000000000e+00  1.0018443767480172e+00 -1.3236535544643834e-02 0.0000000000000000e+00  9.9859172636622917e-01 9.1300809380706477e-03 0.0000000000000000e+00  1.0011249294841500e+00 -7.0983898625640472e-03 0.0000000000000000e+00  9.9909139616565434e-01 5.7024342108511431e-03 0.0000000000000000e+00  1.0007285415199674e+00 -4.5636199291127048e-03 0.0000000000000000e+00  9.9942435637407934e-01 3.6063480370350175e-03 0.0000000000000000e+00  1.0004475043485421e+00 -2.8024077523640680e-03 0.0000000000000000e+00  9.9965769627424073e-01 2.1441429938582448e-03 0.0000000000000000e+00  1.0002578896797940e+00 -1.6150560593752731e-03 0.0000000000000000e+00  9.9980846128297118e-01 1.1997050531172618e-03 0.0000000000000000e+00  1.0001403868505723e+00 -8.7921841533304061e-04 0.0000000000000000e+00  9.9989837623588063e-01 6.3650237462986364e-04 0.0000000000000000e+00  1.0000727129879601e+00 -4.5539899380890402e-04 0.0000000000000000e+00  9.9994854129374178e-01 3.2229711755742059e-04 0.0000000000000000e+00  1.0000360416941376e+00 -2.2573063013646874e-04 0.0000000000000000e+00  9.9997500355286117e-01 1.5655685738590898e-04 0.0000000000000000e+00  1.0000171747888680e+00 -1.0756707566784693e-04 0.0000000000000000e+00  9.9998830417149953e-01 7.3252582048190064e-05 0.0000000000000000e+00  1.0000078971561497e+00 -4.9460667657164144e-05 0.0000000000000000e+00  9.9999471108806592e-01 3.3125114816177825e-05 0.0000000000000000e+00  1.0000035144928281e+00 -2.2011645828464753e-05 0.0000000000000000e+00  9.9999768211506712e-01 1.4517188647780028e-05 0.0000000000000000e+00  1.0000015176690722e+00 -9.5053302867510940e-06 0.0000000000000000e+00  9.9999901319346185e-01 6.1804839755808185e-06 0.0000000000000000e+00  1.0000006373279200e+00 -3.9916567831277434e-06 0.0000000000000000e+00  9.9999959105125991e-01 2.5612929971447921e-06 0.0000000000000000e+00  1.0000002607610277e+00 -1.6331759654513845e-06 0.0000000000000000e+00  9.9999983473858778e-01 1.0350511603502688e-06 0.0000000000000000e+00  1.0000001041207329e+00 -6.5212002510819361e-07 0.0000000000000000e+00  9.9999993477452775e-01 4.0851458904959570e-07 0.0000000000000000e+00  1.0000000406335294e+00 -2.5449243117808124e-07 0.0000000000000000e+00  9.9999997482275083e-01 1.5768799141875307e-07 0.0000000000000000e+00  1.0000000155186524e+00 -9.7195071597596803e-08 0.0000000000000000e+00  9.9999999048335431e-01 5.9603813186105141e-08 0.0000000000000000e+00  1.0000000058070724e+00 -3.6370314275911263e-08 0.0000000000000000e+00  9.9999999647360771e-01 2.2086119545381673e-08 0.0000000000000000e+00  1.0000000021313693e+00 -1.3348854071345783e-08 0.0000000000000000e+00  9.9999999871768552e-01 8.0310106828820872e-09 0.0000000000000000e+00  1.0000000007680576e+00 -4.8099403803307573e-09 0.0000000000000000e+00  9.9999999954193952e-01 2.8680128157606519e-09 0.0000000000000000e+00  1.0000000002720735e+00 -1.7024762369005905e-09 0.0000000000000000e+00  9.9999999983897347e-01 1.0057904570125577e-09 0.0000000000000000e+00  1.0000000000950877e+00 -5.9070259020337445e-10 0.0000000000000000e+00  9.9999999994377031e-01 3.4364462429345204e-10 0.0000000000000000e+00  1.0000000000336524e+00 -1.9579768274627822e-10 0.0000000000000000e+00  9.9999999997901745e-01 1.0522905304897987e-10 0.0000000000000000e+00  1.0000000000145997e+00 -4.5791366846593829e-11 0.0000000000000000e+00  9.9999999998733902e-01 0.0000000000000000e+00 0.0000000000000000e+00  </DataArray> 
</PointData> 
</Piece>
</UnstructuredGrid>
</VTKFile>