<?xml version="1.0"?>
<VTKFile type="UnstructuredGrid"  version="0.1"  >
<UnstructuredGrid>
<Piece  NumberOfPoints="201" NumberOfCells="200">
<Points>
<DataArray  type="Float64"  NumberOfComponents="3"  format="ascii">-5 0 0  -4.95 0 0  -4.9 0 0  -4.85 0 0  -4.8 0 0  -4.75 0 0  -4.7 0 0  -4.65 0 0  -4.6 0 0  -4.55 0 0  -4.5 0 0  -4.45 0 0  -4.4 0 0  -4.35 0 0  -4.3 0 0  -4.25 0 0  -4.2 0 0  -4.15 0 0  -4.1 0 0  -4.05 0 0  -4 0 0  -3.95 0 0  -3.9 0 0  -3.85 0 0  -3.8 0 0  -3.75 0 0  -3.7 0 0  -3.65 0 0  -3.6 0 0  -3.55 0 0  -3.5 0 0  -3.45 0 0  -3.4 0 0  -3.35 0 0  -3.3 0 0  -3.25 0 0  -3.2 0 0  -3.15 0 0  -3.1 0 0  -3.05 0 0  -3 0 0  -2.95 0 0  -2.9 0 0  -2.85 0 0  -2.8 0 0  -2.75 0 0  -2.7 0 0  -2.65 0 0  -2.6 0 0  -2.55 0 0  -2.5 0 0  -2.45 0 0  -2.4 0 0  -2.35 0 0  -2.3 0 0  -2.25 0 0  -2.2 0 0  -2.15 0 0  -2.1 0 0  -2.05 0 0  -2 0 0  -1.95 0 0  -1.9 0 0  -1.85 0 0  -1.8 0 0  -1.75 0 0  -1.7 0 0  -1.65 0 0  -1.6 0 0  -1.55 0 0  -1.5 0 0  -1.45 0 0  -1.4 0 0  -1.35 0 0  -1.3 0 0  -1.25 0 0  -1.2 0 0  -1.15 0 0  -1.1 0 0  -1.05 0 0  -1 0 0  -0.9500000000000002 0 0  -0.9000000000000004 0 0  -0.8499999999999996 0 0  -0.7999999999999998 0 0  -0.75 0 0  -0.7000000000000002 0 0  -0.6500000000000004 0 0  -0.5999999999999996 0 0  -0.5499999999999998 0 0  -0.5 0 0  -0.4500000000000002 0 0  -0.4000000000000004 0 0  -0.3499999999999996 0 0  -0.2999999999999998 0 0  -0.25 0 0  -0.2000000000000002 0 0  -0.1500000000000004 0 0  -0.09999999999999964 0 0  -0.04999999999999982 0 0  0 0 0  0.04999999999999982 0 0  0.09999999999999964 0 0  0.1500000000000004 0 0  0.2000000000000002 0 0  0.25 0 0  0.2999999999999998 0 0  0.3499999999999996 0 0  0.4000000000000004 0 0  0.4500000000000002 0 0  0.5 0 0  0.5499999999999998 0 0  0.5999999999999996 0 0  0.6500000000000004 0 0  0.7000000000000002 0 0  0.75 0 0  0.7999999999999998 0 0  0.8499999999999996 0 0  0.9000000000000004 0 0  0.9500000000000002 0 0  1 0 0  1.05 0 0  1.1 0 0  1.15 0 0  1.2 0 0  1.25 0 0  1.3 0 0  1.35 0 0  1.4 0 0  1.45 0 0  1.5 0 0  1.55 0 0  1.6 0 0  1.65 0 0  1.7 0 0  1.75 0 0  1.8 0 0  1.85 0 0  1.9 0 0  1.95 0 0  2 0 0  2.05 0 0  2.1 0 0  2.15 0 0  2.2 0 0  2.25 0 0  2.3 0 0  2.35 0 0  2.4 0 0  2.45 0 0  2.5 0 0  2.55 0 0  2.6 0 0  2.65 0 0  2.7 0 0  2.75 0 0  2.8 0 0  2.85 0 0  2.9 0 0  2.95 0 0  3 0 0  3.050000000000001 0 0  3.1 0 0  3.15 0 0  3.199999999999999 0 0  3.25 0 0  3.300000000000001 0 0  3.35 0 0  3.4 0 0  3.449999999999999 0 0  3.5 0 0  3.550000000000001 0 0  3.6 0 0  3.65 0 0  3.699999999999999 0 0  3.75 0 0  3.800000000000001 0 0  3.85 0 0  3.9 0 0  3.949999999999999 0 0  4 0 0  4.050000000000001 0 0  4.1 0 0  4.15 0 0  4.199999999999999 0 0  4.25 0 0  4.300000000000001 0 0  4.35 0 0  4.4 0 0  4.449999999999999 0 0  4.5 0 0  4.550000000000001 0 0  4.6 0 0  4.65 0 0  4.699999999999999 0 0  4.75 0 0  4.800000000000001 0 0  4.85 0 0  4.9 0 0  4.949999999999999 0 0  5 0 0  </DataArray>
</Points>
<Cells>
<DataArray  type="UInt32"  Name="connectivity"  format="ascii">0 1  1 2  2 3  3 4  4 5  5 6  6 7  7 8  8 9  9 10  10 11  11 12  12 13  13 14  14 15  15 16  16 17  17 18  18 19  19 20  20 21  21 22  22 23  23 24  24 25  25 26  26 27  27 28  28 29  29 30  30 31  31 32  32 33  33 34  34 35  35 36  36 37  37 38  38 39  39 40  40 41  41 42  42 43  43 44  44 45  45 46  46 47  47 48  48 49  49 50  50 51  51 52  52 53  53 54  54 55  55 56  56 57  57 58  58 59  59 60  60 61  61 62  62 63  63 64  64 65  65 66  66 67  67 68  68 69  69 70  70 71  71 72  72 73  73 74  74 75  75 76  76 77  77 78  78 79  79 80  80 81  81 82  82 83  83 84  84 85  85 86  86 87  87 88  88 89  89 90  90 91  91 92  92 93  93 94  94 95  95 96  96 97  97 98  98 99  99 100  100 101  101 102  102 103  103 104  104 105  105 106  106 107  107 108  108 109  109 110  110 111  111 112  112 113  113 114  114 115  115 116  116 117  117 118  118 119  119 120  120 121  121 122  122 123  123 124  124 125  125 126  126 127  127 128  128 129  129 130  130 131  131 132  132 133  133 134  134 135  135 136  136 137  137 138  138 139  139 140  140 141  141 142  142 143  143 144  144 145  145 146  146 147  147 148  148 149  149 150  150 151  151 152  152 153  153 154  154 155  155 156  156 157  157 158  158 159  159 160  160 161  161 162  162 163  163 164  164 165  165 166  166 167  167 168  168 169  169 170  170 171  171 172  172 173  173 174  174 175  175 176  176 177  177 178  178 179  179 180  180 181  181 182  182 183  183 184  184 185  185 186  186 187  187 188  188 189  189 190  190 191  191 192  192 193  193 194  194 195  195 196  196 197  197 198  198 199  199 200  </DataArray>
<DataArray  type="UInt32"  Name="offsets"  format="ascii">2 4 6 8 10 12 14 16 18 20 22 24 26 28 30 32 34 36 38 40 42 44 46 48 50 52 54 56 58 60 62 64 66 68 70 72 74 76 78 80 82 84 86 88 90 92 94 96 98 100 102 104 106 108 110 112 114 116 118 120 122 124 126 128 130 132 134 136 138 140 142 144 146 148 150 152 154 156 158 160 162 164 166 168 170 172 174 176 178 180 182 184 186 188 190 192 194 196 198 200 202 204 206 208 210 212 214 216 218 220 222 224 226 228 230 232 234 236 238 240 242 244 246 248 250 252 254 256 258 260 262 264 266 268 270 272 274 276 278 280 282 284 286 288 290 292 294 296 298 300 302 304 306 308 310 312 314 316 318 320 322 324 326 328 330 332 334 336 338 340 342 344 346 348 350 352 354 356 358 360 362 364 366 368 370 372 374 376 378 380 382 384 386 388 390 392 394 396 398 400 </DataArray>
<DataArray  type="UInt8"  Name="types"  format="ascii">3 3 3 3 3 3 3 3 3 3 3 3 3 3 3 3 3 3 3 3 3 3 3 3 3 3 3 3 3 3 3 3 3 3 3 3 3 3 3 3 3 3 3 3 3 3 3 3 3 3 3 3 3 3 3 3 3 3 3 3 3 3 3 3 3 3 3 3 3 3 3 3 3 3 3 3 3 3 3 3 3 3 3 3 3 3 3 3 3 3 3 3 3 3 3 3 3 3 3 3 3 3 3 3 3 3 3 3 3 3 3 3 3 3 3 3 3 3 3 3 3 3 3 3 3 3 3 3 3 3 3 3 3 3 3 3 3 3 3 3 3 3 3 3 3 3 3 3 3 3 3 3 3 3 3 3 3 3 3 3 3 3 3 3 3 3 3 3 3 3 3 3 3 3 3 3 3 3 3 3 3 3 3 3 3 3 3 3 3 3 3 3 3 3 3 3 3 3 3 3 </DataArray>
</Cells>
<PointData  Vectors="(s, w)"> 
<DataArray  type="Float64"  Name="(s, w)"  NumberOfComponents="3" format="ascii">3.1622776601657701e+00 0.0000000000000000e+00 0.0000000000000000e+00  3.1622776601712435e+00 2.3465204397691169e-11 0.0000000000000000e+00  3.1622776601647025e+00 -5.1454844385017063e-11 0.0000000000000000e+00  3.1622776601735842e+00 8.9349592249528665e-11 0.0000000000000000e+00  3.1622776601606457e+00 -1.4436286430754718e-10 0.0000000000000000e+00  3.1622776601801239e+00 2.2694600948390466e-10 0.0000000000000000e+00  3.1622776601503917e+00 -3.5263624258653756e-10 0.0000000000000000e+00  3.1622776601960108e+00 5.4493222131211531e-10 0.0000000000000000e+00  3.1622776601259157e+00 -8.3955046417819458e-10 0.0000000000000000e+00  3.1622776602336020e+00 1.2908359123467360e-09 0.0000000000000000e+00  3.1622776600683062e+00 -1.9814110507752899e-09 0.0000000000000000e+00  3.1622776603217346e+00 3.0369067701276239e-09 0.0000000000000000e+00  3.1622776599336935e+00 -4.6478734324017431e-09 0.0000000000000000e+00  3.1622776605270251e+00 7.1030407382246329e-09 0.0000000000000000e+00  3.1622776596211053e+00 -1.0839054975717587e-08 0.0000000000000000e+00  3.1622776610022338e+00 1.6514987590190844e-08 0.0000000000000000e+00  3.1622776588998471e+00 -2.5124159105057697e-08 0.0000000000000000e+00  3.1622776620951183e+00 3.8160386532795433e-08 0.0000000000000000e+00  3.1622776572466891e+00 -5.7866125062826446e-08 0.0000000000000000e+00  3.1622776645913846e+00 8.7600721186015633e-08 0.0000000000000000e+00  3.1622776534841361e+00 -1.3238616582300458e-07 0.0000000000000000e+00  3.1622776702520414e+00 1.9971404831984840e-07 0.0000000000000000e+00  3.1622776449841083e+00 -3.0073522568366371e-07 0.0000000000000000e+00  3.1622776829905459e+00 4.5200910600188970e-07 0.0000000000000000e+00  3.1622776259323371e+00 -6.7806901372738515e-07 0.0000000000000000e+00  3.1622777114249567e+00 1.0151727054757479e-06 0.0000000000000000e+00  3.1622775835859041e+00 -1.5167700306039012e-06 0.0000000000000000e+00  3.1622777743500032e+00 2.2614476528100609e-06 0.0000000000000000e+00  3.1622774902963076e+00 -3.3644364092145452e-06 0.0000000000000000e+00  3.1622779123290603e+00 4.9942202059332362e-06 0.0000000000000000e+00  3.1622772867191826e+00 -7.3964254307496311e-06 0.0000000000000000e+00  3.1622782119308583e+00 1.0928044860088925e-05 0.0000000000000000e+00  3.1622768469536227e+00 -1.6106294123624037e-05 0.0000000000000000e+00  3.1622788556836174e+00 2.3678020286468238e-05 0.0000000000000000e+00  3.1622759072404429e+00 -3.4717982962009965e-05 0.0000000000000000e+00  3.1622802234278935e+00 5.0767149726069457e-05 0.0000000000000000e+00  3.1622739225179530e+00 -7.4026838770500063e-05 0.0000000000000000e+00  3.1622830944041711e+00 1.0762880946389302e-04 0.0000000000000000e+00  3.1622697830941906e+00 -1.5601116077433632e-04 0.0000000000000000e+00  3.1622890424462664e+00 2.2543375355182812e-04 0.0000000000000000e+00  3.1622612664256118e+00 -3.2469027215122304e-04 0.0000000000000000e+00  3.1623011920830857e+00 4.6606491766320321e-04 0.0000000000000000e+00  3.1622440007927599e+00 -6.6665030496893701e-04 0.0000000000000000e+00  3.1623256295213484e+00 9.5006164437728003e-04 0.0000000000000000e+00  3.1622095580500837e+00 -1.3488211519068548e-03 0.0000000000000000e+00  3.1623739608203780e+00 1.9072812627515903e-03 0.0000000000000000e+00  3.1621420516081074e+00 -2.6858651966738755e-03 0.0000000000000000e+00  3.1624677946654942e+00 3.7656658009038351e-03 0.0000000000000000e+00  3.1620122907645296e+00 -5.2559882692920327e-03 0.0000000000000000e+00  3.1626462800859669e+00 7.3004699934802325e-03 0.0000000000000000e+00  3.1617681883944453e+00 -1.0091035099112713e-02 0.0000000000000000e+00  3.1629781401588155e+00 1.3872393553177048e-02 0.0000000000000000e+00  3.1613199283049331e+00 -1.8970621577929753e-02 0.0000000000000000e+00  3.1635796043802902e+00 2.5782113440335607e-02 0.0000000000000000e+00  3.1605188351751972e+00 -3.4841709977648350e-02 0.0000000000000000e+00  3.1646385919581208e+00 4.6747434933524228e-02 0.0000000000000000e+00  3.1591308658591908e+00 -6.2346605750076042e-02 0.0000000000000000e+00  3.1664422447731777e+00 8.2443822356531651e-02 0.0000000000000000e+00  3.1568106419196789e+00 -1.0834465745032858e-01 0.0000000000000000e+00  3.1693977151586701e+00 1.4090490359031005e-01 0.0000000000000000e+00  3.1530918283500595e+00 -1.8211886868446631e-01 0.0000000000000000e+00  3.1740232438182456e+00 2.3232334287351686e-01 0.0000000000000000e+00  3.1474255469755090e+00 -2.9464350689095720e-01 0.0000000000000000e+00  3.1808681565575823e+00 3.6743187475626088e-01 0.0000000000000000e+00  3.1393178184338839e+00 -4.5589556998661818e-01 0.0000000000000000e+00  3.1903026594122323e+00 5.5331378492674277e-01 0.0000000000000000e+00  3.1286279670999013e+00 -6.6894145524429527e-01 0.0000000000000000e+00  3.2021202090837910e+00 7.8558097024917040e-01 0.0000000000000000e+00  3.1160645511747225e+00 -9.1997409409440289e-01 0.0000000000000000e+00  3.2149548306037170e+00 1.0370955427308777e+00 0.0000000000000000e+00  3.1038076081352179e+00 -1.1656024212664018e+00 0.0000000000000000e+00  3.2256852709246462e+00 1.2466866391286702e+00 0.0000000000000000e+00  3.0959498337052698e+00 -1.3236200317641773e+00 0.0000000000000000e+00  3.2293057473710038e+00 1.3169274983631079e+00 0.0000000000000000e+00  3.0981009713154370e+00 -1.2810127718831223e+00 0.0000000000000000e+00  3.2200936824465440e+00 1.1362503902683514e+00 0.0000000000000000e+00  3.1152472933621516e+00 -9.3825802714430540e-01 0.0000000000000000e+00  3.1949089723280197e+00 6.4146734886960088e-01 0.0000000000000000e+00  3.1473776489137180e+00 -2.9856705372345393e-01 0.0000000000000000e+00  3.1583297443712368e+00 -8.1538222147165051e-02 0.0000000000000000e+00  3.1843780139681517e+00 4.3300364025578658e-01 0.0000000000000000e+00  3.1263554619169840e+00 -7.1812038961763713e-01 0.0000000000000000e+00  3.2054194917978092e+00 8.4663179268994204e-01 0.0000000000000000e+00  3.1216248077225885e+00 -8.0972243451331272e-01 0.0000000000000000e+00  3.1902335545676719e+00 5.6439401863862271e-01 0.0000000000000000e+00  3.1529994388069968e+00 -1.2040017120365941e-01 0.0000000000000000e+00  3.1405334459085186e+00 -2.1225754486967854e-01 0.0000000000000000e+00  3.1820320916418949e+00 1.0162779140730833e+00 0.0000000000000000e+00  3.0814963908322226e+00 -7.7323128299638125e-02 0.0000000000000000e+00  3.1112997894970360e+00 2.1350325343536647e+00 0.0000000000000000e+00  3.0180394819975702e+00 2.7631433924355115e+00 0.0000000000000000e+00  2.9008407041297590e+00 3.5077248091449693e+00 0.0000000000000000e+00  2.8870716763378925e+00 6.6330385770506206e+00 0.0000000000000000e+00  2.7290061261076968e+00 6.9104199401708435e+00 0.0000000000000000e+00  2.5991711911293551e+00 7.5591409059992172e+00 0.0000000000000000e+00  2.6437865353181951e+00 1.1509267180320348e+01 0.0000000000000000e+00  2.4198111418307549e+00 1.0040797571669660e+01 0.0000000000000000e+00  2.2718541085498494e+00 9.7632557602872563e+00 0.0000000000000000e+00  2.4730979123135355e+00 1.6478239156390007e+01 0.0000000000000000e+00  2.0966722846259760e+00 1.1760399365279861e+01 0.0000000000000000e+00  1.8189193282734906e+00 9.9363493281001780e+00 0.0000000000000000e+00  2.4220430556527512e+00 2.1215377945185324e+01 0.0000000000000000e+00  1.9719544651803194e+00 1.2936449558630216e+01 0.0000000000000000e+00  1.6148454847944784e+00 5.5272574496461742e+00 0.0000000000000000e+00  2.4700862019332352e+00 2.3351867812345731e+01 0.0000000000000000e+00  2.2094778677864233e+00 1.7569585526439869e+01 0.0000000000000000e+00  1.2460273838450731e+00 5.8452584246164485e-01 0.0000000000000000e+00  2.0429537752945204e+00 1.4753707562827035e+01 0.0000000000000000e+00  2.7645649161900696e+00 3.0507835186488403e+01 0.0000000000000000e+00  1.5888171331002718e+00 5.7516744045007915e+00 0.0000000000000000e+00  9.2262158612648004e-01 -9.0780490249536072e-01 0.0000000000000000e+00  1.0157505947962426e+00 1.6598876101735552e-01 0.0000000000000000e+00  9.9350982329992410e-01 -7.5292525873507897e-03 0.0000000000000000e+00  1.0047052405500632e+00 -2.0542411451997551e-02 0.0000000000000000e+00  9.9642402404423136e-01 2.0809596510330281e-02 0.0000000000000000e+00  1.0025588515282007e+00 -1.5716171939330434e-02 0.0000000000000000e+00  9.9827224356210975e-01 1.0773995776939310e-02 0.0000000000000000e+00  1.0011165226461851e+00 -6.9806307015251980e-03 0.0000000000000000e+00  9.9930303206041116e-01 4.3644167489817988e-03 0.0000000000000000e+00  1.0004230812251562e+00 -2.6491430972644136e-03 0.0000000000000000e+00  9.9974920585963467e-01 1.5708168112223864e-03 0.0000000000000000e+00  1.0001456427887292e+00 -9.1212775210367360e-04 0.0000000000000000e+00  9.9991694916687468e-01 5.2016784353803725e-04 0.0000000000000000e+00  1.0000465918537997e+00 -2.9180586064435159e-04 0.0000000000000000e+00  9.9997424577051508e-01 1.6130281677981655e-04 0.0000000000000000e+00  1.0000140451004151e+00 -8.7965711412180727e-05 0.0000000000000000e+00  9.9999243485672629e-01 4.7381454904970144e-05 0.0000000000000000e+00  1.0000040284952723e+00 -2.5230897914116914e-05 0.0000000000000000e+00  9.9999787740965262e-01 1.3294033470722803e-05 0.0000000000000000e+00  1.0000011074132586e+00 -6.9358536774742567e-06 0.0000000000000000e+00  9.9999942752026327e-01 3.5855065391550692e-06 0.0000000000000000e+00  1.0000002934095245e+00 -1.8376572284472199e-06 0.0000000000000000e+00  9.9999985082948184e-01 9.3427203564905285e-07 0.0000000000000000e+00  1.0000000752654052e+00 -4.7139582178012378e-07 0.0000000000000000e+00  9.9999996229481625e-01 2.3615187473627463e-07 0.0000000000000000e+00  1.0000000187617266e+00 -1.1750683573568405e-07 0.0000000000000000e+00  9.9999999072383150e-01 5.8097702985951128e-08 0.0000000000000000e+00  1.0000000045586215e+00 -2.8551166108680477e-08 0.0000000000000000e+00  9.9999999777258652e-01 1.3950544622168282e-08 0.0000000000000000e+00  1.0000000010824142e+00 -6.7792852438067852e-09 0.0000000000000000e+00  9.9999999947673057e-01 3.2772972279267691e-09 0.0000000000000000e+00  1.0000000002517109e+00 -1.5764934689176889e-09 0.0000000000000000e+00  9.9999999987949062e-01 7.5476469857689308e-10 0.0000000000000000e+00  1.0000000000574347e+00 -3.5971860316184557e-10 0.0000000000000000e+00  9.9999999997274491e-01 1.7069942784748624e-10 0.0000000000000000e+00  1.0000000000128801e+00 -8.0668251315990383e-11 0.0000000000000000e+00  9.9999999999393741e-01 3.7969535508295910e-11 0.0000000000000000e+00  1.0000000000028433e+00 -1.7803610424422413e-11 0.0000000000000000e+00  9.9999999999867173e-01 8.3195941259591636e-12 0.0000000000000000e+00  1.0000000000006182e+00 -3.8743572388156838e-12 0.0000000000000000e+00  9.9999999999971323e-01 1.7968712980348103e-12 0.0000000000000000e+00  1.0000000000001332e+00 -8.3133629909716877e-13 0.0000000000000000e+00  9.9999999999993916e-01 3.8251710259446932e-13 0.0000000000000000e+00  1.0000000000000280e+00 -1.7601520245755009e-13 0.0000000000000000e+00  9.9999999999998679e-01 8.0515937794389230e-14 0.0000000000000000e+00  1.0000000000000062e+00 -3.5064410995797699e-14 0.0000000000000000e+00  9.9999999999999722e-01 1.6413071920248906e-14 0.0000000000000000e+00  1.0000000000000016e+00 -5.2397491375925868e-15 0.0000000000000000e+00  9.9999999999999911e-01 7.1202282666726341e-16 0.0000000000000000e+00  1.0000000000000004e+00 -2.9951926942741746e-15 0.0000000000000000e+00  1.0000000000000000e+00 -2.0557696004978946e-15 0.0000000000000000e+00  1.0000000000000004e+00 -2.0776829867317336e-16 0.0000000000000000e+00  1.0000000000000004e+00 3.5370027676750612e-16 0.0000000000000000e+00  1.0000000000000002e+00 -1.1328828961180948e-15 0.0000000000000000e+00  1.0000000000000002e+00 3.3507962904499846e-15 0.0000000000000000e+00  1.0000000000000004e+00 -1.1559969987910421e-15 0.0000000000000000e+00  9.9999999999999989e-01 -8.4227095269491718e-16 0.0000000000000000e+00  1.0000000000000007e+00 2.0468735326917269e-15 0.0000000000000000e+00  9.9999999999999989e-01 5.9552299547947539e-16 0.0000000000000000e+00  1.0000000000000004e+00 -3.3843249887057329e-15 0.0000000000000000e+00  1.0000000000000002e+00 1.8362468758242310e-15 0.0000000000000000e+00  1.0000000000000002e+00 -1.7324499777346415e-15 0.0000000000000000e+00  1.0000000000000004e+00 2.0692375120083631e-15 0.0000000000000000e+00  9.9999999999999989e-01 4.4869769976067715e-16 0.0000000000000000e+00  1.0000000000000007e+00 -1.7495718796800536e-15 0.0000000000000000e+00  1.0000000000000002e+00 8.7364929959675495e-16 0.0000000000000000e+00  1.0000000000000002e+00 -3.6019589879862856e-16 0.0000000000000000e+00  1.0000000000000002e+00 2.7661481572552004e-15 0.0000000000000000e+00  9.9999999999999967e-01 -8.3668224549406389e-16 0.0000000000000000e+00  1.0000000000000007e+00 -2.4559855904500170e-15 0.0000000000000000e+00  1.0000000000000002e+00 8.7450951292193465e-16 0.0000000000000000e+00  1.0000000000000002e+00 -3.4326080614006798e-16 0.0000000000000000e+00  1.0000000000000002e+00 2.7605252948851643e-15 0.0000000000000000e+00  9.9999999999999967e-01 -8.3727612967576957e-16 0.0000000000000000e+00  1.0000000000000007e+00 -2.4498405082884743e-15 0.0000000000000000e+00  1.0000000000000002e+00 8.5876593604065268e-16 0.0000000000000000e+00  1.0000000000000002e+00 -3.0718843258637860e-16 0.0000000000000000e+00  1.0000000000000002e+00 2.6843473599849990e-15 0.0000000000000000e+00  9.9999999999999967e-01 -7.1953834338722393e-16 0.0000000000000000e+00  1.0000000000000004e+00 -2.5645624714794561e-15 0.0000000000000000e+00  1.0000000000000002e+00 1.1649433020055899e-15 0.0000000000000000e+00  1.0000000000000002e+00 -1.3593653965675377e-15 0.0000000000000000e+00  1.0000000000000004e+00 3.5547301051409837e-15 0.0000000000000000e+00  9.9999999999999967e-01 -1.7234947220242246e-15 0.0000000000000000e+00  1.0000000000000004e+00 -1.4847577450886348e-16 0.0000000000000000e+00  9.9999999999999967e-01 7.6729484505551343e-16 0.0000000000000000e+00  1.0000000000000002e+00 5.0755769615118347e-16 0.0000000000000000e+00  1.0000000000000000e+00 -6.1193160676649906e-16 0.0000000000000000e+00  9.9999999999999989e-01 4.8996455053077239e-16 0.0000000000000000e+00  1.0000000000000000e+00 -1.1416532015501887e-15 0.0000000000000000e+00  1.0000000000000004e+00 0.0000000000000000e+00 0.0000000000000000e+00  </DataArray> 
</PointData> 
</Piece>
</UnstructuredGrid>
</VTKFile>