<?xml version="1.0"?>
<VTKFile type="UnstructuredGrid"  version="0.1"  >
<UnstructuredGrid>
<Piece  NumberOfPoints="201" NumberOfCells="200">
<Points>
<DataArray  type="Float64"  NumberOfComponents="3"  format="ascii">-5 0 0  -4.95 0 0  -4.9 0 0  -4.85 0 0  -4.8 0 0  -4.75 0 0  -4.7 0 0  -4.65 0 0  -4.6 0 0  -4.55 0 0  -4.5 0 0  -4.45 0 0  -4.4 0 0  -4.35 0 0  -4.3 0 0  -4.25 0 0  -4.2 0 0  -4.15 0 0  -4.1 0 0  -4.05 0 0  -4 0 0  -3.95 0 0  -3.9 0 0  -3.85 0 0  -3.8 0 0  -3.75 0 0  -3.7 0 0  -3.65 0 0  -3.6 0 0  -3.55 0 0  -3.5 0 0  -3.45 0 0  -3.4 0 0  -3.35 0 0  -3.3 0 0  -3.25 0 0  -3.2 0 0  -3.15 0 0  -3.1 0 0  -3.05 0 0  -3 0 0  -2.95 0 0  -2.9 0 0  -2.85 0 0  -2.8 0 0  -2.75 0 0  -2.7 0 0  -2.65 0 0  -2.6 0 0  -2.55 0 0  -2.5 0 0  -2.45 0 0  -2.4 0 0  -2.35 0 0  -2.3 0 0  -2.25 0 0  -2.2 0 0  -2.15 0 0  -2.1 0 0  -2.05 0 0  -2 0 0  -1.95 0 0  -1.9 0 0  -1.85 0 0  -1.8 0 0  -1.75 0 0  -1.7 0 0  -1.65 0 0  -1.6 0 0  -1.55 0 0  -1.5 0 0  -1.45 0 0  -1.4 0 0  -1.35 0 0  -1.3 0 0  -1.25 0 0  -1.2 0 0  -1.15 0 0  -1.1 0 0  -1.05 0 0  -1 0 0  -0.9500000000000002 0 0  -0.9000000000000004 0 0  -0.8499999999999996 0 0  -0.7999999999999998 0 0  -0.75 0 0  -0.7000000000000002 0 0  -0.6500000000000004 0 0  -0.5999999999999996 0 0  -0.5499999999999998 0 0  -0.5 0 0  -0.4500000000000002 0 0  -0.4000000000000004 0 0  -0.3499999999999996 0 0  -0.2999999999999998 0 0  -0.25 0 0  -0.2000000000000002 0 0  -0.1500000000000004 0 0  -0.09999999999999964 0 0  -0.04999999999999982 0 0  0 0 0  0.04999999999999982 0 0  0.09999999999999964 0 0  0.1500000000000004 0 0  0.2000000000000002 0 0  0.25 0 0  0.2999999999999998 0 0  0.3499999999999996 0 0  0.4000000000000004 0 0  0.4500000000000002 0 0  0.5 0 0  0.5499999999999998 0 0  0.5999999999999996 0 0  0.6500000000000004 0 0  0.7000000000000002 0 0  0.75 0 0  0.7999999999999998 0 0  0.8499999999999996 0 0  0.9000000000000004 0 0  0.9500000000000002 0 0  1 0 0  1.05 0 0  1.1 0 0  1.15 0 0  1.2 0 0  1.25 0 0  1.3 0 0  1.35 0 0  1.4 0 0  1.45 0 0  1.5 0 0  1.55 0 0  1.6 0 0  1.65 0 0  1.7 0 0  1.75 0 0  1.8 0 0  1.85 0 0  1.9 0 0  1.95 0 0  2 0 0  2.05 0 0  2.1 0 0  2.15 0 0  2.2 0 0  2.25 0 0  2.3 0 0  2.35 0 0  2.4 0 0  2.45 0 0  2.5 0 0  2.55 0 0  2.6 0 0  2.65 0 0  2.7 0 0  2.75 0 0  2.8 0 0  2.85 0 0  2.9 0 0  2.95 0 0  3 0 0  3.050000000000001 0 0  3.1 0 0  3.15 0 0  3.199999999999999 0 0  3.25 0 0  3.300000000000001 0 0  3.35 0 0  3.4 0 0  3.449999999999999 0 0  3.5 0 0  3.550000000000001 0 0  3.6 0 0  3.65 0 0  3.699999999999999 0 0  3.75 0 0  3.800000000000001 0 0  3.85 0 0  3.9 0 0  3.949999999999999 0 0  4 0 0  4.050000000000001 0 0  4.1 0 0  4.15 0 0  4.199999999999999 0 0  4.25 0 0  4.300000000000001 0 0  4.35 0 0  4.4 0 0  4.449999999999999 0 0  4.5 0 0  4.550000000000001 0 0  4.6 0 0  4.65 0 0  4.699999999999999 0 0  4.75 0 0  4.800000000000001 0 0  4.85 0 0  4.9 0 0  4.949999999999999 0 0  5 0 0  </DataArray>
</Points>
<Cells>
<DataArray  type="UInt32"  Name="connectivity"  format="ascii">0 1  1 2  2 3  3 4  4 5  5 6  6 7  7 8  8 9  9 10  10 11  11 12  12 13  13 14  14 15  15 16  16 17  17 18  18 19  19 20  20 21  21 22  22 23  23 24  24 25  25 26  26 27  27 28  28 29  29 30  30 31  31 32  32 33  33 34  34 35  35 36  36 37  37 38  38 39  39 40  40 41  41 42  42 43  43 44  44 45  45 46  46 47  47 48  48 49  49 50  50 51  51 52  52 53  53 54  54 55  55 56  56 57  57 58  58 59  59 60  60 61  61 62  62 63  63 64  64 65  65 66  66 67  67 68  68 69  69 70  70 71  71 72  72 73  73 74  74 75  75 76  76 77  77 78  78 79  79 80  80 81  81 82  82 83  83 84  84 85  85 86  86 87  87 88  88 89  89 90  90 91  91 92  92 93  93 94  94 95  95 96  96 97  97 98  98 99  99 100  100 101  101 102  102 103  103 104  104 105  105 106  106 107  107 108  108 109  109 110  110 111  111 112  112 113  113 114  114 115  115 116  116 117  117 118  118 119  119 120  120 121  121 122  122 123  123 124  124 125  125 126  126 127  127 128  128 129  129 130  130 131  131 132  132 133  133 134  134 135  135 136  136 137  137 138  138 139  139 140  140 141  141 142  142 143  143 144  144 145  145 146  146 147  147 148  148 149  149 150  150 151  151 152  152 153  153 154  154 155  155 156  156 157  157 158  158 159  159 160  160 161  161 162  162 163  163 164  164 165  165 166  166 167  167 168  168 169  169 170  170 171  171 172  172 173  173 174  174 175  175 176  176 177  177 178  178 179  179 180  180 181  181 182  182 183  183 184  184 185  185 186  186 187  187 188  188 189  189 190  190 191  191 192  192 193  193 194  194 195  195 196  196 197  197 198  198 199  199 200  </DataArray>
<DataArray  type="UInt32"  Name="offsets"  format="ascii">2 4 6 8 10 12 14 16 18 20 22 24 26 28 30 32 34 36 38 40 42 44 46 48 50 52 54 56 58 60 62 64 66 68 70 72 74 76 78 80 82 84 86 88 90 92 94 96 98 100 102 104 106 108 110 112 114 116 118 120 122 124 126 128 130 132 134 136 138 140 142 144 146 148 150 152 154 156 158 160 162 164 166 168 170 172 174 176 178 180 182 184 186 188 190 192 194 196 198 200 202 204 206 208 210 212 214 216 218 220 222 224 226 228 230 232 234 236 238 240 242 244 246 248 250 252 254 256 258 260 262 264 266 268 270 272 274 276 278 280 282 284 286 288 290 292 294 296 298 300 302 304 306 308 310 312 314 316 318 320 322 324 326 328 330 332 334 336 338 340 342 344 346 348 350 352 354 356 358 360 362 364 366 368 370 372 374 376 378 380 382 384 386 388 390 392 394 396 398 400 </DataArray>
<DataArray  type="UInt8"  Name="types"  format="ascii">3 3 3 3 3 3 3 3 3 3 3 3 3 3 3 3 3 3 3 3 3 3 3 3 3 3 3 3 3 3 3 3 3 3 3 3 3 3 3 3 3 3 3 3 3 3 3 3 3 3 3 3 3 3 3 3 3 3 3 3 3 3 3 3 3 3 3 3 3 3 3 3 3 3 3 3 3 3 3 3 3 3 3 3 3 3 3 3 3 3 3 3 3 3 3 3 3 3 3 3 3 3 3 3 3 3 3 3 3 3 3 3 3 3 3 3 3 3 3 3 3 3 3 3 3 3 3 3 3 3 3 3 3 3 3 3 3 3 3 3 3 3 3 3 3 3 3 3 3 3 3 3 3 3 3 3 3 3 3 3 3 3 3 3 3 3 3 3 3 3 3 3 3 3 3 3 3 3 3 3 3 3 3 3 3 3 3 3 3 3 3 3 3 3 3 3 3 3 3 3 </DataArray>
</Cells>
<PointData  Vectors="(s, w)"> 
<DataArray  type="Float64"  Name="(s, w)"  NumberOfComponents="3" format="ascii">2.3416769577795997e+00 0.0000000000000000e+00 0.0000000000000000e+00  2.3639325200685803e+00 3.2244815180152125e-01 0.0000000000000000e+00  2.3509842597124697e+00 2.8091785206305597e-01 0.0000000000000000e+00  2.3592312024497000e+00 4.9212267759942657e-01 0.0000000000000000e+00  2.3433634889960011e+00 7.9779598262297535e-01 0.0000000000000000e+00  2.3674531393354274e+00 1.0221459231952454e+00 0.0000000000000000e+00  2.3461024590477515e+00 9.0478136992131342e-01 0.0000000000000000e+00  2.3578951478523580e+00 1.3806447514469939e+00 0.0000000000000000e+00  2.3480290624449851e+00 1.5282233095955533e+00 0.0000000000000000e+00  2.3657222647091531e+00 1.6378870824951410e+00 0.0000000000000000e+00  2.3434872374228934e+00 1.6930019084917045e+00 0.0000000000000000e+00  2.3581072893749662e+00 2.2036142140270139e+00 0.0000000000000000e+00  2.3541449004343149e+00 2.2094485156195200e+00 0.0000000000000000e+00  2.3553562522394365e+00 2.2290596097890831e+00 0.0000000000000000e+00  2.3503851558629387e+00 2.6947648204173240e+00 0.0000000000000000e+00  2.3507696809395102e+00 2.7725048018162521e+00 0.0000000000000000e+00  2.3650816967478652e+00 2.9967291893063135e+00 0.0000000000000000e+00  2.3359178486968877e+00 2.7917052760018275e+00 0.0000000000000000e+00  2.3716307286046523e+00 3.8494385907195037e+00 0.0000000000000000e+00  2.3288947172760692e+00 2.9850654051384482e+00 0.0000000000000000e+00  2.3873692508171276e+00 4.1147294710600928e+00 0.0000000000000000e+00  2.3064842987049374e+00 3.2400699128686874e+00 0.0000000000000000e+00  2.4035122900829866e+00 5.0349363926181212e+00 0.0000000000000000e+00  2.2951078886991034e+00 3.0026359037790820e+00 0.0000000000000000e+00  2.4191400188772194e+00 5.5715953201771837e+00 0.0000000000000000e+00  2.2723931767705103e+00 3.4890122858735326e+00 0.0000000000000000e+00  2.4351523124990782e+00 6.0995162760542971e+00 0.0000000000000000e+00  2.2658726361376109e+00 3.2525846559577900e+00 0.0000000000000000e+00  2.4395143166475903e+00 6.9222858780144874e+00 0.0000000000000000e+00  2.2543161694428182e+00 3.7726174479302630e+00 0.0000000000000000e+00  2.4452893716828532e+00 6.8600865674923908e+00 0.0000000000000000e+00  2.2665986302334824e+00 4.2310145144445990e+00 0.0000000000000000e+00  2.4167483170299864e+00 7.4217533720147673e+00 0.0000000000000000e+00  2.2859480882024892e+00 4.7475325527462191e+00 0.0000000000000000e+00  2.4050830923898538e+00 6.9803206304230665e+00 0.0000000000000000e+00  2.3183279572304860e+00 6.1591501252182841e+00 0.0000000000000000e+00  2.3370843339696390e+00 6.6655617475343432e+00 0.0000000000000000e+00  2.3839021752853422e+00 6.9860340183892413e+00 0.0000000000000000e+00  2.2962265173639107e+00 6.0899631339174078e+00 0.0000000000000000e+00  2.4221390202936979e+00 8.8574728884293528e+00 0.0000000000000000e+00  2.2219602327753547e+00 5.0436817973018666e+00 0.0000000000000000e+00  2.5181506896997075e+00 1.0116798468906655e+01 0.0000000000000000e+00  2.1523088077486734e+00 4.5376480442051452e+00 0.0000000000000000e+00  2.5356711312502815e+00 1.1564931503787227e+01 0.0000000000000000e+00  2.1290882080569409e+00 3.7845788956958328e+00 0.0000000000000000e+00  2.6031983679961876e+00 1.2604285735797820e+01 0.0000000000000000e+00  2.0685631011085435e+00 3.8858086103655238e+00 0.0000000000000000e+00  2.5845601221376233e+00 1.3046871549208683e+01 0.0000000000000000e+00  2.1242895915727935e+00 4.2666840418309633e+00 0.0000000000000000e+00  2.5569614464923691e+00 1.2869677839274040e+01 0.0000000000000000e+00  2.1303631539074890e+00 5.8091900248334793e+00 0.0000000000000000e+00  2.5010587677062133e+00 1.2132871719048785e+01 0.0000000000000000e+00  2.2473370805349018e+00 7.3002378300435051e+00 0.0000000000000000e+00  2.3759813869552309e+00 1.0562040126035029e+01 0.0000000000000000e+00  2.3265658113351861e+00 1.0209404513520704e+01 0.0000000000000000e+00  2.2947167178001595e+00 8.8783757925823075e+00 0.0000000000000000e+00  2.4565093181324511e+00 1.2086438923703287e+01 0.0000000000000000e+00  2.1573713478493386e+00 7.3061823192822510e+00 0.0000000000000000e+00  2.5287277641591421e+00 1.4722787117835491e+01 0.0000000000000000e+00  2.0996180453890214e+00 5.6640114019816989e+00 0.0000000000000000e+00  2.6128721625036917e+00 1.5929467861134691e+01 0.0000000000000000e+00  2.0394129721813541e+00 5.8378376743875311e+00 0.0000000000000000e+00  2.5863932316135543e+00 1.6585602943936067e+01 0.0000000000000000e+00  2.0731832606039164e+00 5.7254420768818912e+00 0.0000000000000000e+00  2.5798874708159678e+00 1.6214823681553817e+01 0.0000000000000000e+00  2.1025134837190347e+00 7.8698369563630104e+00 0.0000000000000000e+00  2.4519757924518744e+00 1.4785830930485519e+01 0.0000000000000000e+00  2.2416067970847919e+00 9.7327768228993463e+00 0.0000000000000000e+00  2.3588657857519855e+00 1.2808096636087031e+01 0.0000000000000000e+00  2.2967491327671565e+00 1.2500600587748316e+01 0.0000000000000000e+00  2.2236286781013503e+00 1.1047489142374527e+01 0.0000000000000000e+00  2.4477080456969227e+00 1.4508659574698660e+01 0.0000000000000000e+00  2.1316509332310343e+00 9.0993598206278730e+00 0.0000000000000000e+00  2.4392338448793658e+00 1.6067754703405743e+01 0.0000000000000000e+00  2.0916655892227833e+00 9.1623928016181129e+00 0.0000000000000000e+00  2.4785723869550340e+00 1.5859797364479814e+01 0.0000000000000000e+00  2.1094611751069925e+00 9.4391960614477899e+00 0.0000000000000000e+00  2.3635315343375041e+00 1.5317373481223052e+01 0.0000000000000000e+00  2.1732339968244316e+00 1.1558642697532235e+01 0.0000000000000000e+00  2.2813984273104020e+00 1.2703270852413313e+01 0.0000000000000000e+00  2.3031409850180227e+00 1.4035304969629307e+01 0.0000000000000000e+00  2.1092076667633610e+00 1.1055691370191026e+01 0.0000000000000000e+00  2.3682494264783198e+00 1.6148411907559815e+01 0.0000000000000000e+00  2.0429590352020988e+00 8.6631549999358537e+00 0.0000000000000000e+00  2.4671556947497835e+00 1.7990293402579606e+01 0.0000000000000000e+00  1.9339878565506159e+00 8.3265660026830641e+00 0.0000000000000000e+00  2.4304995818210897e+00 1.7924021628379474e+01 0.0000000000000000e+00  2.0191061028260076e+00 8.9340207703000658e+00 0.0000000000000000e+00  2.3436565229288799e+00 1.6518470696861183e+01 0.0000000000000000e+00  2.0547028332038235e+00 1.1522311685244167e+01 0.0000000000000000e+00  2.2244208824140661e+00 1.4063146513768563e+01 0.0000000000000000e+00  2.2440388798560966e+00 1.4365629231199701e+01 0.0000000000000000e+00  1.9982758386797379e+00 1.0947237767657183e+01 0.0000000000000000e+00  2.3627986323861321e+00 1.7863375593892840e+01 0.0000000000000000e+00  1.8879513156191521e+00 7.4184639069479559e+00 0.0000000000000000e+00  2.4809857586587540e+00 2.0719929887871970e+01 0.0000000000000000e+00  1.7504261584284411e+00 6.6906937054326914e+00 0.0000000000000000e+00  2.5333602692158488e+00 2.0457973494546962e+01 0.0000000000000000e+00  1.7258539142279297e+00 7.2117165346455945e+00 0.0000000000000000e+00  2.4774551627059691e+00 2.0413895990883915e+01 0.0000000000000000e+00  1.7544739310097839e+00 7.1283409575793142e+00 0.0000000000000000e+00  2.3524010857908166e+00 1.8589864001134782e+01 0.0000000000000000e+00  2.0088780357419385e+00 1.2293103725955772e+01 0.0000000000000000e+00  2.0630267372101825e+00 1.3202318351346003e+01 0.0000000000000000e+00  2.1921451239715908e+00 1.5929011804614719e+01 0.0000000000000000e+00  2.0058016021434559e+00 1.2081059737147509e+01 0.0000000000000000e+00  2.2547611560325365e+00 1.7104315792566243e+01 0.0000000000000000e+00  1.7727720169190400e+00 7.5064296526070464e+00 0.0000000000000000e+00  2.5755925415007699e+00 2.3253697836930513e+01 0.0000000000000000e+00  1.5597768650934281e+00 3.1277021508609422e+00 0.0000000000000000e+00  2.5377534950068101e+00 2.2769838507586957e+01 0.0000000000000000e+00  1.7421358360082049e+00 6.9846250940527472e+00 0.0000000000000000e+00  2.4668547611649938e+00 2.1434871844423220e+01 0.0000000000000000e+00  1.6072163486818891e+00 4.3646722910814901e+00 0.0000000000000000e+00  2.6380319321590293e+00 2.4436134919674952e+01 0.0000000000000000e+00  1.6643511904228971e+00 5.5523118924301613e+00 0.0000000000000000e+00  2.2739436844447849e+00 1.7607764748964954e+01 0.0000000000000000e+00  2.0793811643793245e+00 1.3884728766658588e+01 0.0000000000000000e+00  2.0858201439731840e+00 1.4258088387853761e+01 0.0000000000000000e+00  1.9920284739615715e+00 1.2101723222881450e+01 0.0000000000000000e+00  2.1188406153722918e+00 1.4860911092834204e+01 0.0000000000000000e+00  2.3179665538400687e+00 1.8516283291203756e+01 0.0000000000000000e+00  1.5526268850201745e+00 3.1509246862784384e+00 0.0000000000000000e+00  2.6881457404133493e+00 2.5807675614823086e+01 0.0000000000000000e+00  1.6470252133177345e+00 5.3015509473396589e+00 0.0000000000000000e+00  2.3538845742691072e+00 1.9729526894609041e+01 0.0000000000000000e+00  1.6672563605857584e+00 6.2927748563714676e+00 0.0000000000000000e+00  2.7722611475355579e+00 2.6895002696474901e+01 0.0000000000000000e+00  1.2910195290490480e+00 -1.4771550083486438e+00 0.0000000000000000e+00  2.5483669086163494e+00 2.2849430855553983e+01 0.0000000000000000e+00  2.0285204655172300e+00 1.3206064085458417e+01 0.0000000000000000e+00  1.9672862701451173e+00 1.2772985490750628e+01 0.0000000000000000e+00  1.9210643518589638e+00 1.0941421888374286e+01 0.0000000000000000e+00  2.3527015213266398e+00 2.0009575845640555e+01 0.0000000000000000e+00  2.0625496277461166e+00 1.4157928432924647e+01 0.0000000000000000e+00  1.5826776917991232e+00 3.6789143023539643e+00 0.0000000000000000e+00  2.7374549025935524e+00 2.7423144920790886e+01 0.0000000000000000e+00  1.6966997295096922e+00 6.5618896070163464e+00 0.0000000000000000e+00  2.0626949991771273e+00 1.4340058427253993e+01 0.0000000000000000e+00  1.9326604619359975e+00 1.2661906788228277e+01 0.0000000000000000e+00  2.5792870634820648e+00 2.3528045503998303e+01 0.0000000000000000e+00  1.3893790985753753e+00 1.1740207088412264e+00 0.0000000000000000e+00  2.2397969453135071e+00 1.7671566369383765e+01 0.0000000000000000e+00  2.4400765975052767e+00 2.1002517216451164e+01 0.0000000000000000e+00  1.5858882019428209e+00 5.9267205085037480e+00 0.0000000000000000e+00  2.0589091757718210e+00 1.4183039445285036e+01 0.0000000000000000e+00  2.2451034997431538e+00 1.8126899388997291e+01 0.0000000000000000e+00  2.2555271638092931e+00 1.8860115570044062e+01 0.0000000000000000e+00  1.2658509357025951e+00 -2.3506032094883640e+00 0.0000000000000000e+00  2.8629653338831060e+00 2.9421392182671507e+01 0.0000000000000000e+00  1.7845765782523102e+00 9.4634241924978735e+00 0.0000000000000000e+00  1.8554017377288234e+00 1.0388931037957640e+01 0.0000000000000000e+00  1.9278656134625323e+00 1.2984671642252156e+01 0.0000000000000000e+00  2.5416940114607200e+00 2.4029852112460190e+01 0.0000000000000000e+00  1.6912837978113275e+00 6.6802338319234869e+00 0.0000000000000000e+00  1.5953523028244454e+00 5.8936481248359822e+00 0.0000000000000000e+00  2.9635969439476590e+00 3.1065196927296494e+01 0.0000000000000000e+00  1.4360579569894651e+00 2.0193458961164135e+00 0.0000000000000000e+00  1.9780801749251542e+00 1.4431337300119065e+01 0.0000000000000000e+00  2.0338991160618747e+00 1.4908485813598743e+01 0.0000000000000000e+00  2.6228585449055912e+00 2.5332524098338723e+01 0.0000000000000000e+00  1.1323427380911231e+00 -3.0282541372819884e+00 0.0000000000000000e+00  2.2784575290160918e+00 1.7328672773832182e+01 0.0000000000000000e+00  2.6011133568907963e+00 2.5662441002652493e+01 0.0000000000000000e+00  1.3439955246939039e+00 1.3289733210027950e+00 0.0000000000000000e+00  2.0112823129255215e+00 1.3621999772444589e+01 0.0000000000000000e+00  2.1686497121900992e+00 1.9480728107244698e+01 0.0000000000000000e+00  2.4901241872739819e+00 2.1454324155301865e+01 0.0000000000000000e+00  8.6423890847168194e-01 -4.0107339403420035e+00 0.0000000000000000e+00  3.6969833439663904e+00 1.4191416509080428e+01 0.0000000000000000e+00  3.5394197559932450e+00 -1.1868017174658418e+01 0.0000000000000000e+00  7.8656733074898377e-01 -1.9996271531587813e+00 0.0000000000000000e+00  3.3273232772174772e+00 3.5178025009704882e+01 0.0000000000000000e+00  1.8855326483670034e+00 8.9444632862638918e-01 0.0000000000000000e+00  1.8383701935713768e+00 -7.7918888969006639e-01 0.0000000000000000e+00  4.3649004117266239e+00 2.0722743250531712e+00 0.0000000000000000e+00  2.6287255254976110e+00 1.1152576546881054e+00 0.0000000000000000e+00  3.2543722581890893e+00 -2.5502356768966013e+01 0.0000000000000000e+00  3.6111722006416134e+00 1.7163352189789883e+01 0.0000000000000000e+00  3.2243547825922669e+00 -2.3528231144993722e+01 0.0000000000000000e+00  2.5358700481661782e+00 7.2423227984786420e-01 0.0000000000000000e+00  1.2784205964679123e+00 3.7390838628962747e+01 0.0000000000000000e+00  3.1290080402221165e+00 -5.5704754828791403e+00 0.0000000000000000e+00  3.1111888592548733e+00 1.6281274621138315e+00 0.0000000000000000e+00  3.6099207146282626e+00 1.0128216632372430e+01 0.0000000000000000e+00  3.4461927689409539e+00 -2.6514751550157726e+01 0.0000000000000000e+00  2.4399948020259310e+00 2.8245933945287106e+01 0.0000000000000000e+00  2.4065004193014374e+00 1.6197031879262404e+01 0.0000000000000000e+00  2.1071694053740879e+00 -2.9997141122684333e+01 0.0000000000000000e+00  2.8028364651093374e+00 1.5138241959687321e+01 0.0000000000000000e+00  3.6363587290689821e+00 1.0983343490383833e+01 0.0000000000000000e+00  2.1104256117567060e+00 -1.9215600508267883e+01 0.0000000000000000e+00  3.5696027583001291e+00 2.7142230228750449e+01 0.0000000000000000e+00  3.5430347028590767e+00 -1.5981477613646241e+01 0.0000000000000000e+00  2.1710327117514909e+00 -5.7374996074478295e+00 0.0000000000000000e+00  3.3112287716085675e+00 2.6278046500184747e+01 0.0000000000000000e+00  2.6913506417424449e+00 -1.7307431105392688e+01 0.0000000000000000e+00  2.7334798752198082e+00 -6.9196550562379251e+00 0.0000000000000000e+00  2.8379765991780692e+00 2.6139292554239681e+01 0.0000000000000000e+00  3.4567731551840666e+00 -2.6121273861498903e+01 0.0000000000000000e+00  2.5524158105765147e+00 0.0000000000000000e+00 0.0000000000000000e+00  </DataArray> 
</PointData> 
</Piece>
</UnstructuredGrid>
</VTKFile>