<?xml version="1.0"?>
<VTKFile type="UnstructuredGrid"  version="0.1"  >
<UnstructuredGrid>
<Piece  NumberOfPoints="201" NumberOfCells="200">
<Points>
<DataArray  type="Float64"  NumberOfComponents="3"  format="ascii">-5 0 0  -4.95 0 0  -4.9 0 0  -4.85 0 0  -4.8 0 0  -4.75 0 0  -4.7 0 0  -4.65 0 0  -4.6 0 0  -4.55 0 0  -4.5 0 0  -4.45 0 0  -4.4 0 0  -4.35 0 0  -4.3 0 0  -4.25 0 0  -4.2 0 0  -4.15 0 0  -4.1 0 0  -4.05 0 0  -4 0 0  -3.95 0 0  -3.9 0 0  -3.85 0 0  -3.8 0 0  -3.75 0 0  -3.7 0 0  -3.65 0 0  -3.6 0 0  -3.55 0 0  -3.5 0 0  -3.45 0 0  -3.4 0 0  -3.35 0 0  -3.3 0 0  -3.25 0 0  -3.2 0 0  -3.15 0 0  -3.1 0 0  -3.05 0 0  -3 0 0  -2.95 0 0  -2.9 0 0  -2.85 0 0  -2.8 0 0  -2.75 0 0  -2.7 0 0  -2.65 0 0  -2.6 0 0  -2.55 0 0  -2.5 0 0  -2.45 0 0  -2.4 0 0  -2.35 0 0  -2.3 0 0  -2.25 0 0  -2.2 0 0  -2.15 0 0  -2.1 0 0  -2.05 0 0  -2 0 0  -1.95 0 0  -1.9 0 0  -1.85 0 0  -1.8 0 0  -1.75 0 0  -1.7 0 0  -1.65 0 0  -1.6 0 0  -1.55 0 0  -1.5 0 0  -1.45 0 0  -1.4 0 0  -1.35 0 0  -1.3 0 0  -1.25 0 0  -1.2 0 0  -1.15 0 0  -1.1 0 0  -1.05 0 0  -1 0 0  -0.9500000000000002 0 0  -0.9000000000000004 0 0  -0.8499999999999996 0 0  -0.7999999999999998 0 0  -0.75 0 0  -0.7000000000000002 0 0  -0.6500000000000004 0 0  -0.5999999999999996 0 0  -0.5499999999999998 0 0  -0.5 0 0  -0.4500000000000002 0 0  -0.4000000000000004 0 0  -0.3499999999999996 0 0  -0.2999999999999998 0 0  -0.25 0 0  -0.2000000000000002 0 0  -0.1500000000000004 0 0  -0.09999999999999964 0 0  -0.04999999999999982 0 0  0 0 0  0.04999999999999982 0 0  0.09999999999999964 0 0  0.1500000000000004 0 0  0.2000000000000002 0 0  0.25 0 0  0.2999999999999998 0 0  0.3499999999999996 0 0  0.4000000000000004 0 0  0.4500000000000002 0 0  0.5 0 0  0.5499999999999998 0 0  0.5999999999999996 0 0  0.6500000000000004 0 0  0.7000000000000002 0 0  0.75 0 0  0.7999999999999998 0 0  0.8499999999999996 0 0  0.9000000000000004 0 0  0.9500000000000002 0 0  1 0 0  1.05 0 0  1.1 0 0  1.15 0 0  1.2 0 0  1.25 0 0  1.3 0 0  1.35 0 0  1.4 0 0  1.45 0 0  1.5 0 0  1.55 0 0  1.6 0 0  1.65 0 0  1.7 0 0  1.75 0 0  1.8 0 0  1.85 0 0  1.9 0 0  1.95 0 0  2 0 0  2.05 0 0  2.1 0 0  2.15 0 0  2.2 0 0  2.25 0 0  2.3 0 0  2.35 0 0  2.4 0 0  2.45 0 0  2.5 0 0  2.55 0 0  2.6 0 0  2.65 0 0  2.7 0 0  2.75 0 0  2.8 0 0  2.85 0 0  2.9 0 0  2.95 0 0  3 0 0  3.050000000000001 0 0  3.1 0 0  3.15 0 0  3.199999999999999 0 0  3.25 0 0  3.300000000000001 0 0  3.35 0 0  3.4 0 0  3.449999999999999 0 0  3.5 0 0  3.550000000000001 0 0  3.6 0 0  3.65 0 0  3.699999999999999 0 0  3.75 0 0  3.800000000000001 0 0  3.85 0 0  3.9 0 0  3.949999999999999 0 0  4 0 0  4.050000000000001 0 0  4.1 0 0  4.15 0 0  4.199999999999999 0 0  4.25 0 0  4.300000000000001 0 0  4.35 0 0  4.4 0 0  4.449999999999999 0 0  4.5 0 0  4.550000000000001 0 0  4.6 0 0  4.65 0 0  4.699999999999999 0 0  4.75 0 0  4.800000000000001 0 0  4.85 0 0  4.9 0 0  4.949999999999999 0 0  5 0 0  </DataArray>
</Points>
<Cells>
<DataArray  type="UInt32"  Name="connectivity"  format="ascii">0 1  1 2  2 3  3 4  4 5  5 6  6 7  7 8  8 9  9 10  10 11  11 12  12 13  13 14  14 15  15 16  16 17  17 18  18 19  19 20  20 21  21 22  22 23  23 24  24 25  25 26  26 27  27 28  28 29  29 30  30 31  31 32  32 33  33 34  34 35  35 36  36 37  37 38  38 39  39 40  40 41  41 42  42 43  43 44  44 45  45 46  46 47  47 48  48 49  49 50  50 51  51 52  52 53  53 54  54 55  55 56  56 57  57 58  58 59  59 60  60 61  61 62  62 63  63 64  64 65  65 66  66 67  67 68  68 69  69 70  70 71  71 72  72 73  73 74  74 75  75 76  76 77  77 78  78 79  79 80  80 81  81 82  82 83  83 84  84 85  85 86  86 87  87 88  88 89  89 90  90 91  91 92  92 93  93 94  94 95  95 96  96 97  97 98  98 99  99 100  100 101  101 102  102 103  103 104  104 105  105 106  106 107  107 108  108 109  109 110  110 111  111 112  112 113  113 114  114 115  115 116  116 117  117 118  118 119  119 120  120 121  121 122  122 123  123 124  124 125  125 126  126 127  127 128  128 129  129 130  130 131  131 132  132 133  133 134  134 135  135 136  136 137  137 138  138 139  139 140  140 141  141 142  142 143  143 144  144 145  145 146  146 147  147 148  148 149  149 150  150 151  151 152  152 153  153 154  154 155  155 156  156 157  157 158  158 159  159 160  160 161  161 162  162 163  163 164  164 165  165 166  166 167  167 168  168 169  169 170  170 171  171 172  172 173  173 174  174 175  175 176  176 177  177 178  178 179  179 180  180 181  181 182  182 183  183 184  184 185  185 186  186 187  187 188  188 189  189 190  190 191  191 192  192 193  193 194  194 195  195 196  196 197  197 198  198 199  199 200  </DataArray>
<DataArray  type="UInt32"  Name="offsets"  format="ascii">2 4 6 8 10 12 14 16 18 20 22 24 26 28 30 32 34 36 38 40 42 44 46 48 50 52 54 56 58 60 62 64 66 68 70 72 74 76 78 80 82 84 86 88 90 92 94 96 98 100 102 104 106 108 110 112 114 116 118 120 122 124 126 128 130 132 134 136 138 140 142 144 146 148 150 152 154 156 158 160 162 164 166 168 170 172 174 176 178 180 182 184 186 188 190 192 194 196 198 200 202 204 206 208 210 212 214 216 218 220 222 224 226 228 230 232 234 236 238 240 242 244 246 248 250 252 254 256 258 260 262 264 266 268 270 272 274 276 278 280 282 284 286 288 290 292 294 296 298 300 302 304 306 308 310 312 314 316 318 320 322 324 326 328 330 332 334 336 338 340 342 344 346 348 350 352 354 356 358 360 362 364 366 368 370 372 374 376 378 380 382 384 386 388 390 392 394 396 398 400 </DataArray>
<DataArray  type="UInt8"  Name="types"  format="ascii">3 3 3 3 3 3 3 3 3 3 3 3 3 3 3 3 3 3 3 3 3 3 3 3 3 3 3 3 3 3 3 3 3 3 3 3 3 3 3 3 3 3 3 3 3 3 3 3 3 3 3 3 3 3 3 3 3 3 3 3 3 3 3 3 3 3 3 3 3 3 3 3 3 3 3 3 3 3 3 3 3 3 3 3 3 3 3 3 3 3 3 3 3 3 3 3 3 3 3 3 3 3 3 3 3 3 3 3 3 3 3 3 3 3 3 3 3 3 3 3 3 3 3 3 3 3 3 3 3 3 3 3 3 3 3 3 3 3 3 3 3 3 3 3 3 3 3 3 3 3 3 3 3 3 3 3 3 3 3 3 3 3 3 3 3 3 3 3 3 3 3 3 3 3 3 3 3 3 3 3 3 3 3 3 3 3 3 3 3 3 3 3 3 3 3 3 3 3 3 3 </DataArray>
</Cells>
<PointData  Vectors="(s, w)"> 
<DataArray  type="Float64"  Name="(s, w)"  NumberOfComponents="3" format="ascii">3.1178693149041155e+00 0.0000000000000000e+00 0.0000000000000000e+00  3.2031717051521835e+00 -1.1406170648783732e-02 0.0000000000000000e+00  3.1289190351044862e+00 2.1400218663550762e-02 0.0000000000000000e+00  3.1829273388444852e+00 -3.6178987708787663e-02 0.0000000000000000e+00  3.1564817554817450e+00 4.3133504788805246e-02 0.0000000000000000e+00  3.1526679616697724e+00 -5.2691307295008531e-02 0.0000000000000000e+00  3.1865604828829648e+00 4.3468129179678662e-02 0.0000000000000000e+00  3.1276896763390738e+00 -2.6218863913012553e-02 0.0000000000000000e+00  3.2038420179548077e+00 -1.3372596904696747e-02 0.0000000000000000e+00  3.1205373897336814e+00 7.3605225807015437e-02 0.0000000000000000e+00  3.1997727683320298e+00 -1.3724335727671974e-01 0.0000000000000000e+00  3.1344211199063396e+00 2.2219682762241941e-01 0.0000000000000000e+00  3.1772956332587188e+00 -2.7242412676463856e-01 0.0000000000000000e+00  3.1613741764738776e+00 3.2047246837014565e-01 0.0000000000000000e+00  3.1491862017599717e+00 -3.0390379721359079e-01 0.0000000000000000e+00  3.1866297122453902e+00 2.4673557803903848e-01 0.0000000000000000e+00  3.1304288453329954e+00 -1.3062123486000879e-01 0.0000000000000000e+00  3.1973248426656427e+00 -4.3017220231447856e-02 0.0000000000000000e+00  3.1291546734832982e+00 2.3230104063049667e-01 0.0000000000000000e+00  3.1903781129106297e+00 -4.4294802557328727e-01 0.0000000000000000e+00  3.1421042113938413e+00 6.0964935405168652e-01 0.0000000000000000e+00  3.1739961869718223e+00 -7.2357039588418559e-01 0.0000000000000000e+00  3.1578475610780163e+00 7.4849768047127418e-01 0.0000000000000000e+00  3.1609874543765470e+00 -6.6880481538984604e-01 0.0000000000000000e+00  3.1658692106085105e+00 4.9833329843663587e-01 0.0000000000000000e+00  3.1582761419103837e+00 -2.4770492052469281e-01 0.0000000000000000e+00  3.1649258212891702e+00 -4.3800223561711732e-02 0.0000000000000000e+00  3.1612982402946384e+00 3.2210806863811908e-01 0.0000000000000000e+00  3.1635053709761483e+00 -5.6487739949985094e-01 0.0000000000000000e+00  3.1590366367563987e+00 7.0725138687220623e-01 0.0000000000000000e+00  3.1710421580958110e+00 -7.5984406237732127e-01 0.0000000000000000e+00  3.1459938389760183e+00 7.0867365001082039e-01 0.0000000000000000e+00  3.1870560691665237e+00 -5.8006428775137164e-01 0.0000000000000000e+00  3.1298073892627358e+00 4.2520721094499986e-01 0.0000000000000000e+00  3.1990704101138423e+00 -2.6854066724991160e-01 0.0000000000000000e+00  3.1256436574078443e+00 1.6168486196615758e-01 0.0000000000000000e+00  3.1936127892557464e+00 -1.1665152589291339e-01 0.0000000000000000e+00  3.1410094499198973e+00 1.2443332180787582e-01 0.0000000000000000e+00  3.1708519613027146e+00 -1.6396681472805152e-01 0.0000000000000000e+00  3.1661288918803341e+00 2.0234521413500656e-01 0.0000000000000000e+00  3.1463746311008811e+00 -1.5212867049301443e-01 0.0000000000000000e+00  3.1817141975374894e+00 1.1165897710933297e-01 0.0000000000000000e+00  3.1347029348907389e+00 1.8777280038581451e-01 0.0000000000000000e+00  3.1779098934714751e+00 -2.0831246644865950e-01 0.0000000000000000e+00  3.1307624735642730e+00 8.0896291963580402e-01 0.0000000000000000e+00  3.1635257108996799e+00 -4.1146365390897210e-01 0.0000000000000000e+00  3.1133928179026742e+00 1.3907769310984495e+00 0.0000000000000000e+00  3.1526850168700222e+00 -9.1334626620368412e-02 0.0000000000000000e+00  3.0724173349453250e+00 1.7592020414701062e+00 0.0000000000000000e+00  3.1423965034111503e+00 6.7121432298291506e-01 0.0000000000000000e+00  3.0260698171250038e+00 2.1788832716675470e+00 0.0000000000000000e+00  3.1130425229303809e+00 1.3579183730489979e+00 0.0000000000000000e+00  2.9970359761623531e+00 2.9741149253464347e+00 0.0000000000000000e+00  3.0613336058861500e+00 1.7855739036514633e+00 0.0000000000000000e+00  2.9749720735990581e+00 3.8736026719524319e+00 0.0000000000000000e+00  3.0147604471873466e+00 2.4288139265843123e+00 0.0000000000000000e+00  2.9335640196433945e+00 4.3439824116822203e+00 0.0000000000000000e+00  2.9864029949385027e+00 3.4945498043732179e+00 0.0000000000000000e+00  2.8847129309857316e+00 4.6241900965766902e+00 0.0000000000000000e+00  2.9465884519605590e+00 4.3499157329341491e+00 0.0000000000000000e+00  2.8598921199862231e+00 5.3494315062291289e+00 0.0000000000000000e+00  2.8846131812267486e+00 4.7584764799365882e+00 0.0000000000000000e+00  2.8395374194526606e+00 6.1514658348614946e+00 0.0000000000000000e+00  2.8398665924949413e+00 5.4838068262457567e+00 0.0000000000000000e+00  2.7907396494976888e+00 6.3948481828856840e+00 0.0000000000000000e+00  2.8138212538643148e+00 6.5339924878921050e+00 0.0000000000000000e+00  2.7477556633090074e+00 6.7635216288326179e+00 0.0000000000000000e+00  2.7609530890543059e+00 6.9978084199843940e+00 0.0000000000000000e+00  2.7317602872997631e+00 7.6774823379578203e+00 0.0000000000000000e+00  2.7044818543283715e+00 7.3384359239989845e+00 0.0000000000000000e+00  2.6906790566231957e+00 8.1051222581040125e+00 0.0000000000000000e+00  2.6825679383801164e+00 8.3111846393277364e+00 0.0000000000000000e+00  2.6353910145215078e+00 8.2599942921063487e+00 0.0000000000000000e+00  2.6410473399667933e+00 8.8450697559084883e+00 0.0000000000000000e+00  2.6170168318592646e+00 9.1462881537953731e+00 0.0000000000000000e+00  2.5804323387363577e+00 8.9612989732301003e+00 0.0000000000000000e+00  2.5798243431539825e+00 9.6524035377220692e+00 0.0000000000000000e+00  2.5609877431951533e+00 9.8573076806040572e+00 0.0000000000000000e+00  2.5193259700118276e+00 9.6888542711214996e+00 0.0000000000000000e+00  2.5223566401558948e+00 1.0339468469371919e+01 0.0000000000000000e+00  2.5029723887099511e+00 1.0584985625673404e+01 0.0000000000000000e+00  2.4607947769550345e+00 1.0342959508286068e+01 0.0000000000000000e+00  2.4622586880898432e+00 1.0978336884929995e+01 0.0000000000000000e+00  2.4473128875000927e+00 1.1273715908636685e+01 0.0000000000000000e+00  2.4017896287479177e+00 1.0964127051674595e+01 0.0000000000000000e+00  2.4024890872829077e+00 1.1557841978991535e+01 0.0000000000000000e+00  2.3907947912399674e+00 1.1908190455570807e+01 0.0000000000000000e+00  2.3444388464180714e+00 1.1560928195129994e+01 0.0000000000000000e+00  2.3437803945775570e+00 1.2114513863453617e+01 0.0000000000000000e+00  2.3311633978148882e+00 1.2426622267075702e+01 0.0000000000000000e+00  2.2886962816230922e+00 1.2140322882537488e+01 0.0000000000000000e+00  2.2911823350023268e+00 1.2736522072303535e+01 0.0000000000000000e+00  2.2633116381977465e+00 1.2728315149772895e+01 0.0000000000000000e+00  2.2334392203598199e+00 1.2668287886658181e+01 0.0000000000000000e+00  2.2527097894750345e+00 1.3580829875598280e+01 0.0000000000000000e+00  2.1836164388879755e+00 1.2734400185763441e+01 0.0000000000000000e+00  2.1707358005676065e+00 1.2988682059200148e+01 0.0000000000000000e+00  2.2389020962821626e+00 1.4852449387132674e+01 0.0000000000000000e+00  2.0939849570742428e+00 1.2524472070485738e+01 0.0000000000000000e+00  2.0811263877252122e+00 1.2814124256702682e+01 0.0000000000000000e+00  2.2322467685538476e+00 1.6726555469535342e+01 0.0000000000000000e+00  2.0221522022573160e+00 1.2503489875033926e+01 0.0000000000000000e+00  1.9603746298552411e+00 1.1763830284749202e+01 0.0000000000000000e+00  2.2995482841084542e+00 1.8107394353077055e+01 0.0000000000000000e+00  2.0336902583049854e+00 1.3145581564853684e+01 0.0000000000000000e+00  1.8657353001913684e+00 9.7263292757322475e+00 0.0000000000000000e+00  2.3127698713918492e+00 1.8889913827695654e+01 0.0000000000000000e+00  2.1193485398553613e+00 1.4945211196559304e+01 0.0000000000000000e+00  1.7416117346399562e+00 7.7804019912649025e+00 0.0000000000000000e+00  2.2684079907938912e+00 1.8100513718585617e+01 0.0000000000000000e+00  2.2530028218498388e+00 1.7944149652047756e+01 0.0000000000000000e+00  1.6732957968571538e+00 6.5870681266477051e+00 0.0000000000000000e+00  2.1189963370343334e+00 1.5427004598028077e+01 0.0000000000000000e+00  2.4171671116604627e+00 2.1322478911299914e+01 0.0000000000000000e+00  1.6922651581881469e+00 7.2828696234521910e+00 0.0000000000000000e+00  1.8857903132302305e+00 1.0920617878312212e+01 0.0000000000000000e+00  2.5244627849111989e+00 2.3809710727414064e+01 0.0000000000000000e+00  1.8616565535698371e+00 1.0630167818656673e+01 0.0000000000000000e+00  1.6073762068186095e+00 5.8826823693766368e+00 0.0000000000000000e+00  2.4783122889137492e+00 2.3035885190295101e+01 0.0000000000000000e+00  2.1792217427713485e+00 1.7029644536847840e+01 0.0000000000000000e+00  1.4249547116006391e+00 2.7771713895193550e+00 0.0000000000000000e+00  2.1617641607291658e+00 1.6852692064713509e+01 0.0000000000000000e+00  2.5515534911753530e+00 2.4740364375717704e+01 0.0000000000000000e+00  1.5255648546539835e+00 4.9718864794883011e+00 0.0000000000000000e+00  1.6348438427806411e+00 6.8277265096494109e+00 0.0000000000000000e+00  2.6610380472225850e+00 2.7457080372546777e+01 0.0000000000000000e+00  2.0281496130865597e+00 1.4349663548404070e+01 0.0000000000000000e+00  1.2353287071192289e+00 3.1160449977117038e-01 0.0000000000000000e+00  2.1801390554670834e+00 1.7489622451998450e+01 0.0000000000000000e+00  2.6567040925133321e+00 2.7521122268145813e+01 0.0000000000000000e+00  1.4588373097887897e+00 4.2230629511804940e+00 0.0000000000000000e+00  1.3713688971397304e+00 2.7450181281096611e+00 0.0000000000000000e+00  2.6233870234110519e+00 2.7012491711311537e+01 0.0000000000000000e+00  2.3147981979645582e+00 2.0261138375036005e+01 0.0000000000000000e+00  1.1299082127854156e+00 -5.9872809188042186e-01 0.0000000000000000e+00  1.6574072690114972e+00 7.6438146897283099e+00 0.0000000000000000e+00  2.8143141069234692e+00 3.1571928672160080e+01 0.0000000000000000e+00  1.9611906613796106e+00 1.3147480864428760e+01 0.0000000000000000e+00  1.0075881265713322e+00 -1.8821778308529871e+00 0.0000000000000000e+00  1.8830649537424824e+00 1.1674965246881129e+01 0.0000000000000000e+00  2.8481076856201879e+00 3.2543757816499010e+01 0.0000000000000000e+00  1.7421856697356879e+00 9.0149980681254416e+00 0.0000000000000000e+00  9.7715479153908591e-01 -1.9934113588839266e+00 0.0000000000000000e+00  2.0015997315492036e+00 1.3864971119921568e+01 0.0000000000000000e+00  2.8363616679049279e+00 3.2304917593516649e+01 0.0000000000000000e+00  1.6359452297641843e+00 7.1855293182860258e+00 0.0000000000000000e+00  1.0105380969548596e+00 -1.6946158628847159e+00 0.0000000000000000e+00  2.1499225809992075e+00 1.6820846864273598e+01 0.0000000000000000e+00  2.7723544511425691e+00 3.0872549131206107e+01 0.0000000000000000e+00  1.5166983230959799e+00 4.5935840819876432e+00 0.0000000000000000e+00  9.2995833050970333e-01 -7.7273514530702636e-01 0.0000000000000000e+00  1.0087714901905542e+00 1.7371239147419809e-01 0.0000000000000000e+00  1.0006278719716430e+00 -4.5778874622790545e-02 0.0000000000000000e+00  9.9839340263865217e-01 1.7762539099920701e-02 0.0000000000000000e+00  1.0014715515618020e+00 -1.0623389801586260e-02 0.0000000000000000e+00  9.9875102440663055e-01 8.0842029954416531e-03 0.0000000000000000e+00  1.0010454836808598e+00 -6.5929367606867842e-03 0.0000000000000000e+00  9.9913779749797327e-01 5.4103008664827743e-03 0.0000000000000000e+00  1.0006984873171842e+00 -4.3752394729048554e-03 0.0000000000000000e+00  9.9944463629255675e-01 3.4792476998052203e-03 0.0000000000000000e+00  1.0004338217533801e+00 -2.7167305562116099e-03 0.0000000000000000e+00  9.9966670619858633e-01 2.0876992524716284e-03 0.0000000000000000e+00  1.0002521908669773e+00 -1.5793695211315372e-03 0.0000000000000000e+00  9.9981186341607842e-01 1.1783944688091492e-03 0.0000000000000000e+00  1.0001385242630001e+00 -8.6755384377036604e-04 0.0000000000000000e+00  9.9989925038668070e-01 6.3102712835935964e-04 0.0000000000000000e+00  1.0000724390321214e+00 -4.5368324486749426e-04 0.0000000000000000e+00  9.9994847810202514e-01 3.2269291501865630e-04 0.0000000000000000e+00  1.0000362715208120e+00 -2.2717002335827653e-04 0.0000000000000000e+00  9.9997471184468723e-01 1.5838389054284355e-04 0.0000000000000000e+00  1.0000174684823642e+00 -1.0940649018696613e-04 0.0000000000000000e+00  9.9998803913957279e-01 7.4912520290441688e-05 0.0000000000000000e+00  1.0000081209937459e+00 -5.0862580735160016e-05 0.0000000000000000e+00  9.9999453049528131e-01 3.4256192014459310e-05 0.0000000000000000e+00  1.0000036552823348e+00 -2.2893424539630693e-05 0.0000000000000000e+00  9.9999757530278788e-01 1.5186167170617567e-05 0.0000000000000000e+00  1.0000015969029570e+00 -1.0001580663004700e-05 0.0000000000000000e+00  9.9999895553112317e-01 6.5416300174388843e-06 0.0000000000000000e+00  1.0000006785982405e+00 -4.2501374064503019e-06 0.0000000000000000e+00  9.9999956194628492e-01 2.7435808386186153e-06 0.0000000000000000e+00  1.0000002810157105e+00 -1.7600333405905485e-06 0.0000000000000000e+00  9.9999982081240768e-01 1.1222724126060234e-06 0.0000000000000000e+00  1.0000001135899517e+00 -7.1142680330280582e-07 0.0000000000000000e+00  9.9999992840173924e-01 4.4842806638241036e-07 0.0000000000000000e+00  1.0000000448815038e+00 -2.8109791034438712e-07 0.0000000000000000e+00  9.9999997201646129e-01 1.7526399364591575e-07 0.0000000000000000e+00  1.0000000173569230e+00 -1.0870819356940658e-07 0.0000000000000000e+00  9.9999998928877321e-01 6.7085279508119820e-08 0.0000000000000000e+00  1.0000000065775059e+00 -4.1195027653281100e-08 0.0000000000000000e+00  9.9999999598026934e-01 2.5174903778436230e-08 0.0000000000000000e+00  1.0000000024451594e+00 -1.5312314397655760e-08 0.0000000000000000e+00  9.9999999851930543e-01 9.2702476563551244e-09 0.0000000000000000e+00  1.0000000008928704e+00 -5.5859868083214960e-09 0.0000000000000000e+00  9.9999999946356233e-01 3.3489949933632904e-09 0.0000000000000000e+00  1.0000000003215721e+00 -1.9952406029553013e-09 0.0000000000000000e+00  9.9999999980690535e-01 1.1767024223388132e-09 0.0000000000000000e+00  1.0000000001174238e+00 -6.7885611352158002e-10 0.0000000000000000e+00  9.9999999992554756e-01 3.6865867420836586e-10 0.0000000000000000e+00  1.0000000000526044e+00 -1.6155861045529698e-10 0.0000000000000000e+00  9.9999999995406841e-01 0.0000000000000000e+00 0.0000000000000000e+00  </DataArray> 
</PointData> 
</Piece>
</UnstructuredGrid>
</VTKFile>