<?xml version="1.0"?>
<VTKFile type="UnstructuredGrid"  version="0.1"  >
<UnstructuredGrid>
<Piece  NumberOfPoints="201" NumberOfCells="200">
<Points>
<DataArray  type="Float64"  NumberOfComponents="3"  format="ascii">-5 0 0  -4.95 0 0  -4.9 0 0  -4.85 0 0  -4.8 0 0  -4.75 0 0  -4.7 0 0  -4.65 0 0  -4.6 0 0  -4.55 0 0  -4.5 0 0  -4.45 0 0  -4.4 0 0  -4.35 0 0  -4.3 0 0  -4.25 0 0  -4.2 0 0  -4.15 0 0  -4.1 0 0  -4.05 0 0  -4 0 0  -3.95 0 0  -3.9 0 0  -3.85 0 0  -3.8 0 0  -3.75 0 0  -3.7 0 0  -3.65 0 0  -3.6 0 0  -3.55 0 0  -3.5 0 0  -3.45 0 0  -3.4 0 0  -3.35 0 0  -3.3 0 0  -3.25 0 0  -3.2 0 0  -3.15 0 0  -3.1 0 0  -3.05 0 0  -3 0 0  -2.95 0 0  -2.9 0 0  -2.85 0 0  -2.8 0 0  -2.75 0 0  -2.7 0 0  -2.65 0 0  -2.6 0 0  -2.55 0 0  -2.5 0 0  -2.45 0 0  -2.4 0 0  -2.35 0 0  -2.3 0 0  -2.25 0 0  -2.2 0 0  -2.15 0 0  -2.1 0 0  -2.05 0 0  -2 0 0  -1.95 0 0  -1.9 0 0  -1.85 0 0  -1.8 0 0  -1.75 0 0  -1.7 0 0  -1.65 0 0  -1.6 0 0  -1.55 0 0  -1.5 0 0  -1.45 0 0  -1.4 0 0  -1.35 0 0  -1.3 0 0  -1.25 0 0  -1.2 0 0  -1.15 0 0  -1.1 0 0  -1.05 0 0  -1 0 0  -0.9500000000000002 0 0  -0.9000000000000004 0 0  -0.8499999999999996 0 0  -0.7999999999999998 0 0  -0.75 0 0  -0.7000000000000002 0 0  -0.6500000000000004 0 0  -0.5999999999999996 0 0  -0.5499999999999998 0 0  -0.5 0 0  -0.4500000000000002 0 0  -0.4000000000000004 0 0  -0.3499999999999996 0 0  -0.2999999999999998 0 0  -0.25 0 0  -0.2000000000000002 0 0  -0.1500000000000004 0 0  -0.09999999999999964 0 0  -0.04999999999999982 0 0  0 0 0  0.04999999999999982 0 0  0.09999999999999964 0 0  0.1500000000000004 0 0  0.2000000000000002 0 0  0.25 0 0  0.2999999999999998 0 0  0.3499999999999996 0 0  0.4000000000000004 0 0  0.4500000000000002 0 0  0.5 0 0  0.5499999999999998 0 0  0.5999999999999996 0 0  0.6500000000000004 0 0  0.7000000000000002 0 0  0.75 0 0  0.7999999999999998 0 0  0.8499999999999996 0 0  0.9000000000000004 0 0  0.9500000000000002 0 0  1 0 0  1.05 0 0  1.1 0 0  1.15 0 0  1.2 0 0  1.25 0 0  1.3 0 0  1.35 0 0  1.4 0 0  1.45 0 0  1.5 0 0  1.55 0 0  1.6 0 0  1.65 0 0  1.7 0 0  1.75 0 0  1.8 0 0  1.85 0 0  1.9 0 0  1.95 0 0  2 0 0  2.05 0 0  2.1 0 0  2.15 0 0  2.2 0 0  2.25 0 0  2.3 0 0  2.35 0 0  2.4 0 0  2.45 0 0  2.5 0 0  2.55 0 0  2.6 0 0  2.65 0 0  2.7 0 0  2.75 0 0  2.8 0 0  2.85 0 0  2.9 0 0  2.95 0 0  3 0 0  3.050000000000001 0 0  3.1 0 0  3.15 0 0  3.199999999999999 0 0  3.25 0 0  3.300000000000001 0 0  3.35 0 0  3.4 0 0  3.449999999999999 0 0  3.5 0 0  3.550000000000001 0 0  3.6 0 0  3.65 0 0  3.699999999999999 0 0  3.75 0 0  3.800000000000001 0 0  3.85 0 0  3.9 0 0  3.949999999999999 0 0  4 0 0  4.050000000000001 0 0  4.1 0 0  4.15 0 0  4.199999999999999 0 0  4.25 0 0  4.300000000000001 0 0  4.35 0 0  4.4 0 0  4.449999999999999 0 0  4.5 0 0  4.550000000000001 0 0  4.6 0 0  4.65 0 0  4.699999999999999 0 0  4.75 0 0  4.800000000000001 0 0  4.85 0 0  4.9 0 0  4.949999999999999 0 0  5 0 0  </DataArray>
</Points>
<Cells>
<DataArray  type="UInt32"  Name="connectivity"  format="ascii">0 1  1 2  2 3  3 4  4 5  5 6  6 7  7 8  8 9  9 10  10 11  11 12  12 13  13 14  14 15  15 16  16 17  17 18  18 19  19 20  20 21  21 22  22 23  23 24  24 25  25 26  26 27  27 28  28 29  29 30  30 31  31 32  32 33  33 34  34 35  35 36  36 37  37 38  38 39  39 40  40 41  41 42  42 43  43 44  44 45  45 46  46 47  47 48  48 49  49 50  50 51  51 52  52 53  53 54  54 55  55 56  56 57  57 58  58 59  59 60  60 61  61 62  62 63  63 64  64 65  65 66  66 67  67 68  68 69  69 70  70 71  71 72  72 73  73 74  74 75  75 76  76 77  77 78  78 79  79 80  80 81  81 82  82 83  83 84  84 85  85 86  86 87  87 88  88 89  89 90  90 91  91 92  92 93  93 94  94 95  95 96  96 97  97 98  98 99  99 100  100 101  101 102  102 103  103 104  104 105  105 106  106 107  107 108  108 109  109 110  110 111  111 112  112 113  113 114  114 115  115 116  116 117  117 118  118 119  119 120  120 121  121 122  122 123  123 124  124 125  125 126  126 127  127 128  128 129  129 130  130 131  131 132  132 133  133 134  134 135  135 136  136 137  137 138  138 139  139 140  140 141  141 142  142 143  143 144  144 145  145 146  146 147  147 148  148 149  149 150  150 151  151 152  152 153  153 154  154 155  155 156  156 157  157 158  158 159  159 160  160 161  161 162  162 163  163 164  164 165  165 166  166 167  167 168  168 169  169 170  170 171  171 172  172 173  173 174  174 175  175 176  176 177  177 178  178 179  179 180  180 181  181 182  182 183  183 184  184 185  185 186  186 187  187 188  188 189  189 190  190 191  191 192  192 193  193 194  194 195  195 196  196 197  197 198  198 199  199 200  </DataArray>
<DataArray  type="UInt32"  Name="offsets"  format="ascii">2 4 6 8 10 12 14 16 18 20 22 24 26 28 30 32 34 36 38 40 42 44 46 48 50 52 54 56 58 60 62 64 66 68 70 72 74 76 78 80 82 84 86 88 90 92 94 96 98 100 102 104 106 108 110 112 114 116 118 120 122 124 126 128 130 132 134 136 138 140 142 144 146 148 150 152 154 156 158 160 162 164 166 168 170 172 174 176 178 180 182 184 186 188 190 192 194 196 198 200 202 204 206 208 210 212 214 216 218 220 222 224 226 228 230 232 234 236 238 240 242 244 246 248 250 252 254 256 258 260 262 264 266 268 270 272 274 276 278 280 282 284 286 288 290 292 294 296 298 300 302 304 306 308 310 312 314 316 318 320 322 324 326 328 330 332 334 336 338 340 342 344 346 348 350 352 354 356 358 360 362 364 366 368 370 372 374 376 378 380 382 384 386 388 390 392 394 396 398 400 </DataArray>
<DataArray  type="UInt8"  Name="types"  format="ascii">3 3 3 3 3 3 3 3 3 3 3 3 3 3 3 3 3 3 3 3 3 3 3 3 3 3 3 3 3 3 3 3 3 3 3 3 3 3 3 3 3 3 3 3 3 3 3 3 3 3 3 3 3 3 3 3 3 3 3 3 3 3 3 3 3 3 3 3 3 3 3 3 3 3 3 3 3 3 3 3 3 3 3 3 3 3 3 3 3 3 3 3 3 3 3 3 3 3 3 3 3 3 3 3 3 3 3 3 3 3 3 3 3 3 3 3 3 3 3 3 3 3 3 3 3 3 3 3 3 3 3 3 3 3 3 3 3 3 3 3 3 3 3 3 3 3 3 3 3 3 3 3 3 3 3 3 3 3 3 3 3 3 3 3 3 3 3 3 3 3 3 3 3 3 3 3 3 3 3 3 3 3 3 3 3 3 3 3 3 3 3 3 3 3 3 3 3 3 3 3 </DataArray>
</Cells>
<PointData  Vectors="(s, w)"> 
<DataArray  type="Float64"  Name="(s, w)"  NumberOfComponents="3" format="ascii">2.1047636347287813e+00 0.0000000000000000e+00 0.0000000000000000e+00  2.1108389701070305e+00 1.3280590181549254e-01 0.0000000000000000e+00  2.1047351107552386e+00 2.6744802426982361e-01 0.0000000000000000e+00  2.1107971385837518e+00 3.9839717233104410e-01 0.0000000000000000e+00  2.1046494001818679e+00 5.3487705554512799e-01 0.0000000000000000e+00  2.1107136351832820e+00 6.6392653377525535e-01 0.0000000000000000e+00  2.1045060836861493e+00 8.0226854613834531e-01 0.0000000000000000e+00  2.1105887853661338e+00 9.2935170097297848e-01 0.0000000000000000e+00  2.1043044523941572e+00 1.0696047978036640e+00 0.0000000000000000e+00  2.1104230902383811e+00 1.1946289457757875e+00 0.0000000000000000e+00  2.1040434973039619e+00 1.3368692714835382e+00 0.0000000000000000e+00  2.1102172346673340e+00 1.4597126926544799e+00 0.0000000000000000e+00  2.1037219039921324e+00 1.6040467250783954e+00 0.0000000000000000e+00  2.1099720847430432e+00 1.7245553372810587e+00 0.0000000000000000e+00  2.1033380635556074e+00 1.8711230650664925e+00 0.0000000000000000e+00  2.1096886612056234e+00 1.9891074232479846e+00 0.0000000000000000e+00  2.1028901156164710e+00 2.1380847509363239e+00 0.0000000000000000e+00  2.1093680702128714e+00 2.2533183614676298e+00 0.0000000000000000e+00  2.1023760447026176e+00 2.4049175401352616e+00 0.0000000000000000e+00  2.1090113673391824e+00 2.5171379251731536e+00 0.0000000000000000e+00  2.1017938564919425e+00 2.6716043181065401e+00 0.0000000000000000e+00  2.1086193263125299e+00 2.7805187837663223e+00 0.0000000000000000e+00  2.1011418634252057e+00 2.9381217447859957e+00 0.0000000000000000e+00  2.1081920831000440e+00 3.0434203236325637e+00 0.0000000000000000e+00  2.1004191070461697e+00 3.2044354981835310e+00 0.0000000000000000e+00  2.1077286321265243e+00 3.3058139056553908e+00 0.0000000000000000e+00  2.0996259329538725e+00 3.4704940489547793e+00 0.0000000000000000e+00  2.1072261692145382e+00 3.5676894836837363e+00 0.0000000000000000e+00  2.0987647086381993e+00 3.7362212005463245e+00 0.0000000000000000e+00  2.1066793099498433e+00 3.8290631173025278e+00 0.0000000000000000e+00  2.0978406305639776e+00 4.0015081074766563e+00 0.0000000000000000e+00  2.1060792656248890e+00 4.0899843436446419e+00 0.0000000000000000e+00  2.0968625035164186e+00 4.2662061316253839e+00 0.0000000000000000e+00  2.1054131302564629e+00 4.3505416694299317e+00 0.0000000000000000e+00  2.0958432975716246e+00 4.5301226358245374e+00 0.0000000000000000e+00  2.1046635119691781e+00 4.6108637356625080e+00 0.0000000000000000e+00  2.0948002112028643e+00 4.7930224686236187e+00 0.0000000000000000e+00  2.1038088095484886e+00 4.8711132321723660e+00 0.0000000000000000e+00  2.0937539205053683e+00 5.0546381730116696e+00 0.0000000000000000e+00  2.1028244569844223e+00 5.1314707368740349e+00 0.0000000000000000e+00  2.0927267132259457e+00 5.3146914755219443e+00 0.0000000000000000e+00  2.1016853932384514e+00 5.3921067029043019e+00 0.0000000000000000e+00  2.0917393350012223e+00 5.5729270017819976e+00 0.0000000000000000e+00  2.1003698213075945e+00 5.6531420981307541e+00 0.0000000000000000e+00  2.0908066445367304e+00 5.8291562119590967e+00 0.0000000000000000e+00  2.0988639819040076e+00 5.9146017058073799e+00 0.0000000000000000e+00  2.0899325790001568e+00 6.0833054511187310e+00 0.0000000000000000e+00  2.0971672126204273e+00 6.1763683078286631e+00 0.0000000000000000e+00  2.0891054039075585e+00 6.3354575943403404e+00 0.0000000000000000e+00  2.0952960946744761e+00 6.4381497457824572e+00 0.0000000000000000e+00  2.0882946210769773e+00 6.5858735795652592e+00 0.0000000000000000e+00  2.0932861844781594e+00 6.6994724960269600e+00 0.0000000000000000e+00  2.0874510307068714e+00 6.8349801821405274e+00 0.0000000000000000e+00  2.0911899096343305e+00 6.9597130798291289e+00 0.0000000000000000e+00  2.0865110830099716e+00 7.0833154888776892e+00 0.0000000000000000e+00  2.0890698642530503e+00 7.2181711806089366e+00 0.0000000000000000e+00  2.0854057030229067e+00 7.3314341518629824e+00 0.0000000000000000e+00  2.0869879900877932e+00 7.4741762150589199e+00 0.0000000000000000e+00  2.0840723381253192e+00 7.5797887060106284e+00 0.0000000000000000e+00  2.0849927184004771e+00 7.7272052021647548e+00 0.0000000000000000e+00  2.0824674638489022e+00 7.8286163051637132e+00 0.0000000000000000e+00  2.0831075004872326e+00 7.9769794060858521e+00 0.0000000000000000e+00  2.0805758386635711e+00 8.0778658039741273e+00 0.0000000000000000e+00  2.0813245404874032e+00 8.2235065812263919e+00 0.0000000000000000e+00  2.0784130869121324e+00 8.3271929790737751e+00 0.0000000000000000e+00  2.0796064255872175e+00 8.4670486220857040e+00 0.0000000000000000e+00  2.0760200056996454e+00 8.5760313329206461e+00 0.0000000000000000e+00  2.0778958049678380e+00 8.7080190727932276e+00 0.0000000000000000e+00  2.0734499018006738e+00 8.8237187359716724e+00 0.0000000000000000e+00  2.0761301986717031e+00 8.9468420957930466e+00 0.0000000000000000e+00  2.0707530721930372e+00 9.0696379606335658e+00 0.0000000000000000e+00  2.0742568779513055e+00 9.1838207429522907e+00 0.0000000000000000e+00  2.0679638189450142e+00 9.3133233651863829e+00 0.0000000000000000e+00  2.0722428119913121e+00 9.4190575219557733e+00 0.0000000000000000e+00  2.0650942977168931e+00 9.5545009379517118e+00 0.0000000000000000e+00  2.0700768834327756e+00 9.6524469158249122e+00 0.0000000000000000e+00  2.0621361984965856e+00 9.7930600814085373e+00 0.0000000000000000e+00  2.0677643756805311e+00 9.8837333242488441e+00 0.0000000000000000e+00  2.0590680322911772e+00 1.0028981985489331e+01 0.0000000000000000e+00  2.0653172256150620e+00 1.0112599372847674e+01 0.0000000000000000e+00  2.0558677433635699e+00 1.0262231518244009e+01 0.0000000000000000e+00  2.0627484462274350e+00 1.0338714444451755e+01 0.0000000000000000e+00  2.0525321690995351e+00 1.0492605867861862e+01 0.0000000000000000e+00  2.0600594139080495e+00 1.0561835404657367e+01 0.0000000000000000e+00  2.0490433167143487e+00 1.0720004752437829e+01 0.0000000000000000e+00  2.0571370397787345e+00 1.0782582007484745e+01 0.0000000000000000e+00  2.0454019685623761e+00 1.0944159761963578e+01 0.0000000000000000e+00  2.0541957298652274e+00 1.0999053820858540e+01 0.0000000000000000e+00  2.0423674081587913e+00 1.1159220094067090e+01 0.0000000000000000e+00  2.0508752615897596e+00 1.1213731493522662e+01 0.0000000000000000e+00  2.0376029790619072e+00 1.1382099223679207e+01 0.0000000000000000e+00  2.0453691462717187e+00 1.1439150261919490e+01 0.0000000000000000e+00  2.0396544918139261e+00 1.1551017569802273e+01 0.0000000000000000e+00  2.0463488519952993e+00 1.1613261920825499e+01 0.0000000000000000e+00  2.0294751365300794e+00 1.1801810524244246e+01 0.0000000000000000e+00  2.0243755076358636e+00 1.1941022353850510e+01 0.0000000000000000e+00  2.0456353800334446e+00 1.1863790382710990e+01 0.0000000000000000e+00  2.0388323985153161e+00 1.2012577268556246e+01 0.0000000000000000e+00  1.9850859317749479e+00 1.2436306196360601e+01 0.0000000000000000e+00  2.0473368170479960e+00 1.2119825329872048e+01 0.0000000000000000e+00  2.0074493373140072e+00 1.2453076510271787e+01 0.0000000000000000e+00  2.0228407421133916e+00 1.2441074236571295e+01 0.0000000000000000e+00  2.0154227717009650e+00 1.2557953014830705e+01 0.0000000000000000e+00  2.0144682335340049e+00 1.2648122773944381e+01 0.0000000000000000e+00  2.0109086190292227e+00 1.2736757732398933e+01 0.0000000000000000e+00  2.0089366625828871e+00 1.2829748832691980e+01 0.0000000000000000e+00  2.0053482092276536e+00 1.2915041993401573e+01 0.0000000000000000e+00  2.0034593930045510e+00 1.3003760915328474e+01 0.0000000000000000e+00  1.9996662133395899e+00 1.3086683573847417e+01 0.0000000000000000e+00  1.9974652704435902e+00 1.3173395263970074e+01 0.0000000000000000e+00  1.9940061191426062e+00 1.3250605688739549e+01 0.0000000000000000e+00  1.9911290057462860e+00 1.3337303650207737e+01 0.0000000000000000e+00  1.9879144349285982e+00 1.3409261001030393e+01 0.0000000000000000e+00  1.9848573330035832e+00 1.3492918577916248e+01 0.0000000000000000e+00  1.9813084168117470e+00 1.3562854720592211e+01 0.0000000000000000e+00  1.9783281367904748e+00 1.3641936652641851e+01 0.0000000000000000e+00  1.9746043431065343e+00 1.3708841970733488e+01 0.0000000000000000e+00  1.9713716586492180e+00 1.3785145770317337e+01 0.0000000000000000e+00  1.9676270014808390e+00 1.3848051331939210e+01 0.0000000000000000e+00  1.9642494015874139e+00 1.3921033425847465e+01 0.0000000000000000e+00  1.9603049992318173e+00 1.3980735295358013e+01 0.0000000000000000e+00  1.9568327374652592e+00 1.4050266498075567e+01 0.0000000000000000e+00  1.9527655323736048e+00 1.4106140520154291e+01 0.0000000000000000e+00  1.9491478364293811e+00 1.4172745181920055e+01 0.0000000000000000e+00  1.9449242944890037e+00 1.4224665405731777e+01 0.0000000000000000e+00  1.9412313071498359e+00 1.4288366118425708e+01 0.0000000000000000e+00  1.9368385600593085e+00 1.4336079902152010e+01 0.0000000000000000e+00  1.9330679564928572e+00 1.4397281154226190e+01 0.0000000000000000e+00  1.9285081231611483e+00 1.4440597689820510e+01 0.0000000000000000e+00  1.9246998918089064e+00 1.4499273980936112e+01 0.0000000000000000e+00  1.9199833497743304e+00 1.4538470787002758e+01 0.0000000000000000e+00  1.9161368462438786e+00 1.4594051717873029e+01 0.0000000000000000e+00  1.9113390690509118e+00 1.4630293853958651e+01 0.0000000000000000e+00  1.9074408563355731e+00 1.4680675106111350e+01 0.0000000000000000e+00  1.9027819963738308e+00 1.4716757688841485e+01 0.0000000000000000e+00  1.8987220686710737e+00 1.4757427666940380e+01 0.0000000000000000e+00  1.8948339873481188e+00 1.4798118550475829e+01 0.0000000000000000e+00  1.8911844474282213e+00 1.4817591075329579e+01 0.0000000000000000e+00  1.8894189229819836e+00 1.4869999979597159e+01 0.0000000000000000e+00  1.8895619803398656e+00 1.4840606048020744e+01 0.0000000000000000e+00  1.9019901618514419e+00 1.4874546160957367e+01 0.0000000000000000e+00  1.9121865545460115e+00 1.4749577179379019e+01 0.0000000000000000e+00  1.9260212474170633e+00 1.4834535039875073e+01 0.0000000000000000e+00  1.9244216926073541e+00 1.4684897314892977e+01 0.0000000000000000e+00  1.9336680180159860e+00 1.4865490341198635e+01 0.0000000000000000e+00  1.9262504607085280e+00 1.4661703695905242e+01 0.0000000000000000e+00  1.9366752755752901e+00 1.4902260418705980e+01 0.0000000000000000e+00  1.9278148151689651e+00 1.4663595766817114e+01 0.0000000000000000e+00  1.9370107166991353e+00 1.4896572595467926e+01 0.0000000000000000e+00  1.9321034899221055e+00 1.4734109486905563e+01 0.0000000000000000e+00  1.9327217161235331e+00 1.4781079988074920e+01 0.0000000000000000e+00  1.9410389637227121e+00 1.4963127978473421e+01 0.0000000000000000e+00  1.9255241559013445e+00 1.4422877962563746e+01 0.0000000000000000e+00  1.9426714298587373e+00 1.5548331049335305e+01 0.0000000000000000e+00  1.9595868833848753e+00 1.3441755221682861e+01 0.0000000000000000e+00  1.8150112100801321e+00 1.7172305490407350e+01 0.0000000000000000e+00  2.6548481224892790e+00 7.0650568310369710e+00 0.0000000000000000e+00  3.1741015427765555e+00 -2.5332471476709317e+00 0.0000000000000000e+00  2.9192253882178383e+00 2.5615582284290772e+00 0.0000000000000000e+00  3.1431378120527067e+00 -1.6996951374312146e+00 0.0000000000000000e+00  2.9940587600646333e+00 1.1252717815831652e+00 0.0000000000000000e+00  3.0833002001309877e+00 -5.6311763050125807e-01 0.0000000000000000e+00  3.0427773991025928e+00 1.9470773250075316e-01 0.0000000000000000e+00  3.0518646034575956e+00 4.2293242816794939e-02 0.0000000000000000e+00  3.0616299186548108e+00 -1.5809654860421693e-01 0.0000000000000000e+00  3.0441133200373418e+00 1.9797949518010752e-01 0.0000000000000000e+00  3.0630635126929118e+00 -1.7957769313390107e-01 0.0000000000000000e+00  3.0469268448048106e+00 1.4820844761555854e-01 0.0000000000000000e+00  3.0589219136433683e+00 -9.7320823352200478e-02 0.0000000000000000e+00  3.0514230651458072e+00 6.4388390641726717e-02 0.0000000000000000e+00  3.0552551186631876e+00 -2.5223414932925379e-02 0.0000000000000000e+00  3.0542458403976580e+00 1.1849916136334529e-02 0.0000000000000000e+00  3.0535299517831400e+00 9.1192901463712957e-03 0.0000000000000000e+00  3.0552399501291463e+00 -6.2760619060090164e-03 0.0000000000000000e+00  3.0532095780859430e+00 1.6093801596610068e-02 0.0000000000000000e+00  3.0552433928457825e+00 -5.8656193361119758e-03 0.0000000000000000e+00  3.0534541834228408e+00 1.1915722670535723e-02 0.0000000000000000e+00  3.0549709565595466e+00 -4.6938808755468469e-04 0.0000000000000000e+00  3.0537465917378559e+00 6.5672287010686862e-03 0.0000000000000000e+00  3.0547564003536269e+00 3.6017242760935826e-03 0.0000000000000000e+00  3.0539139511348030e+00 3.4214146923530202e-03 0.0000000000000000e+00  3.0546644112808590e+00 5.1703822278802939e-03 0.0000000000000000e+00  3.0539660608871642e+00 2.3410286052046865e-03 0.0000000000000000e+00  3.0546523373302241e+00 5.0918006041769217e-03 0.0000000000000000e+00  3.0539603626963454e+00 2.2588521478110503e-03 0.0000000000000000e+00  3.0546682394884086e+00 4.3863735703693757e-03 0.0000000000000000e+00  3.0539404677777271e+00 2.3649893982747518e-03 0.0000000000000000e+00  3.0546832125442647e+00 3.6291095805607359e-03 0.0000000000000000e+00  3.0539252389434002e+00 2.3184629247179683e-03 0.0000000000000000e+00  3.0546892359357378e+00 2.9911620199236273e-03 0.0000000000000000e+00  3.0539175968031484e+00 2.0796382041376360e-03 0.0000000000000000e+00  3.0546883592902172e+00 2.4482525678851514e-03 0.0000000000000000e+00  3.0539147178090480e+00 1.7169767092274804e-03 0.0000000000000000e+00  3.0546846747628535e+00 1.9351303757377495e-03 0.0000000000000000e+00  3.0539136662568338e+00 1.2996980945318140e-03 0.0000000000000000e+00  3.0546809790475646e+00 1.4093684468239733e-03 0.0000000000000000e+00  3.0539130038442108e+00 8.6684020594529447e-04 0.0000000000000000e+00  3.0546784178291246e+00 8.5861013039953415e-04 0.0000000000000000e+00  3.0539124714459343e+00 4.3279448299393127e-04 0.0000000000000000e+00  3.0546771791104379e+00 2.8850532234573370e-04 0.0000000000000000e+00  3.0539122546929769e+00 0.0000000000000000e+00 0.0000000000000000e+00  </DataArray> 
</PointData> 
</Piece>
</UnstructuredGrid>
</VTKFile>