<?xml version="1.0"?>
<VTKFile type="UnstructuredGrid"  version="0.1"  >
<UnstructuredGrid>
<Piece  NumberOfPoints="201" NumberOfCells="200">
<Points>
<DataArray  type="Float64"  NumberOfComponents="3"  format="ascii">-5 0 0  -4.95 0 0  -4.9 0 0  -4.85 0 0  -4.8 0 0  -4.75 0 0  -4.7 0 0  -4.65 0 0  -4.6 0 0  -4.55 0 0  -4.5 0 0  -4.45 0 0  -4.4 0 0  -4.35 0 0  -4.3 0 0  -4.25 0 0  -4.2 0 0  -4.15 0 0  -4.1 0 0  -4.05 0 0  -4 0 0  -3.95 0 0  -3.9 0 0  -3.85 0 0  -3.8 0 0  -3.75 0 0  -3.7 0 0  -3.65 0 0  -3.6 0 0  -3.55 0 0  -3.5 0 0  -3.45 0 0  -3.4 0 0  -3.35 0 0  -3.3 0 0  -3.25 0 0  -3.2 0 0  -3.15 0 0  -3.1 0 0  -3.05 0 0  -3 0 0  -2.95 0 0  -2.9 0 0  -2.85 0 0  -2.8 0 0  -2.75 0 0  -2.7 0 0  -2.65 0 0  -2.6 0 0  -2.55 0 0  -2.5 0 0  -2.45 0 0  -2.4 0 0  -2.35 0 0  -2.3 0 0  -2.25 0 0  -2.2 0 0  -2.15 0 0  -2.1 0 0  -2.05 0 0  -2 0 0  -1.95 0 0  -1.9 0 0  -1.85 0 0  -1.8 0 0  -1.75 0 0  -1.7 0 0  -1.65 0 0  -1.6 0 0  -1.55 0 0  -1.5 0 0  -1.45 0 0  -1.4 0 0  -1.35 0 0  -1.3 0 0  -1.25 0 0  -1.2 0 0  -1.15 0 0  -1.1 0 0  -1.05 0 0  -1 0 0  -0.9500000000000002 0 0  -0.9000000000000004 0 0  -0.8499999999999996 0 0  -0.7999999999999998 0 0  -0.75 0 0  -0.7000000000000002 0 0  -0.6500000000000004 0 0  -0.5999999999999996 0 0  -0.5499999999999998 0 0  -0.5 0 0  -0.4500000000000002 0 0  -0.4000000000000004 0 0  -0.3499999999999996 0 0  -0.2999999999999998 0 0  -0.25 0 0  -0.2000000000000002 0 0  -0.1500000000000004 0 0  -0.09999999999999964 0 0  -0.04999999999999982 0 0  0 0 0  0.04999999999999982 0 0  0.09999999999999964 0 0  0.1500000000000004 0 0  0.2000000000000002 0 0  0.25 0 0  0.2999999999999998 0 0  0.3499999999999996 0 0  0.4000000000000004 0 0  0.4500000000000002 0 0  0.5 0 0  0.5499999999999998 0 0  0.5999999999999996 0 0  0.6500000000000004 0 0  0.7000000000000002 0 0  0.75 0 0  0.7999999999999998 0 0  0.8499999999999996 0 0  0.9000000000000004 0 0  0.9500000000000002 0 0  1 0 0  1.05 0 0  1.1 0 0  1.15 0 0  1.2 0 0  1.25 0 0  1.3 0 0  1.35 0 0  1.4 0 0  1.45 0 0  1.5 0 0  1.55 0 0  1.6 0 0  1.65 0 0  1.7 0 0  1.75 0 0  1.8 0 0  1.85 0 0  1.9 0 0  1.95 0 0  2 0 0  2.05 0 0  2.1 0 0  2.15 0 0  2.2 0 0  2.25 0 0  2.3 0 0  2.35 0 0  2.4 0 0  2.45 0 0  2.5 0 0  2.55 0 0  2.6 0 0  2.65 0 0  2.7 0 0  2.75 0 0  2.8 0 0  2.85 0 0  2.9 0 0  2.95 0 0  3 0 0  3.050000000000001 0 0  3.1 0 0  3.15 0 0  3.199999999999999 0 0  3.25 0 0  3.300000000000001 0 0  3.35 0 0  3.4 0 0  3.449999999999999 0 0  3.5 0 0  3.550000000000001 0 0  3.6 0 0  3.65 0 0  3.699999999999999 0 0  3.75 0 0  3.800000000000001 0 0  3.85 0 0  3.9 0 0  3.949999999999999 0 0  4 0 0  4.050000000000001 0 0  4.1 0 0  4.15 0 0  4.199999999999999 0 0  4.25 0 0  4.300000000000001 0 0  4.35 0 0  4.4 0 0  4.449999999999999 0 0  4.5 0 0  4.550000000000001 0 0  4.6 0 0  4.65 0 0  4.699999999999999 0 0  4.75 0 0  4.800000000000001 0 0  4.85 0 0  4.9 0 0  4.949999999999999 0 0  5 0 0  </DataArray>
</Points>
<Cells>
<DataArray  type="UInt32"  Name="connectivity"  format="ascii">0 1  1 2  2 3  3 4  4 5  5 6  6 7  7 8  8 9  9 10  10 11  11 12  12 13  13 14  14 15  15 16  16 17  17 18  18 19  19 20  20 21  21 22  22 23  23 24  24 25  25 26  26 27  27 28  28 29  29 30  30 31  31 32  32 33  33 34  34 35  35 36  36 37  37 38  38 39  39 40  40 41  41 42  42 43  43 44  44 45  45 46  46 47  47 48  48 49  49 50  50 51  51 52  52 53  53 54  54 55  55 56  56 57  57 58  58 59  59 60  60 61  61 62  62 63  63 64  64 65  65 66  66 67  67 68  68 69  69 70  70 71  71 72  72 73  73 74  74 75  75 76  76 77  77 78  78 79  79 80  80 81  81 82  82 83  83 84  84 85  85 86  86 87  87 88  88 89  89 90  90 91  91 92  92 93  93 94  94 95  95 96  96 97  97 98  98 99  99 100  100 101  101 102  102 103  103 104  104 105  105 106  106 107  107 108  108 109  109 110  110 111  111 112  112 113  113 114  114 115  115 116  116 117  117 118  118 119  119 120  120 121  121 122  122 123  123 124  124 125  125 126  126 127  127 128  128 129  129 130  130 131  131 132  132 133  133 134  134 135  135 136  136 137  137 138  138 139  139 140  140 141  141 142  142 143  143 144  144 145  145 146  146 147  147 148  148 149  149 150  150 151  151 152  152 153  153 154  154 155  155 156  156 157  157 158  158 159  159 160  160 161  161 162  162 163  163 164  164 165  165 166  166 167  167 168  168 169  169 170  170 171  171 172  172 173  173 174  174 175  175 176  176 177  177 178  178 179  179 180  180 181  181 182  182 183  183 184  184 185  185 186  186 187  187 188  188 189  189 190  190 191  191 192  192 193  193 194  194 195  195 196  196 197  197 198  198 199  199 200  </DataArray>
<DataArray  type="UInt32"  Name="offsets"  format="ascii">2 4 6 8 10 12 14 16 18 20 22 24 26 28 30 32 34 36 38 40 42 44 46 48 50 52 54 56 58 60 62 64 66 68 70 72 74 76 78 80 82 84 86 88 90 92 94 96 98 100 102 104 106 108 110 112 114 116 118 120 122 124 126 128 130 132 134 136 138 140 142 144 146 148 150 152 154 156 158 160 162 164 166 168 170 172 174 176 178 180 182 184 186 188 190 192 194 196 198 200 202 204 206 208 210 212 214 216 218 220 222 224 226 228 230 232 234 236 238 240 242 244 246 248 250 252 254 256 258 260 262 264 266 268 270 272 274 276 278 280 282 284 286 288 290 292 294 296 298 300 302 304 306 308 310 312 314 316 318 320 322 324 326 328 330 332 334 336 338 340 342 344 346 348 350 352 354 356 358 360 362 364 366 368 370 372 374 376 378 380 382 384 386 388 390 392 394 396 398 400 </DataArray>
<DataArray  type="UInt8"  Name="types"  format="ascii">3 3 3 3 3 3 3 3 3 3 3 3 3 3 3 3 3 3 3 3 3 3 3 3 3 3 3 3 3 3 3 3 3 3 3 3 3 3 3 3 3 3 3 3 3 3 3 3 3 3 3 3 3 3 3 3 3 3 3 3 3 3 3 3 3 3 3 3 3 3 3 3 3 3 3 3 3 3 3 3 3 3 3 3 3 3 3 3 3 3 3 3 3 3 3 3 3 3 3 3 3 3 3 3 3 3 3 3 3 3 3 3 3 3 3 3 3 3 3 3 3 3 3 3 3 3 3 3 3 3 3 3 3 3 3 3 3 3 3 3 3 3 3 3 3 3 3 3 3 3 3 3 3 3 3 3 3 3 3 3 3 3 3 3 3 3 3 3 3 3 3 3 3 3 3 3 3 3 3 3 3 3 3 3 3 3 3 3 3 3 3 3 3 3 3 3 3 3 3 3 </DataArray>
</Cells>
<PointData  Vectors="(s, w)"> 
<DataArray  type="Float64"  Name="(s, w)"  NumberOfComponents="3" format="ascii">3.1375840494392788e+00 0.0000000000000000e+00 0.0000000000000000e+00  3.1863380250371467e+00 -2.6994586877967969e-01 0.0000000000000000e+00  3.1418864336548986e+00 5.2648097562998186e-01 0.0000000000000000e+00  3.1780413495668176e+00 -7.1488857589059784e-01 0.0000000000000000e+00  3.1526815625602924e+00 8.6437836094259290e-01 0.0000000000000000e+00  3.1656114260591446e+00 -9.0431022517029913e-01 0.0000000000000000e+00  3.1647757442104942e+00 8.8654040016118874e-01 0.0000000000000000e+00  3.1550030663815569e+00 -7.6000859647604668e-01 0.0000000000000000e+00  3.1727508430691937e+00 5.7323901759706231e-01 0.0000000000000000e+00  3.1505309410352753e+00 -3.1988930275489208e-01 0.0000000000000000e+00  3.1740482419706328e+00 2.7675231786298014e-02 0.0000000000000000e+00  3.1523428352989948e+00 2.6367298626983005e-01 0.0000000000000000e+00  3.1705182028973407e+00 -5.5050800489276586e-01 0.0000000000000000e+00  3.1563824940134193e+00 7.7071220203741164e-01 0.0000000000000000e+00  3.1672893142156533e+00 -9.3548961676243048e-01 0.0000000000000000e+00  3.1571293629538277e+00 9.9852151715467574e-01 0.0000000000000000e+00  3.1692241647259980e+00 -9.7184192879714992e-01 0.0000000000000000e+00  3.1517200983815945e+00 8.5481436930900745e-01 0.0000000000000000e+00  3.1769087859674983e+00 -6.5498006221961069e-01 0.0000000000000000e+00  3.1428412179749139e+00 4.1324586745594155e-01 0.0000000000000000e+00  3.1850245652206377e+00 -1.4355281013140422e-01 0.0000000000000000e+00  3.1380235425420064e+00 -1.1123388631793051e-01 0.0000000000000000e+00  3.1849853166279702e+00 3.1940940714383698e-01 0.0000000000000000e+00  3.1450186415644517e+00 -4.7516407424389295e-01 0.0000000000000000e+00  3.1709324005114228e+00 5.4281383149727613e-01 0.0000000000000000e+00  3.1657667416284792e+00 -5.5472838020132798e-01 0.0000000000000000e+00  3.1452523707256801e+00 5.0383106450156301e-01 0.0000000000000000e+00  3.1932087696574771e+00 -4.2971389622526185e-01 0.0000000000000000e+00  3.1190148200967944e+00 3.6478514400686540e-01 0.0000000000000000e+00  3.2142966481016337e+00 -3.2592074862467113e-01 0.0000000000000000e+00  3.1055191906191726e+00 3.5653443319974398e-01 0.0000000000000000e+00  3.2185548091226694e+00 -4.3801801204323587e-01 0.0000000000000000e+00  3.1105603373043138e+00 5.8830624162162082e-01 0.0000000000000000e+00  3.2064373862012920e+00 -7.5925282389608506e-01 0.0000000000000000e+00  3.1270540211767157e+00 9.3410657711635636e-01 0.0000000000000000e+00  3.1900719277758380e+00 -1.0628002421932528e+00 0.0000000000000000e+00  3.1398056450131691e+00 1.1187365345507156e+00 0.0000000000000000e+00  3.1839247570417841e+00 -1.0827517512612428e+00 0.0000000000000000e+00  3.1382117930930331e+00 9.5949444495452052e-01 0.0000000000000000e+00  3.1919570385397202e+00 -7.6809040918112392e-01 0.0000000000000000e+00  3.1263434546780391e+00 5.5822982704710933e-01 0.0000000000000000e+00  3.2031826948853004e+00 -3.6505883396954042e-01 0.0000000000000000e+00  3.1197212419564986e+00 2.4170025802455794e-01 0.0000000000000000e+00  3.2019668974954221e+00 -2.0151376961426867e-01 0.0000000000000000e+00  3.1294790222007851e+00 2.5396881597615556e-01 0.0000000000000000e+00  3.1847664538335394e+00 -3.4994477198884077e-01 0.0000000000000000e+00  3.1487981118642492e+00 4.9289390741236228e-01 0.0000000000000000e+00  3.1650919053124347e+00 -5.1578518519511807e-01 0.0000000000000000e+00  3.1574868256946664e+00 6.2632795910331884e-01 0.0000000000000000e+00  3.1576528594862259e+00 -3.1973072881948267e-01 0.0000000000000000e+00  3.1426818966595351e+00 5.2895595762167680e-01 0.0000000000000000e+00  3.1570906025441681e+00 2.8025924869770397e-01 0.0000000000000000e+00  3.1135594280341867e+00 5.3280810531347256e-01 0.0000000000000000e+00  3.1397023135927857e+00 9.3063803035835013e-01 0.0000000000000000e+00  3.0896109419749331e+00 1.0715379225465234e+00 0.0000000000000000e+00  3.0936386201605472e+00 1.3661684739722866e+00 0.0000000000000000e+00  3.0709547967597790e+00 2.0370795240696431e+00 0.0000000000000000e+00  3.0404034745361668e+00 1.8697429070701577e+00 0.0000000000000000e+00  3.0343714311149483e+00 2.8148944059327210e+00 0.0000000000000000e+00  3.0063808052694174e+00 2.8358054549693534e+00 0.0000000000000000e+00  2.9759614695107630e+00 3.2293147026128279e+00 0.0000000000000000e+00  2.9769252865395939e+00 3.9057052413992919e+00 0.0000000000000000e+00  2.9292834218424635e+00 3.8989173232702603e+00 0.0000000000000000e+00  2.9220244503716160e+00 4.4610595765083341e+00 0.0000000000000000e+00  2.9040646044030209e+00 4.9931234987942616e+00 0.0000000000000000e+00  2.8629034544113159e+00 4.9142415748006583e+00 0.0000000000000000e+00  2.8601398942275154e+00 5.7048604039267987e+00 0.0000000000000000e+00  2.8333568938882232e+00 5.9281028411033434e+00 0.0000000000000000e+00  2.7960528072058657e+00 6.0019869775673378e+00 0.0000000000000000e+00  2.7982888595433191e+00 6.8020719815752670e+00 0.0000000000000000e+00  2.7607451022015996e+00 6.8488623614821664e+00 0.0000000000000000e+00  2.7325490063574196e+00 7.0409353848495346e+00 0.0000000000000000e+00  2.7328855581468225e+00 7.8157979542120559e+00 0.0000000000000000e+00  2.6909421530632578e+00 7.7306837185394155e+00 0.0000000000000000e+00  2.6681088666870019e+00 8.0256369033541795e+00 0.0000000000000000e+00  2.6674392512185872e+00 8.7468995641866485e+00 0.0000000000000000e+00  2.6222426189416348e+00 8.5853647284533565e+00 0.0000000000000000e+00  2.6034188189692351e+00 8.9314160591189697e+00 0.0000000000000000e+00  2.6016679255538477e+00 9.6154567705908782e+00 0.0000000000000000e+00  2.5554330723104584e+00 9.4080289634938197e+00 0.0000000000000000e+00  2.5373723829200672e+00 9.7510922865990715e+00 0.0000000000000000e+00  2.5366332307876434e+00 1.0431585556493410e+01 0.0000000000000000e+00  2.4897150460174884e+00 1.0191804470163799e+01 0.0000000000000000e+00  2.4708446666684698e+00 1.0495928236728902e+01 0.0000000000000000e+00  2.4713328913542267e+00 1.1181425262695070e+01 0.0000000000000000e+00  2.4255044459844219e+00 1.0940967180816832e+01 0.0000000000000000e+00  2.4047250233434561e+00 1.1187863900563785e+01 0.0000000000000000e+00  2.4045737569063230e+00 1.1838356661196780e+01 0.0000000000000000e+00  2.3619191681416978e+00 1.1640763554398001e+01 0.0000000000000000e+00  2.3429452078358501e+00 1.1901493045310318e+01 0.0000000000000000e+00  2.3329363180971163e+00 1.2336052208280016e+01 0.0000000000000000e+00  2.2973718394248377e+00 1.2253795943685283e+01 0.0000000000000000e+00  2.2919758061601296e+00 1.2763271296259425e+01 0.0000000000000000e+00  2.2537654306028956e+00 1.2612932909590372e+01 0.0000000000000000e+00  2.2253904209073299e+00 1.2648642062654636e+01 0.0000000000000000e+00  2.2619392358927577e+00 1.3963718816803013e+01 0.0000000000000000e+00  2.1674606788841904e+00 1.2684201037385558e+01 0.0000000000000000e+00  2.1335222353983014e+00 1.2574481587164748e+01 0.0000000000000000e+00  2.2573301746590335e+00 1.5629075079780511e+01 0.0000000000000000e+00  2.0838171414734283e+00 1.2847234068283322e+01 0.0000000000000000e+00  1.9838760647198779e+00 1.1856617816085194e+01 0.0000000000000000e+00  2.2679388677163863e+00 1.7451916106989248e+01 0.0000000000000000e+00  2.0500977124664597e+00 1.3612026030068460e+01 0.0000000000000000e+00  1.8846696311843985e+00 9.9289978789551068e+00 0.0000000000000000e+00  2.2903463806152309e+00 1.8329733068296786e+01 0.0000000000000000e+00  2.1352428882019345e+00 1.5131134409289862e+01 0.0000000000000000e+00  1.7594386955765007e+00 8.0659950830314529e+00 0.0000000000000000e+00  2.2552451705128118e+00 1.7760703118522773e+01 0.0000000000000000e+00  2.2536112366029792e+00 1.7924374980167830e+01 0.0000000000000000e+00  1.6882407882685775e+00 6.8185074024135961e+00 0.0000000000000000e+00  2.1171257593289887e+00 1.5375338748481914e+01 0.0000000000000000e+00  2.4111210924989721e+00 2.1167876104070626e+01 0.0000000000000000e+00  1.6957577873329543e+00 7.3420523306459033e+00 0.0000000000000000e+00  1.8947032715896286e+00 1.1078006549190622e+01 0.0000000000000000e+00  2.5212494994229258e+00 2.3743698066381391e+01 0.0000000000000000e+00  1.8519935668297656e+00 1.0446029574322543e+01 0.0000000000000000e+00  1.6141221613825976e+00 6.0176770539628510e+00 0.0000000000000000e+00  2.4884542590483543e+00 2.3257757887317581e+01 0.0000000000000000e+00  2.1644971683114003e+00 1.6761717961471199e+01 0.0000000000000000e+00  1.4159373045262329e+00 2.6415989792252583e+00 0.0000000000000000e+00  2.1747718885123728e+00 1.7152697078091087e+01 0.0000000000000000e+00  2.5526766187954104e+00 2.4791607770726252e+01 0.0000000000000000e+00  1.5061189138983992e+00 4.6923912272288621e+00 0.0000000000000000e+00  1.6236846413459101e+00 6.6649188483602142e+00 0.0000000000000000e+00  2.6723572107504117e+00 2.7779236885791761e+01 0.0000000000000000e+00  2.0347580879637390e+00 1.4501861005345273e+01 0.0000000000000000e+00  1.2051096126922374e+00 -4.3465850738069918e-02 0.0000000000000000e+00  2.1426433034065178e+00 1.6766795707766779e+01 0.0000000000000000e+00  2.6938247928941044e+00 2.8436612274208279e+01 0.0000000000000000e+00  1.4853094071111586e+00 4.7159970304621543e+00 0.0000000000000000e+00  1.2875769331683267e+00 1.5175969683585040e+00 0.0000000000000000e+00  2.5619238501811257e+00 2.5708308663146799e+01 0.0000000000000000e+00  2.4269362883771479e+00 2.2666392681677053e+01 0.0000000000000000e+00  1.1578307151281781e+00 -7.5877423593490270e-02 0.0000000000000000e+00  1.4786585108570460e+00 4.6345216033792109e+00 0.0000000000000000e+00  2.7645270856672473e+00 3.0484157256047556e+01 0.0000000000000000e+00  2.1707143517520362e+00 1.7269452777136561e+01 0.0000000000000000e+00  1.0161540873909514e+00 -1.6138807001961508e+00 0.0000000000000000e+00  1.6032152582478563e+00 6.6337316810565126e+00 0.0000000000000000e+00  2.8283661708339825e+00 3.2111694986862375e+01 0.0000000000000000e+00  2.0365442383848738e+00 1.4566708372276770e+01 0.0000000000000000e+00  9.8362875057992472e-01 -1.9451156250013537e+00 0.0000000000000000e+00  1.7183991762814597e+00 8.5906247104142821e+00 0.0000000000000000e+00  2.8414607994601626e+00 3.2438926810515369e+01 0.0000000000000000e+00  1.9168637424644466e+00 1.2032960362415304e+01 0.0000000000000000e+00  9.6714579249660626e-01 -1.5669156340076118e+00 0.0000000000000000e+00  9.8907135711997585e-01 3.9897955707075422e-01 0.0000000000000000e+00  1.0086687661999207e+00 -1.1219725859617243e-01 0.0000000000000000e+00  9.9536903800618592e-01 3.9327566887899693e-02 0.0000000000000000e+00  1.0026366148436776e+00 -1.8327145723418502e-02 0.0000000000000000e+00  9.9825296489667958e-01 1.1268374350711782e-02 0.0000000000000000e+00  1.0012957273062359e+00 -8.1687991481777262e-03 0.0000000000000000e+00  9.9899092795927913e-01 6.3319667992106036e-03 0.0000000000000000e+00  1.0007935007451318e+00 -4.9702157566519443e-03 0.0000000000000000e+00  9.9938092266008494e-01 3.8784633418018550e-03 0.0000000000000000e+00  1.0004763875627090e+00 -2.9832465299299317e-03 0.0000000000000000e+00  9.9963904246561230e-01 2.2609995690521540e-03 0.0000000000000000e+00  1.0002693861685228e+00 -1.6870472533322301e-03 0.0000000000000000e+00  9.9980184827866925e-01 1.2411281652042131e-03 0.0000000000000000e+00  1.0001437924666119e+00 -9.0054626660144091e-04 0.0000000000000000e+00  9.9989697676607669e-01 6.4526794302934140e-04 0.0000000000000000e+00  1.0000729372233563e+00 -4.5680336896520397e-04 0.0000000000000000e+00  9.9994894132762568e-01 3.1979156006783184e-04 0.0000000000000000e+00  1.0000353651188003e+00 -2.2149326747489926e-04 0.0000000000000000e+00  9.9997575048852971e-01 1.5187863579015299e-04 0.0000000000000000e+00  1.0000164693002329e+00 -1.0314856933336837e-04 0.0000000000000000e+00  9.9998891626306730e-01 6.9418953859180625e-05 0.0000000000000000e+00  1.0000073946410659e+00 -4.6313373987724526e-05 0.0000000000000000e+00  9.9999510750635012e-01 3.0642293633334928e-05 0.0000000000000000e+00  1.0000032112679067e+00 -2.0112517603611115e-05 0.0000000000000000e+00  9.9999790832781665e-01 1.3100390354954725e-05 0.0000000000000000e+00  1.0000013524138776e+00 -8.4703190725023691e-06 0.0000000000000000e+00  9.9999913175381527e-01 5.4379264981897153e-06 0.0000000000000000e+00  1.0000005536099579e+00 -3.4673218198399266e-06 0.0000000000000000e+00  9.9999964933245944e-01 2.1962711093290543e-06 0.0000000000000000e+00  1.0000002207061167e+00 -1.3823075292490783e-06 0.0000000000000000e+00  9.9999986194545065e-01 8.6465145307934267e-07 0.0000000000000000e+00  1.0000000858400022e+00 -5.3762572767926705e-07 0.0000000000000000e+00  9.9999994693459282e-01 3.3235472043219179e-07 0.0000000000000000e+00  1.0000000326205893e+00 -2.0430646986102094e-07 0.0000000000000000e+00  9.9999998005646229e-01 1.2490865024550522e-07 0.0000000000000000e+00  1.0000000121285961e+00 -7.5962781512997209e-08 0.0000000000000000e+00  9.9999999266194117e-01 4.5959101995163873e-08 0.0000000000000000e+00  1.0000000044174897e+00 -2.7667234280253510e-08 0.0000000000000000e+00  9.9999999735362466e-01 1.6574557296989702e-08 0.0000000000000000e+00  1.0000000015778463e+00 -9.8822343759783316e-09 0.0000000000000000e+00  9.9999999906358472e-01 5.8648738016276468e-09 0.0000000000000000e+00  1.0000000005532395e+00 -3.4649956888389089e-09 0.0000000000000000e+00  9.9999999967457831e-01 2.0381544843387539e-09 0.0000000000000000e+00  1.0000000001905973e+00 -1.1937255203455076e-09 0.0000000000000000e+00  9.9999999988883548e-01 6.9622687119913230e-10 0.0000000000000000e+00  1.0000000000645723e+00 -4.0440073266441556e-10 0.0000000000000000e+00  9.9999999996263922e-01 2.3395122575303921e-10 0.0000000000000000e+00  1.0000000000215354e+00 -1.3479127845099883e-10 0.0000000000000000e+00  9.9999999998762890e-01 7.7328889641743926e-11 0.0000000000000000e+00  1.0000000000070910e+00 -4.4135558103019339e-11 0.0000000000000000e+00  9.9999999999593170e-01 2.4984961856589551e-11 0.0000000000000000e+00  1.0000000000023588e+00 -1.3881412432722486e-11 0.0000000000000000e+00  9.9999999999857780e-01 7.3019026350599983e-12 0.0000000000000000e+00  1.0000000000009592e+00 -3.1380454646370964e-12 0.0000000000000000e+00  9.9999999999917977e-01 0.0000000000000000e+00 0.0000000000000000e+00  </DataArray> 
</PointData> 
</Piece>
</UnstructuredGrid>
</VTKFile>