<?xml version="1.0"?>
<VTKFile type="UnstructuredGrid"  version="0.1"  >
<UnstructuredGrid>
<Piece  NumberOfPoints="201" NumberOfCells="200">
<Points>
<DataArray  type="Float64"  NumberOfComponents="3"  format="ascii">-5 0 0  -4.95 0 0  -4.9 0 0  -4.85 0 0  -4.8 0 0  -4.75 0 0  -4.7 0 0  -4.65 0 0  -4.6 0 0  -4.55 0 0  -4.5 0 0  -4.45 0 0  -4.4 0 0  -4.35 0 0  -4.3 0 0  -4.25 0 0  -4.2 0 0  -4.15 0 0  -4.1 0 0  -4.05 0 0  -4 0 0  -3.95 0 0  -3.9 0 0  -3.85 0 0  -3.8 0 0  -3.75 0 0  -3.7 0 0  -3.65 0 0  -3.6 0 0  -3.55 0 0  -3.5 0 0  -3.45 0 0  -3.4 0 0  -3.35 0 0  -3.3 0 0  -3.25 0 0  -3.2 0 0  -3.15 0 0  -3.1 0 0  -3.05 0 0  -3 0 0  -2.95 0 0  -2.9 0 0  -2.85 0 0  -2.8 0 0  -2.75 0 0  -2.7 0 0  -2.65 0 0  -2.6 0 0  -2.55 0 0  -2.5 0 0  -2.45 0 0  -2.4 0 0  -2.35 0 0  -2.3 0 0  -2.25 0 0  -2.2 0 0  -2.15 0 0  -2.1 0 0  -2.05 0 0  -2 0 0  -1.95 0 0  -1.9 0 0  -1.85 0 0  -1.8 0 0  -1.75 0 0  -1.7 0 0  -1.65 0 0  -1.6 0 0  -1.55 0 0  -1.5 0 0  -1.45 0 0  -1.4 0 0  -1.35 0 0  -1.3 0 0  -1.25 0 0  -1.2 0 0  -1.15 0 0  -1.1 0 0  -1.05 0 0  -1 0 0  -0.9500000000000002 0 0  -0.9000000000000004 0 0  -0.8499999999999996 0 0  -0.7999999999999998 0 0  -0.75 0 0  -0.7000000000000002 0 0  -0.6500000000000004 0 0  -0.5999999999999996 0 0  -0.5499999999999998 0 0  -0.5 0 0  -0.4500000000000002 0 0  -0.4000000000000004 0 0  -0.3499999999999996 0 0  -0.2999999999999998 0 0  -0.25 0 0  -0.2000000000000002 0 0  -0.1500000000000004 0 0  -0.09999999999999964 0 0  -0.04999999999999982 0 0  0 0 0  0.04999999999999982 0 0  0.09999999999999964 0 0  0.1500000000000004 0 0  0.2000000000000002 0 0  0.25 0 0  0.2999999999999998 0 0  0.3499999999999996 0 0  0.4000000000000004 0 0  0.4500000000000002 0 0  0.5 0 0  0.5499999999999998 0 0  0.5999999999999996 0 0  0.6500000000000004 0 0  0.7000000000000002 0 0  0.75 0 0  0.7999999999999998 0 0  0.8499999999999996 0 0  0.9000000000000004 0 0  0.9500000000000002 0 0  1 0 0  1.05 0 0  1.1 0 0  1.15 0 0  1.2 0 0  1.25 0 0  1.3 0 0  1.35 0 0  1.4 0 0  1.45 0 0  1.5 0 0  1.55 0 0  1.6 0 0  1.65 0 0  1.7 0 0  1.75 0 0  1.8 0 0  1.85 0 0  1.9 0 0  1.95 0 0  2 0 0  2.05 0 0  2.1 0 0  2.15 0 0  2.2 0 0  2.25 0 0  2.3 0 0  2.35 0 0  2.4 0 0  2.45 0 0  2.5 0 0  2.55 0 0  2.6 0 0  2.65 0 0  2.7 0 0  2.75 0 0  2.8 0 0  2.85 0 0  2.9 0 0  2.95 0 0  3 0 0  3.050000000000001 0 0  3.1 0 0  3.15 0 0  3.199999999999999 0 0  3.25 0 0  3.300000000000001 0 0  3.35 0 0  3.4 0 0  3.449999999999999 0 0  3.5 0 0  3.550000000000001 0 0  3.6 0 0  3.65 0 0  3.699999999999999 0 0  3.75 0 0  3.800000000000001 0 0  3.85 0 0  3.9 0 0  3.949999999999999 0 0  4 0 0  4.050000000000001 0 0  4.1 0 0  4.15 0 0  4.199999999999999 0 0  4.25 0 0  4.300000000000001 0 0  4.35 0 0  4.4 0 0  4.449999999999999 0 0  4.5 0 0  4.550000000000001 0 0  4.6 0 0  4.65 0 0  4.699999999999999 0 0  4.75 0 0  4.800000000000001 0 0  4.85 0 0  4.9 0 0  4.949999999999999 0 0  5 0 0  </DataArray>
</Points>
<Cells>
<DataArray  type="UInt32"  Name="connectivity"  format="ascii">0 1  1 2  2 3  3 4  4 5  5 6  6 7  7 8  8 9  9 10  10 11  11 12  12 13  13 14  14 15  15 16  16 17  17 18  18 19  19 20  20 21  21 22  22 23  23 24  24 25  25 26  26 27  27 28  28 29  29 30  30 31  31 32  32 33  33 34  34 35  35 36  36 37  37 38  38 39  39 40  40 41  41 42  42 43  43 44  44 45  45 46  46 47  47 48  48 49  49 50  50 51  51 52  52 53  53 54  54 55  55 56  56 57  57 58  58 59  59 60  60 61  61 62  62 63  63 64  64 65  65 66  66 67  67 68  68 69  69 70  70 71  71 72  72 73  73 74  74 75  75 76  76 77  77 78  78 79  79 80  80 81  81 82  82 83  83 84  84 85  85 86  86 87  87 88  88 89  89 90  90 91  91 92  92 93  93 94  94 95  95 96  96 97  97 98  98 99  99 100  100 101  101 102  102 103  103 104  104 105  105 106  106 107  107 108  108 109  109 110  110 111  111 112  112 113  113 114  114 115  115 116  116 117  117 118  118 119  119 120  120 121  121 122  122 123  123 124  124 125  125 126  126 127  127 128  128 129  129 130  130 131  131 132  132 133  133 134  134 135  135 136  136 137  137 138  138 139  139 140  140 141  141 142  142 143  143 144  144 145  145 146  146 147  147 148  148 149  149 150  150 151  151 152  152 153  153 154  154 155  155 156  156 157  157 158  158 159  159 160  160 161  161 162  162 163  163 164  164 165  165 166  166 167  167 168  168 169  169 170  170 171  171 172  172 173  173 174  174 175  175 176  176 177  177 178  178 179  179 180  180 181  181 182  182 183  183 184  184 185  185 186  186 187  187 188  188 189  189 190  190 191  191 192  192 193  193 194  194 195  195 196  196 197  197 198  198 199  199 200  </DataArray>
<DataArray  type="UInt32"  Name="offsets"  format="ascii">2 4 6 8 10 12 14 16 18 20 22 24 26 28 30 32 34 36 38 40 42 44 46 48 50 52 54 56 58 60 62 64 66 68 70 72 74 76 78 80 82 84 86 88 90 92 94 96 98 100 102 104 106 108 110 112 114 116 118 120 122 124 126 128 130 132 134 136 138 140 142 144 146 148 150 152 154 156 158 160 162 164 166 168 170 172 174 176 178 180 182 184 186 188 190 192 194 196 198 200 202 204 206 208 210 212 214 216 218 220 222 224 226 228 230 232 234 236 238 240 242 244 246 248 250 252 254 256 258 260 262 264 266 268 270 272 274 276 278 280 282 284 286 288 290 292 294 296 298 300 302 304 306 308 310 312 314 316 318 320 322 324 326 328 330 332 334 336 338 340 342 344 346 348 350 352 354 356 358 360 362 364 366 368 370 372 374 376 378 380 382 384 386 388 390 392 394 396 398 400 </DataArray>
<DataArray  type="UInt8"  Name="types"  format="ascii">3 3 3 3 3 3 3 3 3 3 3 3 3 3 3 3 3 3 3 3 3 3 3 3 3 3 3 3 3 3 3 3 3 3 3 3 3 3 3 3 3 3 3 3 3 3 3 3 3 3 3 3 3 3 3 3 3 3 3 3 3 3 3 3 3 3 3 3 3 3 3 3 3 3 3 3 3 3 3 3 3 3 3 3 3 3 3 3 3 3 3 3 3 3 3 3 3 3 3 3 3 3 3 3 3 3 3 3 3 3 3 3 3 3 3 3 3 3 3 3 3 3 3 3 3 3 3 3 3 3 3 3 3 3 3 3 3 3 3 3 3 3 3 3 3 3 3 3 3 3 3 3 3 3 3 3 3 3 3 3 3 3 3 3 3 3 3 3 3 3 3 3 3 3 3 3 3 3 3 3 3 3 3 3 3 3 3 3 3 3 3 3 3 3 3 3 3 3 3 3 </DataArray>
</Cells>
<PointData  Vectors="(s, w)"> 
<DataArray  type="Float64"  Name="(s, w)"  NumberOfComponents="3" format="ascii">3.1704781635366031e+00 0.0000000000000000e+00 0.0000000000000000e+00  3.1547651550795668e+00 1.4560433199861880e-01 0.0000000000000000e+00  3.1629756256271326e+00 -2.1108110601220867e-01 0.0000000000000000e+00  3.1643447441112671e+00 2.7994579197038244e-01 0.0000000000000000e+00  3.1483940684652407e+00 -9.7834780243683819e-02 0.0000000000000000e+00  3.1697674222686452e+00 1.4642014626560051e-01 0.0000000000000000e+00  3.1399789993837164e+00 3.0246808551941806e-01 0.0000000000000000e+00  3.1599749202700309e+00 1.3515527589168698e-02 0.0000000000000000e+00  3.1389895364939377e+00 6.4256701695946805e-01 0.0000000000000000e+00  3.1387700642707834e+00 2.5482329524228453e-01 0.0000000000000000e+00  3.1340117520581963e+00 6.9657375698919421e-01 0.0000000000000000e+00  3.1178723000057391e+00 8.8756020336722818e-01 0.0000000000000000e+00  3.1169817053477771e+00 6.8398064399005842e-01 0.0000000000000000e+00  3.1016278182172066e+00 1.4804550721114291e+00 0.0000000000000000e+00  3.0924561592962481e+00 1.0424982905237061e+00 0.0000000000000000e+00  3.0854818873050069e+00 1.6671063102810895e+00 0.0000000000000000e+00  3.0674663961755897e+00 1.8196257470245258e+00 0.0000000000000000e+00  3.0676717350185969e+00 1.6753379223997520e+00 0.0000000000000000e+00  3.0416016592752033e+00 2.5017016582382228e+00 0.0000000000000000e+00  3.0499558906105433e+00 2.0482591280512783e+00 0.0000000000000000e+00  3.0162624642783737e+00 2.6941337159156244e+00 0.0000000000000000e+00  3.0260211005376347e+00 2.8267427747628706e+00 0.0000000000000000e+00  3.0009692354054764e+00 2.7219045596379594e+00 0.0000000000000000e+00  2.9893873356098499e+00 3.4624389927267454e+00 0.0000000000000000e+00  2.9932866106533065e+00 3.1155221400102242e+00 0.0000000000000000e+00  2.9559556828638223e+00 3.6841180288708468e+00 0.0000000000000000e+00  2.9694133664317635e+00 3.7798737812905356e+00 0.0000000000000000e+00  2.9476889869342857e+00 3.8558575421067363e+00 0.0000000000000000e+00  2.9229625749191870e+00 4.2936417267051379e+00 0.0000000000000000e+00  2.9480215764970765e+00 4.2286462722227016e+00 0.0000000000000000e+00  2.8885544235028897e+00 4.6634066925994935e+00 0.0000000000000000e+00  2.9186001312086742e+00 4.6324386787470653e+00 0.0000000000000000e+00  2.8871658371518083e+00 5.0252835736727981e+00 0.0000000000000000e+00  2.8677530347093141e+00 5.1019971251896150e+00 0.0000000000000000e+00  2.8843717270822209e+00 5.1957204332638653e+00 0.0000000000000000e+00  2.8396524602830167e+00 5.7505331407642775e+00 0.0000000000000000e+00  2.8505755086985345e+00 5.3378101212782614e+00 0.0000000000000000e+00  2.8353628873866517e+00 6.1108501396470754e+00 0.0000000000000000e+00  2.8097754836223712e+00 5.9970420893405478e+00 0.0000000000000000e+00  2.8222785832380599e+00 5.9780599195495503e+00 0.0000000000000000e+00  2.7832476218987883e+00 6.8036058220284570e+00 0.0000000000000000e+00  2.7987326563745154e+00 6.1926281531204550e+00 0.0000000000000000e+00  2.7628966617083148e+00 6.8872184303322213e+00 0.0000000000000000e+00  2.7692581389957822e+00 7.0632668744673506e+00 0.0000000000000000e+00  2.7540289128536513e+00 6.7383841651212988e+00 0.0000000000000000e+00  2.7251359500498840e+00 7.6162727731702935e+00 0.0000000000000000e+00  2.7493595695225213e+00 7.2200120979866913e+00 0.0000000000000000e+00  2.6990530624661320e+00 7.6112905480371129e+00 0.0000000000000000e+00  2.7071320859211432e+00 7.8419544722005883e+00 0.0000000000000000e+00  2.7112519682297926e+00 7.8005341680104427e+00 0.0000000000000000e+00  2.6507028256386720e+00 8.1934014287919563e+00 0.0000000000000000e+00  2.6991104672782757e+00 8.0880483774993710e+00 0.0000000000000000e+00  2.6461375234282611e+00 8.5643422176646062e+00 0.0000000000000000e+00  2.6391472289290459e+00 8.4258799612119901e+00 0.0000000000000000e+00  2.6563607430302585e+00 8.6127675379574420e+00 0.0000000000000000e+00  2.6026678856194692e+00 9.1840814104542048e+00 0.0000000000000000e+00  2.6251104495872073e+00 8.5411687974230581e+00 0.0000000000000000e+00  2.5990695634632113e+00 9.4557598340350140e+00 0.0000000000000000e+00  2.5827939472077883e+00 9.3334864712308132e+00 0.0000000000000000e+00  2.5909101334285403e+00 9.0522031218487324e+00 0.0000000000000000e+00  2.5466099280595800e+00 1.0036767719239474e+01 0.0000000000000000e+00  2.5781120065449521e+00 9.4842523708160762e+00 0.0000000000000000e+00  2.5265398452025432e+00 9.7591869413713503e+00 0.0000000000000000e+00  2.5296133496768616e+00 1.0295502935931109e+01 0.0000000000000000e+00  2.5448060962011674e+00 9.8351325267563805e+00 0.0000000000000000e+00  2.4732269510155334e+00 1.0435564183176529e+01 0.0000000000000000e+00  2.5217154621457274e+00 1.0321475762883322e+01 0.0000000000000000e+00  2.4906316335320748e+00 1.0593693981968698e+01 0.0000000000000000e+00  2.4428991140370093e+00 1.0665501692559213e+01 0.0000000000000000e+00  2.5010485884854412e+00 1.0582895247379895e+01 0.0000000000000000e+00  2.4270212589903424e+00 1.1282722538367189e+01 0.0000000000000000e+00  2.4424298088447940e+00 1.0739563068960521e+01 0.0000000000000000e+00  2.4435320796241942e+00 1.1111174333493301e+01 0.0000000000000000e+00  2.3955278348276492e+00 1.1736123138028640e+01 0.0000000000000000e+00  2.4277303518709017e+00 1.0823345754933253e+01 0.0000000000000000e+00  2.3744473838373108e+00 1.1779964904582615e+01 0.0000000000000000e+00  2.3897123150918174e+00 1.1802301681966435e+01 0.0000000000000000e+00  2.3897960597738228e+00 1.1364367575307575e+01 0.0000000000000000e+00  2.3172554806333725e+00 1.2164268464146410e+01 0.0000000000000000e+00  2.3952523396762397e+00 1.1854747956329291e+01 0.0000000000000000e+00  2.3155803629482108e+00 1.2123451954739689e+01 0.0000000000000000e+00  2.3071874670819490e+00 1.2137733540204689e+01 0.0000000000000000e+00  2.3573024504364879e+00 1.2146567665781948e+01 0.0000000000000000e+00  2.2618704022334808e+00 1.2862515832820531e+01 0.0000000000000000e+00  2.3139329517120282e+00 1.1903590845652610e+01 0.0000000000000000e+00  2.2748600839385973e+00 1.2864427327221499e+01 0.0000000000000000e+00  2.2630532465151569e+00 1.3045567256713040e+01 0.0000000000000000e+00  2.2850091579000296e+00 1.2109601888718743e+01 0.0000000000000000e+00  2.1810944028572337e+00 1.3345590440998020e+01 0.0000000000000000e+00  2.3223253914458839e+00 1.2880972311166557e+01 0.0000000000000000e+00  2.1411122190208118e+00 1.3193119594954572e+01 0.0000000000000000e+00  2.2510524678060864e+00 1.2550531238221900e+01 0.0000000000000000e+00  2.1979761388093526e+00 1.4195917756835346e+01 0.0000000000000000e+00  2.1961135638967755e+00 1.2789093497839248e+01 0.0000000000000000e+00  2.1438823570949812e+00 1.3101235143993698e+01 0.0000000000000000e+00  2.2215000702255763e+00 1.4340450302649433e+01 0.0000000000000000e+00  2.1313655578213830e+00 1.3168953118889840e+01 0.0000000000000000e+00  2.1158478834844856e+00 1.3015829162201053e+01 0.0000000000000000e+00  2.1941676886718064e+00 1.4947221484420158e+01 0.0000000000000000e+00  2.0902915869996748e+00 1.3213757058338441e+01 0.0000000000000000e+00  2.0564644956356237e+00 1.3086809074984927e+01 0.0000000000000000e+00  2.1942040684936135e+00 1.5637032456183292e+01 0.0000000000000000e+00  2.0462710623698888e+00 1.3231587383383266e+01 0.0000000000000000e+00  2.0315802182979290e+00 1.2648623164536867e+01 0.0000000000000000e+00  2.2165597344486696e+00 1.6449891007986448e+01 0.0000000000000000e+00  2.0557510001421733e+00 1.3149280806569980e+01 0.0000000000000000e+00  1.9771670549583347e+00 1.1820069090695952e+01 0.0000000000000000e+00  2.2528019397170849e+00 1.7219736614161388e+01 0.0000000000000000e+00  2.0689532214714133e+00 1.3749192583829698e+01 0.0000000000000000e+00  1.9050084644221739e+00 1.0447916886139017e+01 0.0000000000000000e+00  2.2597223858354023e+00 1.7640209123491573e+01 0.0000000000000000e+00  2.1362247597034343e+00 1.5127028284622355e+01 0.0000000000000000e+00  1.8178468908659053e+00 9.0081142929897986e+00 0.0000000000000000e+00  2.2242126095008059e+00 1.6999188246626908e+01 0.0000000000000000e+00  2.2386269327756994e+00 1.7384975565551976e+01 0.0000000000000000e+00  1.7665477581680387e+00 8.1079225588546500e+00 0.0000000000000000e+00  2.1133355652255918e+00 1.5004078333101667e+01 0.0000000000000000e+00  2.3607229531676213e+00 1.9908629551870785e+01 0.0000000000000000e+00  1.7792505877210145e+00 8.5816391942761978e+00 0.0000000000000000e+00  1.9452622162814255e+00 1.1764025752424176e+01 0.0000000000000000e+00  2.4420828181657206e+00 2.1759338499405235e+01 0.0000000000000000e+00  1.8917012442800270e+00 1.0838369082829441e+01 0.0000000000000000e+00  1.7513104273173041e+00 8.1906067444049242e+00 0.0000000000000000e+00  2.4335396669769231e+00 2.1684964640742987e+01 0.0000000000000000e+00  2.0903610434463120e+00 1.4876054094660622e+01 0.0000000000000000e+00  1.6053924086212648e+00 5.5193829482562169e+00 0.0000000000000000e+00  2.2876747058784637e+00 1.8901857066232694e+01 0.0000000000000000e+00  2.3357516316398677e+00 1.9827049129528941e+01 0.0000000000000000e+00  1.5756300151294702e+00 5.1729733678228449e+00 0.0000000000000000e+00  2.0147436788436859e+00 1.3541285336672864e+01 0.0000000000000000e+00  2.5285021420516851e+00 2.3930949229823078e+01 0.0000000000000000e+00  1.7280019206379229e+00 8.1443892926238188e+00 0.0000000000000000e+00  1.6826008593289188e+00 7.3122200600859024e+00 0.0000000000000000e+00  2.5460400346129832e+00 2.4433178907101624e+01 0.0000000000000000e+00  2.0570778953948219e+00 1.4591633542867005e+01 0.0000000000000000e+00  1.4431302802421861e+00 3.0592395615536581e+00 0.0000000000000000e+00  2.2861087106368529e+00 1.9264681522334726e+01 0.0000000000000000e+00  2.4545906444748344e+00 2.2656890389333981e+01 0.0000000000000000e+00  1.4665656253613979e+00 3.7472657419208515e+00 0.0000000000000000e+00  1.8072475894931199e+00 9.9467141036343332e+00 0.0000000000000000e+00  2.6626981908844152e+00 2.7269053355054581e+01 0.0000000000000000e+00  1.8452144004390505e+00 1.0780101590094572e+01 0.0000000000000000e+00  1.3695310956592044e+00 2.2229502049188095e+00 0.0000000000000000e+00  2.4173096598439847e+00 2.2222740696235086e+01 0.0000000000000000e+00  2.4196825880316095e+00 2.2241446656732478e+01 0.0000000000000000e+00  1.3288654461513909e+00 1.7678345446745849e+00 0.0000000000000000e+00  1.7748495151652972e+00 9.6165871062999884e+00 0.0000000000000000e+00  2.7323382976240804e+00 2.9123963304492541e+01 0.0000000000000000e+00  1.8390711464457150e+00 1.0874289941035792e+01 0.0000000000000000e+00  1.2335857477431171e+00 3.7923966911648144e-01 0.0000000000000000e+00  2.3274678943157436e+00 2.0550363723367582e+01 0.0000000000000000e+00  2.5731781184393498e+00 2.5691650723571751e+01 0.0000000000000000e+00  1.3457556990193844e+00 2.3810081219579717e+00 0.0000000000000000e+00  1.4974677626691841e+00 4.8065257278788192e+00 0.0000000000000000e+00  2.7092010711300274e+00 2.8897161029213017e+01 0.0000000000000000e+00  2.1431805196021512e+00 1.6742119664536769e+01 0.0000000000000000e+00  1.1086189699326219e+00 -1.0439439329563343e+00 0.0000000000000000e+00  1.8940493950912005e+00 1.1944010448536279e+01 0.0000000000000000e+00  2.8053311860139147e+00 3.1229911572974419e+01 0.0000000000000000e+00  1.7089873094885761e+00 8.5549945514150458e+00 0.0000000000000000e+00  1.0957018400107310e+00 -1.0418240046613423e+00 0.0000000000000000e+00  2.2584223111373727e+00 1.9182862384004153e+01 0.0000000000000000e+00  2.6998549725503307e+00 2.8865529967637439e+01 0.0000000000000000e+00  1.3872654189627029e+00 3.2404103876902051e+00 0.0000000000000000e+00  1.1967839511533849e+00 4.5538915123529949e-01 0.0000000000000000e+00  2.5185708327309815e+00 2.4806071170291467e+01 0.0000000000000000e+00  2.5220570314957009e+00 2.4851296188735631e+01 0.0000000000000000e+00  1.1881067312667508e+00 4.2881746549322997e-01 0.0000000000000000e+00  1.3166601542988745e+00 2.1831371005064857e+00 0.0000000000000000e+00  2.6686351826320927e+00 2.8264804225449943e+01 0.0000000000000000e+00  2.3646279318933070e+00 2.1376475604459667e+01 0.0000000000000000e+00  1.0810845442937365e+00 -8.4771891241771280e-01 0.0000000000000000e+00  1.4107516785119394e+00 3.5614426614604695e+00 0.0000000000000000e+00  2.7447517691239374e+00 3.0092308343434240e+01 0.0000000000000000e+00  2.2511913751395167e+00 1.8964977051242798e+01 0.0000000000000000e+00  1.0325602918219654e+00 -1.4152144611173529e+00 0.0000000000000000e+00  1.5180027588453411e+00 5.2419642044637929e+00 0.0000000000000000e+00  2.7951252967336777e+00 3.1262526832298558e+01 0.0000000000000000e+00  2.1191157858195071e+00 1.6274199700300326e+01 0.0000000000000000e+00  1.0142143919460482e+00 -1.7588887712207470e+00 0.0000000000000000e+00  1.7105087276876072e+00 8.5186196516408099e+00 0.0000000000000000e+00  2.8407554904574339e+00 3.2339692377246976e+01 0.0000000000000000e+00  1.9100518610067685e+00 1.2134503379071491e+01 0.0000000000000000e+00  9.8711544294593023e-01 -1.9933276330127521e+00 0.0000000000000000e+00  1.8877224446663545e+00 1.1691152742586643e+01 0.0000000000000000e+00  2.8407381548910062e+00 3.2466421501275775e+01 0.0000000000000000e+00  1.7533567168987285e+00 8.8299682517097899e+00 0.0000000000000000e+00  9.4286935210100908e-01 -1.3249074050301264e+00 0.0000000000000000e+00  9.9924225307776515e-01 3.2073019456291790e-01 0.0000000000000000e+00  1.0044233329714130e+00 -8.3995315388844513e-02 0.0000000000000000e+00  9.9735789428843269e-01 2.6568464680058405e-02 0.0000000000000000e+00  1.0015207541247948e+00 -1.1124051643420311e-02 0.0000000000000000e+00  9.9897280927425491e-01 6.4549266693618322e-03 0.0000000000000000e+00  1.0008059283322368e+00 -4.6910270398965864e-03 0.0000000000000000e+00  9.9931580530472652e-01 3.7439924391071519e-03 0.0000000000000000e+00  1.0005994798013180e+00 -3.0253674853822654e-03 0.0000000000000000e+00  9.9946716693658277e-01 2.3802367250134130e-03 0.0000000000000000e+00  1.0004801110887493e+00 -1.7628994743211540e-03 0.0000000000000000e+00  9.9955853957646346e-01 1.1647839207942232e-03 0.0000000000000000e+00  1.0004177592899377e+00 -5.7879071768502462e-04 0.0000000000000000e+00  9.9959020031128598e-01 0.0000000000000000e+00 0.0000000000000000e+00  </DataArray> 
</PointData> 
</Piece>
</UnstructuredGrid>
</VTKFile>