<?xml version="1.0"?>
<VTKFile type="UnstructuredGrid"  version="0.1"  >
<UnstructuredGrid>
<Piece  NumberOfPoints="201" NumberOfCells="200">
<Points>
<DataArray  type="Float64"  NumberOfComponents="3"  format="ascii">-5 0 0  -4.95 0 0  -4.9 0 0  -4.85 0 0  -4.8 0 0  -4.75 0 0  -4.7 0 0  -4.65 0 0  -4.6 0 0  -4.55 0 0  -4.5 0 0  -4.45 0 0  -4.4 0 0  -4.35 0 0  -4.3 0 0  -4.25 0 0  -4.2 0 0  -4.15 0 0  -4.1 0 0  -4.05 0 0  -4 0 0  -3.95 0 0  -3.9 0 0  -3.85 0 0  -3.8 0 0  -3.75 0 0  -3.7 0 0  -3.65 0 0  -3.6 0 0  -3.55 0 0  -3.5 0 0  -3.45 0 0  -3.4 0 0  -3.35 0 0  -3.3 0 0  -3.25 0 0  -3.2 0 0  -3.15 0 0  -3.1 0 0  -3.05 0 0  -3 0 0  -2.95 0 0  -2.9 0 0  -2.85 0 0  -2.8 0 0  -2.75 0 0  -2.7 0 0  -2.65 0 0  -2.6 0 0  -2.55 0 0  -2.5 0 0  -2.45 0 0  -2.4 0 0  -2.35 0 0  -2.3 0 0  -2.25 0 0  -2.2 0 0  -2.15 0 0  -2.1 0 0  -2.05 0 0  -2 0 0  -1.95 0 0  -1.9 0 0  -1.85 0 0  -1.8 0 0  -1.75 0 0  -1.7 0 0  -1.65 0 0  -1.6 0 0  -1.55 0 0  -1.5 0 0  -1.45 0 0  -1.4 0 0  -1.35 0 0  -1.3 0 0  -1.25 0 0  -1.2 0 0  -1.15 0 0  -1.1 0 0  -1.05 0 0  -1 0 0  -0.9500000000000002 0 0  -0.9000000000000004 0 0  -0.8499999999999996 0 0  -0.7999999999999998 0 0  -0.75 0 0  -0.7000000000000002 0 0  -0.6500000000000004 0 0  -0.5999999999999996 0 0  -0.5499999999999998 0 0  -0.5 0 0  -0.4500000000000002 0 0  -0.4000000000000004 0 0  -0.3499999999999996 0 0  -0.2999999999999998 0 0  -0.25 0 0  -0.2000000000000002 0 0  -0.1500000000000004 0 0  -0.09999999999999964 0 0  -0.04999999999999982 0 0  0 0 0  0.04999999999999982 0 0  0.09999999999999964 0 0  0.1500000000000004 0 0  0.2000000000000002 0 0  0.25 0 0  0.2999999999999998 0 0  0.3499999999999996 0 0  0.4000000000000004 0 0  0.4500000000000002 0 0  0.5 0 0  0.5499999999999998 0 0  0.5999999999999996 0 0  0.6500000000000004 0 0  0.7000000000000002 0 0  0.75 0 0  0.7999999999999998 0 0  0.8499999999999996 0 0  0.9000000000000004 0 0  0.9500000000000002 0 0  1 0 0  1.05 0 0  1.1 0 0  1.15 0 0  1.2 0 0  1.25 0 0  1.3 0 0  1.35 0 0  1.4 0 0  1.45 0 0  1.5 0 0  1.55 0 0  1.6 0 0  1.65 0 0  1.7 0 0  1.75 0 0  1.8 0 0  1.85 0 0  1.9 0 0  1.95 0 0  2 0 0  2.05 0 0  2.1 0 0  2.15 0 0  2.2 0 0  2.25 0 0  2.3 0 0  2.35 0 0  2.4 0 0  2.45 0 0  2.5 0 0  2.55 0 0  2.6 0 0  2.65 0 0  2.7 0 0  2.75 0 0  2.8 0 0  2.85 0 0  2.9 0 0  2.95 0 0  3 0 0  3.050000000000001 0 0  3.1 0 0  3.15 0 0  3.199999999999999 0 0  3.25 0 0  3.300000000000001 0 0  3.35 0 0  3.4 0 0  3.449999999999999 0 0  3.5 0 0  3.550000000000001 0 0  3.6 0 0  3.65 0 0  3.699999999999999 0 0  3.75 0 0  3.800000000000001 0 0  3.85 0 0  3.9 0 0  3.949999999999999 0 0  4 0 0  4.050000000000001 0 0  4.1 0 0  4.15 0 0  4.199999999999999 0 0  4.25 0 0  4.300000000000001 0 0  4.35 0 0  4.4 0 0  4.449999999999999 0 0  4.5 0 0  4.550000000000001 0 0  4.6 0 0  4.65 0 0  4.699999999999999 0 0  4.75 0 0  4.800000000000001 0 0  4.85 0 0  4.9 0 0  4.949999999999999 0 0  5 0 0  </DataArray>
</Points>
<Cells>
<DataArray  type="UInt32"  Name="connectivity"  format="ascii">0 1  1 2  2 3  3 4  4 5  5 6  6 7  7 8  8 9  9 10  10 11  11 12  12 13  13 14  14 15  15 16  16 17  17 18  18 19  19 20  20 21  21 22  22 23  23 24  24 25  25 26  26 27  27 28  28 29  29 30  30 31  31 32  32 33  33 34  34 35  35 36  36 37  37 38  38 39  39 40  40 41  41 42  42 43  43 44  44 45  45 46  46 47  47 48  48 49  49 50  50 51  51 52  52 53  53 54  54 55  55 56  56 57  57 58  58 59  59 60  60 61  61 62  62 63  63 64  64 65  65 66  66 67  67 68  68 69  69 70  70 71  71 72  72 73  73 74  74 75  75 76  76 77  77 78  78 79  79 80  80 81  81 82  82 83  83 84  84 85  85 86  86 87  87 88  88 89  89 90  90 91  91 92  92 93  93 94  94 95  95 96  96 97  97 98  98 99  99 100  100 101  101 102  102 103  103 104  104 105  105 106  106 107  107 108  108 109  109 110  110 111  111 112  112 113  113 114  114 115  115 116  116 117  117 118  118 119  119 120  120 121  121 122  122 123  123 124  124 125  125 126  126 127  127 128  128 129  129 130  130 131  131 132  132 133  133 134  134 135  135 136  136 137  137 138  138 139  139 140  140 141  141 142  142 143  143 144  144 145  145 146  146 147  147 148  148 149  149 150  150 151  151 152  152 153  153 154  154 155  155 156  156 157  157 158  158 159  159 160  160 161  161 162  162 163  163 164  164 165  165 166  166 167  167 168  168 169  169 170  170 171  171 172  172 173  173 174  174 175  175 176  176 177  177 178  178 179  179 180  180 181  181 182  182 183  183 184  184 185  185 186  186 187  187 188  188 189  189 190  190 191  191 192  192 193  193 194  194 195  195 196  196 197  197 198  198 199  199 200  </DataArray>
<DataArray  type="UInt32"  Name="offsets"  format="ascii">2 4 6 8 10 12 14 16 18 20 22 24 26 28 30 32 34 36 38 40 42 44 46 48 50 52 54 56 58 60 62 64 66 68 70 72 74 76 78 80 82 84 86 88 90 92 94 96 98 100 102 104 106 108 110 112 114 116 118 120 122 124 126 128 130 132 134 136 138 140 142 144 146 148 150 152 154 156 158 160 162 164 166 168 170 172 174 176 178 180 182 184 186 188 190 192 194 196 198 200 202 204 206 208 210 212 214 216 218 220 222 224 226 228 230 232 234 236 238 240 242 244 246 248 250 252 254 256 258 260 262 264 266 268 270 272 274 276 278 280 282 284 286 288 290 292 294 296 298 300 302 304 306 308 310 312 314 316 318 320 322 324 326 328 330 332 334 336 338 340 342 344 346 348 350 352 354 356 358 360 362 364 366 368 370 372 374 376 378 380 382 384 386 388 390 392 394 396 398 400 </DataArray>
<DataArray  type="UInt8"  Name="types"  format="ascii">3 3 3 3 3 3 3 3 3 3 3 3 3 3 3 3 3 3 3 3 3 3 3 3 3 3 3 3 3 3 3 3 3 3 3 3 3 3 3 3 3 3 3 3 3 3 3 3 3 3 3 3 3 3 3 3 3 3 3 3 3 3 3 3 3 3 3 3 3 3 3 3 3 3 3 3 3 3 3 3 3 3 3 3 3 3 3 3 3 3 3 3 3 3 3 3 3 3 3 3 3 3 3 3 3 3 3 3 3 3 3 3 3 3 3 3 3 3 3 3 3 3 3 3 3 3 3 3 3 3 3 3 3 3 3 3 3 3 3 3 3 3 3 3 3 3 3 3 3 3 3 3 3 3 3 3 3 3 3 3 3 3 3 3 3 3 3 3 3 3 3 3 3 3 3 3 3 3 3 3 3 3 3 3 3 3 3 3 3 3 3 3 3 3 3 3 3 3 3 3 </DataArray>
</Cells>
<PointData  Vectors="(s, w)"> 
<DataArray  type="Float64"  Name="(s, w)"  NumberOfComponents="3" format="ascii">3.1622776601683800e+00 0.0000000000000000e+00 0.0000000000000000e+00  3.1622776601683800e+00 -4.7116405112098516e-15 0.0000000000000000e+00  3.1622776601683795e+00 2.4888621515036107e-15 0.0000000000000000e+00  3.1622776601683804e+00 -2.4854340433156923e-15 0.0000000000000000e+00  3.1622776601683804e+00 -2.8394721984662220e-15 0.0000000000000000e+00  3.1622776601683795e+00 3.9502555359615880e-15 0.0000000000000000e+00  3.1622776601683800e+00 1.1539463392981430e-15 0.0000000000000000e+00  3.1622776601683800e+00 5.7046647358642348e-15 0.0000000000000000e+00  3.1622776601683795e+00 -1.0171161408125785e-14 0.0000000000000000e+00  3.1622776601683800e+00 -8.1165423056546610e-15 0.0000000000000000e+00  3.1622776601683804e+00 1.0062848385251176e-14 0.0000000000000000e+00  3.1622776601683800e+00 4.1912789520399753e-15 0.0000000000000000e+00  3.1622776601683800e+00 7.0009621827886474e-15 0.0000000000000000e+00  3.1622776601683800e+00 -1.7254142581347577e-15 0.0000000000000000e+00  3.1622776601683800e+00 -6.4566315906329353e-15 0.0000000000000000e+00  3.1622776601683800e+00 -5.4234273581257236e-15 0.0000000000000000e+00  3.1622776601683795e+00 -3.5991707538025860e-15 0.0000000000000000e+00  3.1622776601683800e+00 1.2514765585657368e-14 0.0000000000000000e+00  3.1622776601683795e+00 -2.5365683855824194e-14 0.0000000000000000e+00  3.1622776601683813e+00 2.3960038993857956e-14 0.0000000000000000e+00  3.1622776601683782e+00 -4.5073830398942455e-14 0.0000000000000000e+00  3.1622776601683844e+00 8.6538450195171614e-14 0.0000000000000000e+00  3.1622776601683737e+00 -1.2737284529062926e-13 0.0000000000000000e+00  3.1622776601683906e+00 2.0607954008523297e-13 0.0000000000000000e+00  3.1622776601683631e+00 -3.2888415522524028e-13 0.0000000000000000e+00  3.1622776601684084e+00 5.5754849725604372e-13 0.0000000000000000e+00  3.1622776601683324e+00 -9.2952312789827774e-13 0.0000000000000000e+00  3.1622776601684581e+00 1.5462916072747782e-12 0.0000000000000000e+00  3.1622776601682512e+00 -2.5502169047128678e-12 0.0000000000000000e+00  3.1622776601685922e+00 4.2110851682125077e-12 0.0000000000000000e+00  3.1622776601680300e+00 -6.9403708714869913e-12 0.0000000000000000e+00  3.1622776601689564e+00 1.1437329245066922e-11 0.0000000000000000e+00  3.1622776601674301e+00 -1.8830795246488550e-11 0.0000000000000000e+00  3.1622776601699440e+00 3.0988085755539612e-11 0.0000000000000000e+00  3.1622776601658060e+00 -5.0982067066706603e-11 0.0000000000000000e+00  3.1622776601726121e+00 8.3795239218842892e-11 0.0000000000000000e+00  3.1622776601614282e+00 -1.3767815358402968e-10 0.0000000000000000e+00  3.1622776601797913e+00 2.2601335731884635e-10 0.0000000000000000e+00  3.1622776601496629e+00 -3.7070101905514526e-10 0.0000000000000000e+00  3.1622776601990545e+00 6.0753074474681933e-10 0.0000000000000000e+00  3.1622776601181526e+00 -9.9479727473271507e-10 0.0000000000000000e+00  3.1622776602505520e+00 1.6274809289340860e-09 0.0000000000000000e+00  3.1622776600340678e+00 -2.6601427800634045e-09 0.0000000000000000e+00  3.1622776603877090e+00 4.3439706074953569e-09 0.0000000000000000e+00  3.1622776598105680e+00 -7.0867188239477098e-09 0.0000000000000000e+00  3.1622776607515228e+00 1.1549545487446834e-08 0.0000000000000000e+00  3.1622776592190021e+00 -1.8803088314950078e-08 0.0000000000000000e+00  3.1622776617123178e+00 3.0578776003434772e-08 0.0000000000000000e+00  3.1622776576603751e+00 -4.9672814839032878e-08 0.0000000000000000e+00  3.1622776642376382e+00 8.0594550527949452e-08 0.0000000000000000e+00  3.1622776535740722e+00 -1.3060493991926356e-07 0.0000000000000000e+00  3.1622776708409246e+00 2.1137729037504559e-07 0.0000000000000000e+00  3.1622776429184345e+00 -3.4164735666814603e-07 0.0000000000000000e+00  3.1622776880105503e+00 5.5143384891733233e-07 0.0000000000000000e+00  3.1622776152951837e+00 -8.8874534855258505e-07 0.0000000000000000e+00  3.1622777323805704e+00 1.4302133994030586e-06 0.0000000000000000e+00  3.1622775441457702e+00 -2.2979097436804384e-06 0.0000000000000000e+00  3.1622778462699817e+00 3.6858735581046227e-06 0.0000000000000000e+00  3.1622773621814382e+00 -5.9018420403434227e-06 0.0000000000000000e+00  3.1622781364300065e+00 9.4326973184259484e-06 0.0000000000000000e+00  3.1622769004481213e+00 -1.5046797720305966e-05 0.0000000000000000e+00  3.1622788695876327e+00 2.3953398851118188e-05 0.0000000000000000e+00  3.1622757389951319e+00 -3.8050202137942686e-05 0.0000000000000000e+00  3.1622807050487776e+00 6.0305983860879159e-05 0.0000000000000000e+00  3.1622728458972302e+00 -9.5350097204420986e-05 0.0000000000000000e+00  3.1622852526805798e+00 1.5037492474988715e-04 0.0000000000000000e+00  3.1622657184647527e+00 -2.3651422354944930e-04 0.0000000000000000e+00  3.1622963885033513e+00 3.7092704344648058e-04 0.0000000000000000e+00  3.1622483781891084e+00 -5.7995237121267692e-04 0.0000000000000000e+00  3.1623232934606054e+00 9.0379451377097788e-04 0.0000000000000000e+00  3.1622067939470822e+00 -1.4035677520445209e-03 0.0000000000000000e+00  3.1623872996649918e+00 2.1714585586876832e-03 0.0000000000000000e+00  3.1621087203349574e+00 -3.3460416313934095e-03 0.0000000000000000e+00  3.1625368442252575e+00 5.1331615197815110e-03 0.0000000000000000e+00  3.1618819120606330e+00 -7.8384468449456141e-03 0.0000000000000000e+00  3.1628788569781072e+00 1.1906261926443234e-02 0.0000000000000000e+00  3.1613695166321145e+00 -1.7988392742264572e-02 0.0000000000000000e+00  3.1636412041353492e+00 2.7001525426305642e-02 0.0000000000000000e+00  3.1602443950449497e+00 -4.0280058640670371e-02 0.0000000000000000e+00  3.1652876676627799e+00 5.9593884515432627e-02 0.0000000000000000e+00  3.1578597922554645e+00 -8.7544997077805567e-02 0.0000000000000000e+00  3.1687047198342522e+00 1.2719523925058146e-01 0.0000000000000000e+00  3.1530304513258085e+00 -1.8334780252801064e-01 0.0000000000000000e+00  3.1754364979448075e+00 2.6021415826088762e-01 0.0000000000000000e+00  3.1438276696468193e+00 -3.6620838624249208e-01 0.0000000000000000e+00  3.1877816584929710e+00 5.0360018075179480e-01 0.0000000000000000e+00  3.1277468510507460e+00 -6.8668169550322178e-01 0.0000000000000000e+00  3.2081348697918703e+00 9.0326417116438962e-01 0.0000000000000000e+00  3.1032275898362642e+00 -1.1777133435832798e+00 0.0000000000000000e+00  3.2361304065050369e+00 1.4494885567602616e+00 0.0000000000000000e+00  3.0744029480205617e+00 -1.7589058106324171e+00 0.0000000000000000e+00  3.2613763154442537e+00 1.9397094967646171e+00 0.0000000000000000e+00  3.0602744997585933e+00 -2.0308226104713158e+00 0.0000000000000000e+00  3.2503354003230207e+00 1.8158419405946411e+00 0.0000000000000000e+00  3.0927062876495066e+00 -9.0671977945146021e-01 0.0000000000000000e+00  3.1127508051240742e+00 9.3242265992228779e-01 0.0000000000000000e+00  3.0805600282279717e+00 4.5890121393086289e+00 0.0000000000000000e+00  2.6488141240564116e+00 3.7452214055962005e+00 0.0000000000000000e+00  2.6550126099437854e+00 1.2125323170970528e+01 0.0000000000000000e+00  2.3816598522537449e+00 1.4372414656940707e+01 0.0000000000000000e+00  1.6083993053204233e+00 7.0545572360518758e+00 0.0000000000000000e+00  2.3665800377694861e+00 2.0512010450387908e+01 0.0000000000000000e+00  2.3276741482262677e+00 2.0330151688762857e+01 0.0000000000000000e+00  1.2007021664937370e+00 5.3325150771203055e-02 0.0000000000000000e+00  9.2620473511505141e-01 1.3040588499321407e-01 0.0000000000000000e+00  1.0306222654014372e+00 -1.1110649457579411e-01 0.0000000000000000e+00  9.8581349703734789e-01 7.1573632061618139e-02 0.0000000000000000e+00  1.0070655659305261e+00 -4.0516444226443751e-02 0.0000000000000000e+00  9.9638980793934617e-01 2.1904141911740289e-02 0.0000000000000000e+00  1.0018462593184607e+00 -1.1417390898726430e-02 0.0000000000000000e+00  9.9906630668194385e-01 5.8231161285501034e-03 0.0000000000000000e+00  1.0004652731315369e+00 -2.9089315120234744e-03 0.0000000000000000e+00  9.9977170831197071e-01 1.4290500679219403e-03 0.0000000000000000e+00  1.0001103802282214e+00 -6.9115542659744318e-04 0.0000000000000000e+00  9.9994735021990910e-01 3.2973014912881431e-04 0.0000000000000000e+00  1.0000248053703218e+00 -1.5535354184615261e-04 0.0000000000000000e+00  9.9998844301967349e-01 7.2382151141530334e-05 0.0000000000000000e+00  1.0000053303691290e+00 -3.3384545896385080e-05 0.0000000000000000e+00  9.9999756388475791e-01 1.5257656476503813e-05 0.0000000000000000e+00  1.0000011041624095e+00 -6.9154902396218822e-06 0.0000000000000000e+00  9.9999950330895093e-01 3.1108325963347423e-06 0.0000000000000000e+00  1.0000002218931314e+00 -1.3897418730663896e-06 0.0000000000000000e+00  9.9999990149501483e-01 6.1694797440262413e-07 0.0000000000000000e+00  1.0000000434763723e+00 -2.7229748173514830e-07 0.0000000000000000e+00  9.9999998091342379e-01 1.1954140951418942e-07 0.0000000000000000e+00  1.0000000083379577e+00 -5.2221579482541453e-08 0.0000000000000000e+00  9.9999999637417669e-01 2.2708946195939980e-08 0.0000000000000000e+00  1.0000000015700412e+00 -9.8333472415427963e-09 0.0000000000000000e+00  9.9999999932282591e-01 4.2412206985101267e-09 0.0000000000000000e+00  1.0000000002909981e+00 -1.8225550614353084e-09 0.0000000000000000e+00  9.9999999987538102e-01 7.8050504868902864e-10 0.0000000000000000e+00  1.0000000000531959e+00 -3.3317237982125703e-10 0.0000000000000000e+00  9.9999999997736111e-01 1.4179018472137805e-10 0.0000000000000000e+00  1.0000000000096072e+00 -6.0172243292051153e-11 0.0000000000000000e+00  9.9999999999593381e-01 2.5467362663958047e-11 0.0000000000000000e+00  1.0000000000017166e+00 -1.0750370568279065e-11 0.0000000000000000e+00  9.9999999999927713e-01 4.5268876369995813e-12 0.0000000000000000e+00  1.0000000000003040e+00 -1.9032845911821943e-12 0.0000000000000000e+00  9.9999999999987288e-01 7.9703041970722803e-13 0.0000000000000000e+00  1.0000000000000535e+00 -3.3285610192785582e-13 0.0000000000000000e+00  9.9999999999997802e-01 1.4060919526350059e-13 0.0000000000000000e+00  1.0000000000000093e+00 -5.8032289924533424e-14 0.0000000000000000e+00  9.9999999999999611e-01 2.3473323543614514e-14 0.0000000000000000e+00  1.0000000000000018e+00 -1.1370456223237215e-14 0.0000000000000000e+00  9.9999999999999956e-01 5.1990872838280276e-15 0.0000000000000000e+00  1.0000000000000002e+00 -7.3340206056439494e-16 0.0000000000000000e+00  1.0000000000000000e+00 5.7255184409224717e-16 0.0000000000000000e+00  1.0000000000000000e+00 -1.0247437744494432e-15 0.0000000000000000e+00  1.0000000000000002e+00 -1.1335002530975382e-15 0.0000000000000000e+00  1.0000000000000002e+00 1.1751032304129213e-15 0.0000000000000000e+00  1.0000000000000000e+00 8.5026114588601714e-16 0.0000000000000000e+00  1.0000000000000000e+00 -2.3678172273413987e-18 0.0000000000000000e+00  1.0000000000000000e+00 -8.4273732990122776e-16 0.0000000000000000e+00  1.0000000000000002e+00 -1.1941434753209061e-15 0.0000000000000000e+00  1.0000000000000002e+00 1.1864048351014986e-15 0.0000000000000000e+00  1.0000000000000000e+00 8.6965293459508904e-16 0.0000000000000000e+00  1.0000000000000000e+00 -6.3176045243617105e-17 0.0000000000000000e+00  1.0000000000000000e+00 -6.3530137997248486e-16 0.0000000000000000e+00  1.0000000000000002e+00 -1.6571786983846881e-15 0.0000000000000000e+00  1.0000000000000002e+00 2.2376594915986004e-15 0.0000000000000000e+00  1.0000000000000000e+00 -1.7214713986697672e-15 0.0000000000000000e+00  1.0000000000000004e+00 3.5004942379616946e-16 0.0000000000000000e+00  1.0000000000000000e+00 1.2228813475283568e-16 0.0000000000000000e+00  1.0000000000000004e+00 -8.7008853167213739e-16 0.0000000000000000e+00  1.0000000000000000e+00 1.9212731601418167e-15 0.0000000000000000e+00  1.0000000000000002e+00 -2.1578151162271750e-15 0.0000000000000000e+00  1.0000000000000002e+00 2.3665941704707122e-15 0.0000000000000000e+00  1.0000000000000000e+00 -1.7242368821185973e-15 0.0000000000000000e+00  1.0000000000000004e+00 -3.3167891798392465e-16 0.0000000000000000e+00  1.0000000000000002e+00 1.7483141679940492e-15 0.0000000000000000e+00  1.0000000000000002e+00 -1.9467427559382077e-15 0.0000000000000000e+00  1.0000000000000002e+00 1.9146823137332024e-15 0.0000000000000000e+00  1.0000000000000002e+00 -1.7047440885936523e-15 0.0000000000000000e+00  1.0000000000000004e+00 1.1071387260535348e-16 0.0000000000000000e+00  1.0000000000000000e+00 1.6623445434820055e-15 0.0000000000000000e+00  1.0000000000000002e+00 -1.9849004454738753e-15 0.0000000000000000e+00  1.0000000000000002e+00 1.9156204303967502e-15 0.0000000000000000e+00  1.0000000000000002e+00 -1.7031733727687655e-15 0.0000000000000000e+00  1.0000000000000004e+00 1.0984675620884999e-16 0.0000000000000000e+00  1.0000000000000000e+00 1.6627097806218488e-15 0.0000000000000000e+00  1.0000000000000002e+00 -1.9850426557229803e-15 0.0000000000000000e+00  1.0000000000000002e+00 1.9156737411109638e-15 0.0000000000000000e+00  1.0000000000000002e+00 -1.7031920635831585e-15 0.0000000000000000e+00  1.0000000000000004e+00 1.0985087430499197e-16 0.0000000000000000e+00  1.0000000000000000e+00 1.6627148177021323e-15 0.0000000000000000e+00  1.0000000000000002e+00 -1.9850598904466700e-15 0.0000000000000000e+00  1.0000000000000002e+00 1.9157162010473262e-15 0.0000000000000000e+00  1.0000000000000002e+00 -1.7032924986887490e-15 0.0000000000000000e+00  1.0000000000000004e+00 1.1008695420986055e-16 0.0000000000000000e+00  1.0000000000000000e+00 1.6621603254089933e-15 0.0000000000000000e+00  1.0000000000000002e+00 -1.9837564882691058e-15 0.0000000000000000e+00  1.0000000000000002e+00 1.9126446301903851e-15 0.0000000000000000e+00  1.0000000000000002e+00 -1.6960082155445324e-15 0.0000000000000000e+00  1.0000000000000004e+00 9.2534477465389521e-17 0.0000000000000000e+00  1.0000000000000000e+00 1.7062096255657671e-15 0.0000000000000000e+00  1.0000000000000002e+00 -2.1056070341419355e-15 0.0000000000000000e+00  1.0000000000000002e+00 2.3211257534305808e-15 0.0000000000000000e+00  1.0000000000000000e+00 -1.8027181440181287e-15 0.0000000000000000e+00  1.0000000000000004e+00 4.7950233808976747e-17 0.0000000000000000e+00  1.0000000000000000e+00 1.0289002746724789e-15 0.0000000000000000e+00  1.0000000000000002e+00 0.0000000000000000e+00 0.0000000000000000e+00  </DataArray> 
</PointData> 
</Piece>
</UnstructuredGrid>
</VTKFile>