<?xml version="1.0"?>
<VTKFile type="UnstructuredGrid"  version="0.1"  >
<UnstructuredGrid>
<Piece  NumberOfPoints="201" NumberOfCells="200">
<Points>
<DataArray  type="Float64"  NumberOfComponents="3"  format="ascii">-5 0 0  -4.95 0 0  -4.9 0 0  -4.85 0 0  -4.8 0 0  -4.75 0 0  -4.7 0 0  -4.65 0 0  -4.6 0 0  -4.55 0 0  -4.5 0 0  -4.45 0 0  -4.4 0 0  -4.35 0 0  -4.3 0 0  -4.25 0 0  -4.2 0 0  -4.15 0 0  -4.1 0 0  -4.05 0 0  -4 0 0  -3.95 0 0  -3.9 0 0  -3.85 0 0  -3.8 0 0  -3.75 0 0  -3.7 0 0  -3.65 0 0  -3.6 0 0  -3.55 0 0  -3.5 0 0  -3.45 0 0  -3.4 0 0  -3.35 0 0  -3.3 0 0  -3.25 0 0  -3.2 0 0  -3.15 0 0  -3.1 0 0  -3.05 0 0  -3 0 0  -2.95 0 0  -2.9 0 0  -2.85 0 0  -2.8 0 0  -2.75 0 0  -2.7 0 0  -2.65 0 0  -2.6 0 0  -2.55 0 0  -2.5 0 0  -2.45 0 0  -2.4 0 0  -2.35 0 0  -2.3 0 0  -2.25 0 0  -2.2 0 0  -2.15 0 0  -2.1 0 0  -2.05 0 0  -2 0 0  -1.95 0 0  -1.9 0 0  -1.85 0 0  -1.8 0 0  -1.75 0 0  -1.7 0 0  -1.65 0 0  -1.6 0 0  -1.55 0 0  -1.5 0 0  -1.45 0 0  -1.4 0 0  -1.35 0 0  -1.3 0 0  -1.25 0 0  -1.2 0 0  -1.15 0 0  -1.1 0 0  -1.05 0 0  -1 0 0  -0.9500000000000002 0 0  -0.9000000000000004 0 0  -0.8499999999999996 0 0  -0.7999999999999998 0 0  -0.75 0 0  -0.7000000000000002 0 0  -0.6500000000000004 0 0  -0.5999999999999996 0 0  -0.5499999999999998 0 0  -0.5 0 0  -0.4500000000000002 0 0  -0.4000000000000004 0 0  -0.3499999999999996 0 0  -0.2999999999999998 0 0  -0.25 0 0  -0.2000000000000002 0 0  -0.1500000000000004 0 0  -0.09999999999999964 0 0  -0.04999999999999982 0 0  0 0 0  0.04999999999999982 0 0  0.09999999999999964 0 0  0.1500000000000004 0 0  0.2000000000000002 0 0  0.25 0 0  0.2999999999999998 0 0  0.3499999999999996 0 0  0.4000000000000004 0 0  0.4500000000000002 0 0  0.5 0 0  0.5499999999999998 0 0  0.5999999999999996 0 0  0.6500000000000004 0 0  0.7000000000000002 0 0  0.75 0 0  0.7999999999999998 0 0  0.8499999999999996 0 0  0.9000000000000004 0 0  0.9500000000000002 0 0  1 0 0  1.05 0 0  1.1 0 0  1.15 0 0  1.2 0 0  1.25 0 0  1.3 0 0  1.35 0 0  1.4 0 0  1.45 0 0  1.5 0 0  1.55 0 0  1.6 0 0  1.65 0 0  1.7 0 0  1.75 0 0  1.8 0 0  1.85 0 0  1.9 0 0  1.95 0 0  2 0 0  2.05 0 0  2.1 0 0  2.15 0 0  2.2 0 0  2.25 0 0  2.3 0 0  2.35 0 0  2.4 0 0  2.45 0 0  2.5 0 0  2.55 0 0  2.6 0 0  2.65 0 0  2.7 0 0  2.75 0 0  2.8 0 0  2.85 0 0  2.9 0 0  2.95 0 0  3 0 0  3.050000000000001 0 0  3.1 0 0  3.15 0 0  3.199999999999999 0 0  3.25 0 0  3.300000000000001 0 0  3.35 0 0  3.4 0 0  3.449999999999999 0 0  3.5 0 0  3.550000000000001 0 0  3.6 0 0  3.65 0 0  3.699999999999999 0 0  3.75 0 0  3.800000000000001 0 0  3.85 0 0  3.9 0 0  3.949999999999999 0 0  4 0 0  4.050000000000001 0 0  4.1 0 0  4.15 0 0  4.199999999999999 0 0  4.25 0 0  4.300000000000001 0 0  4.35 0 0  4.4 0 0  4.449999999999999 0 0  4.5 0 0  4.550000000000001 0 0  4.6 0 0  4.65 0 0  4.699999999999999 0 0  4.75 0 0  4.800000000000001 0 0  4.85 0 0  4.9 0 0  4.949999999999999 0 0  5 0 0  </DataArray>
</Points>
<Cells>
<DataArray  type="UInt32"  Name="connectivity"  format="ascii">0 1  1 2  2 3  3 4  4 5  5 6  6 7  7 8  8 9  9 10  10 11  11 12  12 13  13 14  14 15  15 16  16 17  17 18  18 19  19 20  20 21  21 22  22 23  23 24  24 25  25 26  26 27  27 28  28 29  29 30  30 31  31 32  32 33  33 34  34 35  35 36  36 37  37 38  38 39  39 40  40 41  41 42  42 43  43 44  44 45  45 46  46 47  47 48  48 49  49 50  50 51  51 52  52 53  53 54  54 55  55 56  56 57  57 58  58 59  59 60  60 61  61 62  62 63  63 64  64 65  65 66  66 67  67 68  68 69  69 70  70 71  71 72  72 73  73 74  74 75  75 76  76 77  77 78  78 79  79 80  80 81  81 82  82 83  83 84  84 85  85 86  86 87  87 88  88 89  89 90  90 91  91 92  92 93  93 94  94 95  95 96  96 97  97 98  98 99  99 100  100 101  101 102  102 103  103 104  104 105  105 106  106 107  107 108  108 109  109 110  110 111  111 112  112 113  113 114  114 115  115 116  116 117  117 118  118 119  119 120  120 121  121 122  122 123  123 124  124 125  125 126  126 127  127 128  128 129  129 130  130 131  131 132  132 133  133 134  134 135  135 136  136 137  137 138  138 139  139 140  140 141  141 142  142 143  143 144  144 145  145 146  146 147  147 148  148 149  149 150  150 151  151 152  152 153  153 154  154 155  155 156  156 157  157 158  158 159  159 160  160 161  161 162  162 163  163 164  164 165  165 166  166 167  167 168  168 169  169 170  170 171  171 172  172 173  173 174  174 175  175 176  176 177  177 178  178 179  179 180  180 181  181 182  182 183  183 184  184 185  185 186  186 187  187 188  188 189  189 190  190 191  191 192  192 193  193 194  194 195  195 196  196 197  197 198  198 199  199 200  </DataArray>
<DataArray  type="UInt32"  Name="offsets"  format="ascii">2 4 6 8 10 12 14 16 18 20 22 24 26 28 30 32 34 36 38 40 42 44 46 48 50 52 54 56 58 60 62 64 66 68 70 72 74 76 78 80 82 84 86 88 90 92 94 96 98 100 102 104 106 108 110 112 114 116 118 120 122 124 126 128 130 132 134 136 138 140 142 144 146 148 150 152 154 156 158 160 162 164 166 168 170 172 174 176 178 180 182 184 186 188 190 192 194 196 198 200 202 204 206 208 210 212 214 216 218 220 222 224 226 228 230 232 234 236 238 240 242 244 246 248 250 252 254 256 258 260 262 264 266 268 270 272 274 276 278 280 282 284 286 288 290 292 294 296 298 300 302 304 306 308 310 312 314 316 318 320 322 324 326 328 330 332 334 336 338 340 342 344 346 348 350 352 354 356 358 360 362 364 366 368 370 372 374 376 378 380 382 384 386 388 390 392 394 396 398 400 </DataArray>
<DataArray  type="UInt8"  Name="types"  format="ascii">3 3 3 3 3 3 3 3 3 3 3 3 3 3 3 3 3 3 3 3 3 3 3 3 3 3 3 3 3 3 3 3 3 3 3 3 3 3 3 3 3 3 3 3 3 3 3 3 3 3 3 3 3 3 3 3 3 3 3 3 3 3 3 3 3 3 3 3 3 3 3 3 3 3 3 3 3 3 3 3 3 3 3 3 3 3 3 3 3 3 3 3 3 3 3 3 3 3 3 3 3 3 3 3 3 3 3 3 3 3 3 3 3 3 3 3 3 3 3 3 3 3 3 3 3 3 3 3 3 3 3 3 3 3 3 3 3 3 3 3 3 3 3 3 3 3 3 3 3 3 3 3 3 3 3 3 3 3 3 3 3 3 3 3 3 3 3 3 3 3 3 3 3 3 3 3 3 3 3 3 3 3 3 3 3 3 3 3 3 3 3 3 3 3 3 3 3 3 3 3 </DataArray>
</Cells>
<PointData  Vectors="(s, w)"> 
<DataArray  type="Float64"  Name="(s, w)"  NumberOfComponents="3" format="ascii">3.1875021963865686e+00 0.0000000000000000e+00 0.0000000000000000e+00  3.1405829284236151e+00 -6.4116306001117160e-02 0.0000000000000000e+00  3.1754698687432872e+00 1.2582111908911903e-01 0.0000000000000000e+00  3.1614559454474054e+00 -1.3699568148792479e-01 0.0000000000000000e+00  3.1501797099543816e+00 1.4187612465225011e-01 0.0000000000000000e+00  3.1846080102160950e+00 -1.0240854501114077e-01 0.0000000000000000e+00  3.1344397257193033e+00 5.2654973011647052e-02 0.0000000000000000e+00  3.1890804268931729e+00 -1.1784317652938688e-02 0.0000000000000000e+00  3.1425757894451261e+00 -4.3100748912450533e-02 0.0000000000000000e+00  3.1705104001983759e+00 5.5638970288135990e-02 0.0000000000000000e+00  3.1673369531734572e+00 -7.9211363914213392e-02 0.0000000000000000e+00  3.1456135134991277e+00 8.5052506998605393e-02 0.0000000000000000e+00  3.1863365279560401e+00 -8.8869679793222883e-02 0.0000000000000000e+00  3.1370315701717444e+00 1.1600326435563314e-01 0.0000000000000000e+00  3.1826460830014773e+00 -1.2126851705722613e-01 0.0000000000000000e+00  3.1520607216069378e+00 1.4451936593874617e-01 0.0000000000000000e+00  3.1603931545413300e+00 -1.2719276229714724e-01 0.0000000000000000e+00  3.1757920563410322e+00 8.9240710969422196e-02 0.0000000000000000e+00  3.1400225155731198e+00 3.5773087525232026e-03 0.0000000000000000e+00  3.1858302089893313e+00 -8.7109445526483475e-02 0.0000000000000000e+00  3.1376208751480656e+00 2.6232917761932179e-01 0.0000000000000000e+00  3.1737658510708480e+00 -2.3300823145258420e-01 0.0000000000000000e+00  3.1490299768984982e+00 4.5022885852626038e-01 0.0000000000000000e+00  3.1505274085300319e+00 -6.8000541341869586e-02 0.0000000000000000e+00  3.1553915953873664e+00 3.9684601679897064e-01 0.0000000000000000e+00  3.1305073280951996e+00 5.1573997589333931e-01 0.0000000000000000e+00  3.1444000660589420e+00 2.5047101609802996e-01 0.0000000000000000e+00  3.1147471728911986e+00 1.2268865471496169e+00 0.0000000000000000e+00  3.1217509950221252e+00 4.2836220096867855e-01 0.0000000000000000e+00  3.0948095919861092e+00 1.6215958049496306e+00 0.0000000000000000e+00  3.0970705388675608e+00 1.1525606190178632e+00 0.0000000000000000e+00  3.0713067803970269e+00 1.6610182716564332e+00 0.0000000000000000e+00  3.0660753191933940e+00 2.0934191715995079e+00 0.0000000000000000e+00  3.0560418801265752e+00 1.8047630020669907e+00 0.0000000000000000e+00  3.0223224910305486e+00 2.7319180639506944e+00 0.0000000000000000e+00  3.0470138711427310e+00 2.3558013636222781e+00 0.0000000000000000e+00  2.9817898195906105e+00 3.0536602589511954e+00 0.0000000000000000e+00  3.0198352849794339e+00 3.0389004441824223e+00 0.0000000000000000e+00  2.9675485149134277e+00 3.4314523940909987e+00 0.0000000000000000e+00  2.9663693634511668e+00 3.5872632375830418e+00 0.0000000000000000e+00  2.9676708491001378e+00 3.8456138582921096e+00 0.0000000000000000e+00  2.9174021324923429e+00 4.2419070034788060e+00 0.0000000000000000e+00  2.9471857749227217e+00 4.0262679689949188e+00 0.0000000000000000e+00  2.8946080634120546e+00 5.0502022564448490e+00 0.0000000000000000e+00  2.9061913554352654e+00 4.3089169216271888e+00 0.0000000000000000e+00  2.8778077750196118e+00 5.4274272818043494e+00 0.0000000000000000e+00  2.8705283403523283e+00 5.1700668927154130e+00 0.0000000000000000e+00  2.8552036795469404e+00 5.3159750633378886e+00 0.0000000000000000e+00  2.8324118278950627e+00 6.1103776251672244e+00 0.0000000000000000e+00  2.8444518633886284e+00 5.5496148903966045e+00 0.0000000000000000e+00  2.7820344053806760e+00 6.4735405143263396e+00 0.0000000000000000e+00  2.8308977348441942e+00 6.2324522368012678e+00 0.0000000000000000e+00  2.7566965746449092e+00 6.7007806969596233e+00 0.0000000000000000e+00  2.7789643535731967e+00 6.7231621867074152e+00 0.0000000000000000e+00  2.7637242545649006e+00 7.1079611354896715e+00 0.0000000000000000e+00  2.7188384459133657e+00 7.2880560238658854e+00 0.0000000000000000e+00  2.7508058620705671e+00 7.1504042570808775e+00 0.0000000000000000e+00  2.6920331895396248e+00 8.1764548218270008e+00 0.0000000000000000e+00  2.7140036874917737e+00 7.2480320809551220e+00 0.0000000000000000e+00  2.6693191067052378e+00 8.4642543037333056e+00 0.0000000000000000e+00  2.6834271983383875e+00 8.1430677758368226e+00 0.0000000000000000e+00  2.6489738333601429e+00 8.2305709638465192e+00 0.0000000000000000e+00  2.6312309280517030e+00 8.9142849319837012e+00 0.0000000000000000e+00  2.6580241111052905e+00 8.5545756316711969e+00 0.0000000000000000e+00  2.5689349587300288e+00 9.1827465083449074e+00 0.0000000000000000e+00  2.6408997555966418e+00 8.9175021430246861e+00 0.0000000000000000e+00  2.5590198530646870e+00 9.7326215380331913e+00 0.0000000000000000e+00  2.5783374932486773e+00 9.1319021705898535e+00 0.0000000000000000e+00  2.5606734715099546e+00 9.8457771099771456e+00 0.0000000000000000e+00  2.5336383581544775e+00 1.0111990969407067e+01 0.0000000000000000e+00  2.5430026871962017e+00 9.4705237609980930e+00 0.0000000000000000e+00  2.4864808791847630e+00 1.0786787481881296e+01 0.0000000000000000e+00  2.5428177847532596e+00 9.9824060116331594e+00 0.0000000000000000e+00  2.4411094767763557e+00 1.0735749670271822e+01 0.0000000000000000e+00  2.5018468098221529e+00 1.0494082143194538e+01 0.0000000000000000e+00  2.4569864722519568e+00 1.1113174964639329e+01 0.0000000000000000e+00  2.4224758892491876e+00 1.0816309716628078e+01 0.0000000000000000e+00  2.4607782252630344e+00 1.0938048363687663e+01 0.0000000000000000e+00  2.3804772993537875e+00 1.1883867197010426e+01 0.0000000000000000e+00  2.4460041738802420e+00 1.0660626958504912e+01 0.0000000000000000e+00  2.3225320037930266e+00 1.2147562604900507e+01 0.0000000000000000e+00  2.4504691231927311e+00 1.1353841882574981e+01 0.0000000000000000e+00  2.2887537193001828e+00 1.2263139016133465e+01 0.0000000000000000e+00  2.3943705011502372e+00 1.1351653046379846e+01 0.0000000000000000e+00  2.3019309860699031e+00 1.2879898984504802e+01 0.0000000000000000e+00  2.3510752835382895e+00 1.1836626135502350e+01 0.0000000000000000e+00  2.2630181792983870e+00 1.2372835575269045e+01 0.0000000000000000e+00  2.3298943037631497e+00 1.2711086249705399e+01 0.0000000000000000e+00  2.2630430509649027e+00 1.2749205243194751e+01 0.0000000000000000e+00  2.2517665830521918e+00 1.2274573259558251e+01 0.0000000000000000e+00  2.2650908204865621e+00 1.3330054467327576e+01 0.0000000000000000e+00  2.2411565778133098e+00 1.3004491084532271e+01 0.0000000000000000e+00  2.1940306850310454e+00 1.2585919105100251e+01 0.0000000000000000e+00  2.2360063387853977e+00 1.3722387459907548e+01 0.0000000000000000e+00  2.1934329499744734e+00 1.3289866103220726e+01 0.0000000000000000e+00  2.1495014813560704e+00 1.2767923928181686e+01 0.0000000000000000e+00  2.2101517901937031e+00 1.4346018323391874e+01 0.0000000000000000e+00  2.1418160814935510e+00 1.3363872681219462e+01 0.0000000000000000e+00  2.0943615010365790e+00 1.2802921673341762e+01 0.0000000000000000e+00  2.1990809530683526e+00 1.5295409491972229e+01 0.0000000000000000e+00  2.0737018453401079e+00 1.3474515058810590e+01 0.0000000000000000e+00  2.0261722660229964e+00 1.2379768953808462e+01 0.0000000000000000e+00  2.2045903319843956e+00 1.6445228884991884e+01 0.0000000000000000e+00  2.0761265832815594e+00 1.3560879450431424e+01 0.0000000000000000e+00  1.9519556636831361e+00 1.1299950395942879e+01 0.0000000000000000e+00  2.2511990630368839e+00 1.7136221456989038e+01 0.0000000000000000e+00  2.1039501298528402e+00 1.4464696093833117e+01 0.0000000000000000e+00  1.8696360065926227e+00 9.7712739101012343e+00 0.0000000000000000e+00  2.2390002719605384e+00 1.7287120765281916e+01 0.0000000000000000e+00  2.1902251213224884e+00 1.6239633508973213e+01 0.0000000000000000e+00  1.7856970525544249e+00 8.4763673279128113e+00 0.0000000000000000e+00  2.1743857507762709e+00 1.6075119657221748e+01 0.0000000000000000e+00  2.3029041507593888e+00 1.8761820112482624e+01 0.0000000000000000e+00  1.7600173394219696e+00 8.0822924779071030e+00 0.0000000000000000e+00  2.0296852764473603e+00 1.3453654062281990e+01 0.0000000000000000e+00  2.4169996789735588e+00 2.1144827838811491e+01 0.0000000000000000e+00  1.8143765542803996e+00 9.3827939432739207e+00 0.0000000000000000e+00  1.8400356137413143e+00 9.8203040055930142e+00 0.0000000000000000e+00  2.4620139785810804e+00 2.2296167579909955e+01 0.0000000000000000e+00  1.9770224183605107e+00 1.2610148141639744e+01 0.0000000000000000e+00  1.6483552200460125e+00 6.3684197876442115e+00 0.0000000000000000e+00  2.3886053746346740e+00 2.0910069711256856e+01 0.0000000000000000e+00  2.2179144426564865e+00 1.7529432132744212e+01 0.0000000000000000e+00  1.5437252153388694e+00 4.5468544247595224e+00 0.0000000000000000e+00  2.1548206422762624e+00 1.6394594924056147e+01 0.0000000000000000e+00  2.4725516733730655e+00 2.2766343903219241e+01 0.0000000000000000e+00  1.6069269601420870e+00 5.9832052278648531e+00 0.0000000000000000e+00  1.8014762030095912e+00 9.5816994027673719e+00 0.0000000000000000e+00  2.5938044275505456e+00 2.5527438602756376e+01 0.0000000000000000e+00  1.8999089367031479e+00 1.1598833935160458e+01 0.0000000000000000e+00  1.4631703836268424e+00 3.5363628569649794e+00 0.0000000000000000e+00  2.4201976143221429e+00 2.2069998943479860e+01 0.0000000000000000e+00  2.3484268674246151e+00 2.0581586039471841e+01 0.0000000000000000e+00  1.3754261420079075e+00 2.2437217544904779e+00 0.0000000000000000e+00  1.9179903757829808e+00 1.2175760059862091e+01 0.0000000000000000e+00  2.6830839719338933e+00 2.7788214435967948e+01 0.0000000000000000e+00  1.7154912028547318e+00 8.5012902166002196e+00 0.0000000000000000e+00  1.3728641923418594e+00 2.3989519949215441e+00 0.0000000000000000e+00  2.4982098647324840e+00 2.4062135913095673e+01 0.0000000000000000e+00  2.3721128317773466e+00 2.1304073068955777e+01 0.0000000000000000e+00  1.2543743011062023e+00 7.8495324663927257e-01 0.0000000000000000e+00  1.7762874736591525e+00 9.6944928059544964e+00 0.0000000000000000e+00  2.7655581318840281e+00 3.0077726068258329e+01 0.0000000000000000e+00  1.8302895473965126e+00 1.0739010083614033e+01 0.0000000000000000e+00  1.1572389210071987e+00 -4.9509811903399092e-01 0.0000000000000000e+00  2.2573269848965865e+00 1.9146540422513166e+01 0.0000000000000000e+00  2.6615165986672880e+00 2.7827589749141026e+01 0.0000000000000000e+00  1.3888154125201084e+00 3.2000512608043730e+00 0.0000000000000000e+00  1.3104834342621869e+00 1.9509444067684862e+00 0.0000000000000000e+00  2.6099619018384996e+00 2.6790703115966387e+01 0.0000000000000000e+00  2.3788056581752266e+00 2.1649812945856244e+01 0.0000000000000000e+00  1.1294289063200245e+00 -4.7016082870913267e-01 0.0000000000000000e+00  1.5321851291104407e+00 5.5041772830555669e+00 0.0000000000000000e+00  2.7867734982170798e+00 3.0981200816055019e+01 0.0000000000000000e+00  2.1032611885624095e+00 1.5915198748158707e+01 0.0000000000000000e+00  1.0102703621326672e+00 -1.7704468636272579e+00 0.0000000000000000e+00  1.7114049312801136e+00 8.5195797659147505e+00 0.0000000000000000e+00  2.8473495468916776e+00 3.2551346441826311e+01 0.0000000000000000e+00  1.9149279105952861e+00 1.2193525246608504e+01 0.0000000000000000e+00  9.6724283157826074e-01 -2.0899517646813219e+00 0.0000000000000000e+00  1.8264065440025439e+00 1.0536595984364203e+01 0.0000000000000000e+00  2.8574959897056060e+00 3.2836222935044972e+01 0.0000000000000000e+00  1.8023786403483979e+00 1.0113323487329497e+01 0.0000000000000000e+00  9.7842693418053650e-01 -2.0237976055750320e+00 0.0000000000000000e+00  1.9638315458485414e+00 1.3141710354991499e+01 0.0000000000000000e+00  2.8345697274468997e+00 3.2204194058377382e+01 0.0000000000000000e+00  1.6617041735403866e+00 7.6627751519610179e+00 0.0000000000000000e+00  1.0260993498726856e+00 -1.6144576532045622e+00 0.0000000000000000e+00  2.1716102990661610e+00 1.7299468123791314e+01 0.0000000000000000e+00  2.7635045253461015e+00 3.0663471109918088e+01 0.0000000000000000e+00  1.4981974873890818e+00 4.2805533084740226e+00 0.0000000000000000e+00  9.2949568043741115e-01 -7.1988535544941334e-01 0.0000000000000000e+00  1.0098507282686842e+00 1.5766688683958016e-01 0.0000000000000000e+00  9.9984349715938925e-01 -3.9258637733923692e-02 0.0000000000000000e+00  9.9894712286863363e-01 1.4008731727950396e-02 0.0000000000000000e+00  1.0010601315625882e+00 -7.9992543762532602e-03 0.0000000000000000e+00  9.9906122593531499e-01 6.1313606567719309e-03 0.0000000000000000e+00  1.0008162597588910e+00 -5.1566956709988600e-03 0.0000000000000000e+00  9.9930007081953809e-01 4.3931652893926003e-03 0.0000000000000000e+00  1.0005903412424291e+00 -3.6981577438323235e-03 0.0000000000000000e+00  9.9951069621452437e-01 3.0653528685086551e-03 0.0000000000000000e+00  1.0003989197832450e+00 -2.4981901530270662e-03 0.0000000000000000e+00  9.9967976219184973e-01 2.0059057232953842e-03 0.0000000000000000e+00  1.0002534627095125e+00 -1.5873237239513497e-03 0.0000000000000000e+00  9.9980201275397407e-01 1.2400844223577547e-03 0.0000000000000000e+00  1.0001527856333610e+00 -9.5684250722896907e-04 0.0000000000000000e+00  9.9988343238018174e-01 7.3006831376959326e-04 0.0000000000000000e+00  1.0000879934028746e+00 -5.5103997654362409e-04 0.0000000000000000e+00  9.9993424065391034e-01 4.1177828965004235e-04 0.0000000000000000e+00  1.0000486809732962e+00 -3.0475114443929491e-04 0.0000000000000000e+00  9.9996428206057764e-01 2.2349326590541838e-04 0.0000000000000000e+00  1.0000259894309154e+00 -1.6244158579153508e-04 0.0000000000000000e+00  9.9998123296337516e-01 1.1703074933604155e-04 0.0000000000000000e+00  1.0000134630131603e+00 -8.3539728462309802e-05 0.0000000000000000e+00  9.9999038778338933e-01 5.9014672925262646e-05 0.0000000000000000e+00  1.0000068540591915e+00 -4.1128228773109611e-05 0.0000000000000000e+00  9.9999508524440339e-01 2.8069934280368034e-05 0.0000000000000000e+00  1.0000035918615389e+00 -1.8431035896315600e-05 0.0000000000000000e+00  9.9999725870438227e-01 1.1107996480217793e-05 0.0000000000000000e+00  1.0000022672800797e+00 -5.2137000138697382e-06 0.0000000000000000e+00  9.9999788481172380e-01 0.0000000000000000e+00 0.0000000000000000e+00  </DataArray> 
</PointData> 
</Piece>
</UnstructuredGrid>
</VTKFile>