<?xml version="1.0"?>
<VTKFile type="UnstructuredGrid"  version="0.1"  >
<UnstructuredGrid>
<Piece  NumberOfPoints="201" NumberOfCells="200">
<Points>
<DataArray  type="Float64"  NumberOfComponents="3"  format="ascii">-5 0 0  -4.95 0 0  -4.9 0 0  -4.85 0 0  -4.8 0 0  -4.75 0 0  -4.7 0 0  -4.65 0 0  -4.6 0 0  -4.55 0 0  -4.5 0 0  -4.45 0 0  -4.4 0 0  -4.35 0 0  -4.3 0 0  -4.25 0 0  -4.2 0 0  -4.15 0 0  -4.1 0 0  -4.05 0 0  -4 0 0  -3.95 0 0  -3.9 0 0  -3.85 0 0  -3.8 0 0  -3.75 0 0  -3.7 0 0  -3.65 0 0  -3.6 0 0  -3.55 0 0  -3.5 0 0  -3.45 0 0  -3.4 0 0  -3.35 0 0  -3.3 0 0  -3.25 0 0  -3.2 0 0  -3.15 0 0  -3.1 0 0  -3.05 0 0  -3 0 0  -2.95 0 0  -2.9 0 0  -2.85 0 0  -2.8 0 0  -2.75 0 0  -2.7 0 0  -2.65 0 0  -2.6 0 0  -2.55 0 0  -2.5 0 0  -2.45 0 0  -2.4 0 0  -2.35 0 0  -2.3 0 0  -2.25 0 0  -2.2 0 0  -2.15 0 0  -2.1 0 0  -2.05 0 0  -2 0 0  -1.95 0 0  -1.9 0 0  -1.85 0 0  -1.8 0 0  -1.75 0 0  -1.7 0 0  -1.65 0 0  -1.6 0 0  -1.55 0 0  -1.5 0 0  -1.45 0 0  -1.4 0 0  -1.35 0 0  -1.3 0 0  -1.25 0 0  -1.2 0 0  -1.15 0 0  -1.1 0 0  -1.05 0 0  -1 0 0  -0.9500000000000002 0 0  -0.9000000000000004 0 0  -0.8499999999999996 0 0  -0.7999999999999998 0 0  -0.75 0 0  -0.7000000000000002 0 0  -0.6500000000000004 0 0  -0.5999999999999996 0 0  -0.5499999999999998 0 0  -0.5 0 0  -0.4500000000000002 0 0  -0.4000000000000004 0 0  -0.3499999999999996 0 0  -0.2999999999999998 0 0  -0.25 0 0  -0.2000000000000002 0 0  -0.1500000000000004 0 0  -0.09999999999999964 0 0  -0.04999999999999982 0 0  0 0 0  0.04999999999999982 0 0  0.09999999999999964 0 0  0.1500000000000004 0 0  0.2000000000000002 0 0  0.25 0 0  0.2999999999999998 0 0  0.3499999999999996 0 0  0.4000000000000004 0 0  0.4500000000000002 0 0  0.5 0 0  0.5499999999999998 0 0  0.5999999999999996 0 0  0.6500000000000004 0 0  0.7000000000000002 0 0  0.75 0 0  0.7999999999999998 0 0  0.8499999999999996 0 0  0.9000000000000004 0 0  0.9500000000000002 0 0  1 0 0  1.05 0 0  1.1 0 0  1.15 0 0  1.2 0 0  1.25 0 0  1.3 0 0  1.35 0 0  1.4 0 0  1.45 0 0  1.5 0 0  1.55 0 0  1.6 0 0  1.65 0 0  1.7 0 0  1.75 0 0  1.8 0 0  1.85 0 0  1.9 0 0  1.95 0 0  2 0 0  2.05 0 0  2.1 0 0  2.15 0 0  2.2 0 0  2.25 0 0  2.3 0 0  2.35 0 0  2.4 0 0  2.45 0 0  2.5 0 0  2.55 0 0  2.6 0 0  2.65 0 0  2.7 0 0  2.75 0 0  2.8 0 0  2.85 0 0  2.9 0 0  2.95 0 0  3 0 0  3.050000000000001 0 0  3.1 0 0  3.15 0 0  3.199999999999999 0 0  3.25 0 0  3.300000000000001 0 0  3.35 0 0  3.4 0 0  3.449999999999999 0 0  3.5 0 0  3.550000000000001 0 0  3.6 0 0  3.65 0 0  3.699999999999999 0 0  3.75 0 0  3.800000000000001 0 0  3.85 0 0  3.9 0 0  3.949999999999999 0 0  4 0 0  4.050000000000001 0 0  4.1 0 0  4.15 0 0  4.199999999999999 0 0  4.25 0 0  4.300000000000001 0 0  4.35 0 0  4.4 0 0  4.449999999999999 0 0  4.5 0 0  4.550000000000001 0 0  4.6 0 0  4.65 0 0  4.699999999999999 0 0  4.75 0 0  4.800000000000001 0 0  4.85 0 0  4.9 0 0  4.949999999999999 0 0  5 0 0  </DataArray>
</Points>
<Cells>
<DataArray  type="UInt32"  Name="connectivity"  format="ascii">0 1  1 2  2 3  3 4  4 5  5 6  6 7  7 8  8 9  9 10  10 11  11 12  12 13  13 14  14 15  15 16  16 17  17 18  18 19  19 20  20 21  21 22  22 23  23 24  24 25  25 26  26 27  27 28  28 29  29 30  30 31  31 32  32 33  33 34  34 35  35 36  36 37  37 38  38 39  39 40  40 41  41 42  42 43  43 44  44 45  45 46  46 47  47 48  48 49  49 50  50 51  51 52  52 53  53 54  54 55  55 56  56 57  57 58  58 59  59 60  60 61  61 62  62 63  63 64  64 65  65 66  66 67  67 68  68 69  69 70  70 71  71 72  72 73  73 74  74 75  75 76  76 77  77 78  78 79  79 80  80 81  81 82  82 83  83 84  84 85  85 86  86 87  87 88  88 89  89 90  90 91  91 92  92 93  93 94  94 95  95 96  96 97  97 98  98 99  99 100  100 101  101 102  102 103  103 104  104 105  105 106  106 107  107 108  108 109  109 110  110 111  111 112  112 113  113 114  114 115  115 116  116 117  117 118  118 119  119 120  120 121  121 122  122 123  123 124  124 125  125 126  126 127  127 128  128 129  129 130  130 131  131 132  132 133  133 134  134 135  135 136  136 137  137 138  138 139  139 140  140 141  141 142  142 143  143 144  144 145  145 146  146 147  147 148  148 149  149 150  150 151  151 152  152 153  153 154  154 155  155 156  156 157  157 158  158 159  159 160  160 161  161 162  162 163  163 164  164 165  165 166  166 167  167 168  168 169  169 170  170 171  171 172  172 173  173 174  174 175  175 176  176 177  177 178  178 179  179 180  180 181  181 182  182 183  183 184  184 185  185 186  186 187  187 188  188 189  189 190  190 191  191 192  192 193  193 194  194 195  195 196  196 197  197 198  198 199  199 200  </DataArray>
<DataArray  type="UInt32"  Name="offsets"  format="ascii">2 4 6 8 10 12 14 16 18 20 22 24 26 28 30 32 34 36 38 40 42 44 46 48 50 52 54 56 58 60 62 64 66 68 70 72 74 76 78 80 82 84 86 88 90 92 94 96 98 100 102 104 106 108 110 112 114 116 118 120 122 124 126 128 130 132 134 136 138 140 142 144 146 148 150 152 154 156 158 160 162 164 166 168 170 172 174 176 178 180 182 184 186 188 190 192 194 196 198 200 202 204 206 208 210 212 214 216 218 220 222 224 226 228 230 232 234 236 238 240 242 244 246 248 250 252 254 256 258 260 262 264 266 268 270 272 274 276 278 280 282 284 286 288 290 292 294 296 298 300 302 304 306 308 310 312 314 316 318 320 322 324 326 328 330 332 334 336 338 340 342 344 346 348 350 352 354 356 358 360 362 364 366 368 370 372 374 376 378 380 382 384 386 388 390 392 394 396 398 400 </DataArray>
<DataArray  type="UInt8"  Name="types"  format="ascii">3 3 3 3 3 3 3 3 3 3 3 3 3 3 3 3 3 3 3 3 3 3 3 3 3 3 3 3 3 3 3 3 3 3 3 3 3 3 3 3 3 3 3 3 3 3 3 3 3 3 3 3 3 3 3 3 3 3 3 3 3 3 3 3 3 3 3 3 3 3 3 3 3 3 3 3 3 3 3 3 3 3 3 3 3 3 3 3 3 3 3 3 3 3 3 3 3 3 3 3 3 3 3 3 3 3 3 3 3 3 3 3 3 3 3 3 3 3 3 3 3 3 3 3 3 3 3 3 3 3 3 3 3 3 3 3 3 3 3 3 3 3 3 3 3 3 3 3 3 3 3 3 3 3 3 3 3 3 3 3 3 3 3 3 3 3 3 3 3 3 3 3 3 3 3 3 3 3 3 3 3 3 3 3 3 3 3 3 3 3 3 3 3 3 3 3 3 3 3 3 </DataArray>
</Cells>
<PointData  Vectors="(s, w)"> 
<DataArray  type="Float64"  Name="(s, w)"  NumberOfComponents="3" format="ascii">3.1350460485829426e+00 0.0000000000000000e+00 0.0000000000000000e+00  3.1863319235569652e+00 1.7357792732991334e-01 0.0000000000000000e+00  3.1452318606530505e+00 -3.0692343184776028e-01 0.0000000000000000e+00  3.1684329664560442e+00 3.9050372752450457e-01 0.0000000000000000e+00  3.1684417293279248e+00 -3.8684596311729463e-01 0.0000000000000000e+00  3.1455368570961366e+00 3.2362151898139163e-01 0.0000000000000000e+00  3.1876812033553237e+00 -1.9848724588751274e-01 0.0000000000000000e+00  3.1344902626670352e+00 4.8090380433098108e-02 0.0000000000000000e+00  3.1882289670966864e+00 9.3084374332191591e-02 0.0000000000000000e+00  3.1442473086980245e+00 -2.0928602060279583e-01 0.0000000000000000e+00  3.1685747456070055e+00 2.6757133850914300e-01 0.0000000000000000e+00  3.1688543148536299e+00 -2.7487112229811850e-01 0.0000000000000000e+00  3.1425324111343178e+00 2.3417886439705579e-01 0.0000000000000000e+00  3.1905023954656357e+00 -1.6573167561263852e-01 0.0000000000000000e+00  3.1297839805996563e+00 8.8432074604475205e-02 0.0000000000000000e+00  3.1922545570864993e+00 -3.1733259630403091e-02 0.0000000000000000e+00  3.1406859829394889e+00 -1.3467788660479266e-02 0.0000000000000000e+00  3.1718656541376249e+00 2.3119506893618080e-02 0.0000000000000000e+00  3.1673493858846591e+00 -3.1642075805718199e-02 0.0000000000000000e+00  3.1447261869517420e+00 4.3669932988007983e-02 0.0000000000000000e+00  3.1893665099860007e+00 -6.8277944635493304e-02 0.0000000000000000e+00  3.1317630137405130e+00 1.3843481026220603e-01 0.0000000000000000e+00  3.1905552692216479e+00 -2.0499737180159885e-01 0.0000000000000000e+00  3.1416530195658083e+00 2.9722794732049546e-01 0.0000000000000000e+00  3.1724678440935739e+00 -3.4179528605087994e-01 0.0000000000000000e+00  3.1636056963845149e+00 3.4043561117342352e-01 0.0000000000000000e+00  3.1516291594921970e+00 -2.5666885536180845e-01 0.0000000000000000e+00  3.1785243366810523e+00 1.1034040221608515e-01 0.0000000000000000e+00  3.1425154230342343e+00 1.2776406733926740e-01 0.0000000000000000e+00  3.1776212434673115e+00 -2.8184517617391186e-01 0.0000000000000000e+00  3.1434670080434239e+00 5.7884547076011428e-01 0.0000000000000000e+00  3.1678206645204923e+00 -4.5697041767746904e-01 0.0000000000000000e+00  3.1408105410325691e+00 7.6285862792437742e-01 0.0000000000000000e+00  3.1574899160142444e+00 -1.0092669266264639e-01 0.0000000000000000e+00  3.1271937078647771e+00 6.4701770419999405e-01 0.0000000000000000e+00  3.1412785709190008e+00 6.7765757804229665e-01 0.0000000000000000e+00  3.1116715558486829e+00 5.9428774040183940e-01 0.0000000000000000e+00  3.1068010660726491e+00 1.4346176064699068e+00 0.0000000000000000e+00  3.1044508710057417e+00 9.4861916462013784e-01 0.0000000000000000e+00  3.0579159481941369e+00 1.9311158414654743e+00 0.0000000000000000e+00  3.0944046317076661e+00 1.5839690204363126e+00 0.0000000000000000e+00  3.0194502459516341e+00 2.4058656382628940e+00 0.0000000000000000e+00  3.0597125468182189e+00 2.1304218644241986e+00 0.0000000000000000e+00  3.0052382261862438e+00 3.0483421217876465e+00 0.0000000000000000e+00  3.0050696946230269e+00 2.6435023843911627e+00 0.0000000000000000e+00  2.9951471241144274e+00 3.5181312018641786e+00 0.0000000000000000e+00  2.9594149289642413e+00 3.5138969206250530e+00 0.0000000000000000e+00  2.9687454882595175e+00 3.5836189326496650e+00 0.0000000000000000e+00  2.9262994209538782e+00 4.5728316233228492e+00 0.0000000000000000e+00  2.9409780449508753e+00 3.7872703385883191e+00 0.0000000000000000e+00  2.8829981841390708e+00 5.1663841449619161e+00 0.0000000000000000e+00  2.9237490601279372e+00 4.5428751698900420e+00 0.0000000000000000e+00  2.8402017715432661e+00 5.3705218145193401e+00 0.0000000000000000e+00  2.8880589099738434e+00 5.3027904785564974e+00 0.0000000000000000e+00  2.8287930286682847e+00 5.8202463955990744e+00 0.0000000000000000e+00  2.8240369807987982e+00 5.7799986527435605e+00 0.0000000000000000e+00  2.8264673952893538e+00 6.2592559347545906e+00 0.0000000000000000e+00  2.7740134309955482e+00 6.5921000229810707e+00 0.0000000000000000e+00  2.7979347763449356e+00 6.2272533634883835e+00 0.0000000000000000e+00  2.7435803935882479e+00 7.5820045245004151e+00 0.0000000000000000e+00  2.7697981675945447e+00 6.4868396036229621e+00 0.0000000000000000e+00  2.6979141173912016e+00 7.8863943958270681e+00 0.0000000000000000e+00  2.7514918138633369e+00 7.3507640607963287e+00 0.0000000000000000e+00  2.6654503412325736e+00 8.0094653292374023e+00 0.0000000000000000e+00  2.6973344010366169e+00 7.8755298283675828e+00 0.0000000000000000e+00  2.6706345028037797e+00 8.5326596720179477e+00 0.0000000000000000e+00  2.6295678979974109e+00 8.3576646309394924e+00 0.0000000000000000e+00  2.6576519010397481e+00 8.5618756340124360e+00 0.0000000000000000e+00  2.5925494346079581e+00 9.4424618061826955e+00 0.0000000000000000e+00  2.6314060866807347e+00 8.4161069871002603e+00 0.0000000000000000e+00  2.5400637057624471e+00 1.0009276929094945e+01 0.0000000000000000e+00  2.6312377902170065e+00 9.0500732880169377e+00 0.0000000000000000e+00  2.4836787073187097e+00 1.0175947590037159e+01 0.0000000000000000e+00  2.5991693815296792e+00 9.3578931136448276e+00 0.0000000000000000e+00  2.4740555361473642e+00 1.0927235515661639e+01 0.0000000000000000e+00  2.5454269310182380e+00 9.4965429283025653e+00 0.0000000000000000e+00  2.4456605266600135e+00 1.1069994212053333e+01 0.0000000000000000e+00  2.5244740800599041e+00 1.0438371636599054e+01 0.0000000000000000e+00  2.4113364882966675e+00 1.0985820038940981e+01 0.0000000000000000e+00  2.4700477158160208e+00 1.0731399764850838e+01 0.0000000000000000e+00  2.4162141487457167e+00 1.1674550857873067e+01 0.0000000000000000e+00  2.4161836543462307e+00 1.0969969659195780e+01 0.0000000000000000e+00  2.3772205205719010e+00 1.1567105188219898e+01 0.0000000000000000e+00  2.4028049888149710e+00 1.1899445475153794e+01 0.0000000000000000e+00  2.3468626521998610e+00 1.1719747908405713e+01 0.0000000000000000e+00  2.3416855375025567e+00 1.1770609232030170e+01 0.0000000000000000e+00  2.3459830911666395e+00 1.2523994165207524e+01 0.0000000000000000e+00  2.3097591934038877e+00 1.2137569174966082e+01 0.0000000000000000e+00  2.2848228814677145e+00 1.2175853519645042e+01 0.0000000000000000e+00  2.3042908702130527e+00 1.2966435596425271e+01 0.0000000000000000e+00  2.2603982509817842e+00 1.2571304846770069e+01 0.0000000000000000e+00  2.2385673696299841e+00 1.2563644069495437e+01 0.0000000000000000e+00  2.2600553590752797e+00 1.3435029154347282e+01 0.0000000000000000e+00  2.2062333225444899e+00 1.2798709281990417e+01 0.0000000000000000e+00  2.1971380272366816e+00 1.3044309090064663e+01 0.0000000000000000e+00  2.2243001024270308e+00 1.4002072172174048e+01 0.0000000000000000e+00  2.1373417171821720e+00 1.2701272248664253e+01 0.0000000000000000e+00  2.1593192080820471e+00 1.3551196752834315e+01 0.0000000000000000e+00  2.2049307912656211e+00 1.4892219079161357e+01 0.0000000000000000e+00  2.0484318667829129e+00 1.2267461343970137e+01 0.0000000000000000e+00  2.0944762082401116e+00 1.3912159546978938e+01 0.0000000000000000e+00  2.2175318207575803e+00 1.6239422589160363e+01 0.0000000000000000e+00  1.9640166729771114e+00 1.1753595037849552e+01 0.0000000000000000e+00  2.0563371484236064e+00 1.3198332719604418e+01 0.0000000000000000e+00  2.2747540437934193e+00 1.7768368310163730e+01 0.0000000000000000e+00  1.9605109541314150e+00 1.1471774838488704e+01 0.0000000000000000e+00  1.9597759199579436e+00 1.1704484874514634e+01 0.0000000000000000e+00  2.3375155297060481e+00 1.9140683343256313e+01 0.0000000000000000e+00  1.9881596077318497e+00 1.2430737476880388e+01 0.0000000000000000e+00  1.8407588646010675e+00 9.4615011082006966e+00 0.0000000000000000e+00  2.3484752508011706e+00 1.9712194743360016e+01 0.0000000000000000e+00  2.0977829972580344e+00 1.4657237268743682e+01 0.0000000000000000e+00  1.7149134133844559e+00 7.3431160756253240e+00 0.0000000000000000e+00  2.2864581063569456e+00 1.8554056470171130e+01 0.0000000000000000e+00  2.2558242222574019e+00 1.8042259311087246e+01 0.0000000000000000e+00  1.6514453322822145e+00 6.2450367654449233e+00 0.0000000000000000e+00  2.1165653642138151e+00 1.5397743331188332e+01 0.0000000000000000e+00  2.4297634919077327e+00 2.1624045542246261e+01 0.0000000000000000e+00  1.6905479004203929e+00 7.2613247252051183e+00 0.0000000000000000e+00  1.8663589530253011e+00 1.0567861688522406e+01 0.0000000000000000e+00  2.5288828814875490e+00 2.3902246414137736e+01 0.0000000000000000e+00  1.8827769667459426e+00 1.1033790099444950e+01 0.0000000000000000e+00  1.5937673634155116e+00 5.6170974686568744e+00 0.0000000000000000e+00  2.4579713075813689e+00 2.2597814686296608e+01 0.0000000000000000e+00  2.2081647166063054e+00 1.7569477276698400e+01 0.0000000000000000e+00  1.4394985442950843e+00 2.9998689223653634e+00 0.0000000000000000e+00  2.1339832745807774e+00 1.6238708094525698e+01 0.0000000000000000e+00  2.5541000168206747e+00 2.4749094561242156e+01 0.0000000000000000e+00  1.5612321970931935e+00 5.5126805159184302e+00 0.0000000000000000e+00  1.6425251200391437e+00 6.9013381935731068e+00 0.0000000000000000e+00  2.6402726378624655e+00 2.6893010683837261e+01 0.0000000000000000e+00  2.0311334891020225e+00 1.4355115245895917e+01 0.0000000000000000e+00  1.2799145496329005e+00 8.5812214838210710e-01 0.0000000000000000e+00  2.2177324246878674e+00 1.8181515013509053e+01 0.0000000000000000e+00  2.6065458043661534e+00 2.6297437136156955e+01 0.0000000000000000e+00  1.4412360032129992e+00 3.8073876735357102e+00 0.0000000000000000e+00  1.4883468432561302e+00 4.5704664134269448e+00 0.0000000000000000e+00  2.6750985375677416e+00 2.8031424277390318e+01 0.0000000000000000e+00  2.1671406657794865e+00 1.7224238709669873e+01 0.0000000000000000e+00  1.1381577336309552e+00 -7.5151365103536916e-01 0.0000000000000000e+00  1.9060735372027424e+00 1.2201243560087784e+01 0.0000000000000000e+00  2.7957323565814827e+00 3.0936399761100152e+01 0.0000000000000000e+00  1.6960532976876226e+00 8.3507153080222523e+00 0.0000000000000000e+00  1.1113075694620049e+00 -8.8803386631792780e-01 0.0000000000000000e+00  2.2827397489868266e+00 1.9715599076667775e+01 0.0000000000000000e+00  2.6861333841020878e+00 2.8510818752489712e+01 0.0000000000000000e+00  1.3675356563356309e+00 2.9603931711009186e+00 0.0000000000000000e+00  1.1999320330707481e+00 4.8370339417934671e-01 0.0000000000000000e+00  2.5250844819480149e+00 2.4977772311600742e+01 0.0000000000000000e+00  2.5246674692050890e+00 2.4886393615437417e+01 0.0000000000000000e+00  1.1823762373467688e+00 4.0059362623008993e-01 0.0000000000000000e+00  1.2847126363709325e+00 1.7168111357298881e+00 0.0000000000000000e+00  2.6454395170424596e+00 2.7760995151006696e+01 0.0000000000000000e+00  2.4075548745823374e+00 2.2317255955249816e+01 0.0000000000000000e+00  1.0981271487723461e+00 -6.2970267241282230e-01 0.0000000000000000e+00  1.3673603982815337e+00 2.9173454732079116e+00 0.0000000000000000e+00  2.7135538959762999e+00 2.9336022805614181e+01 0.0000000000000000e+00  2.2962224941531542e+00 1.9936899477124104e+01 0.0000000000000000e+00  1.0594562020988931e+00 -1.1912980234095107e+00 0.0000000000000000e+00  1.5316022768867528e+00 5.4705845954020313e+00 0.0000000000000000e+00  2.7959176321192820e+00 3.1292790690400292e+01 0.0000000000000000e+00  2.1093480900002608e+00 1.5978215090158518e+01 0.0000000000000000e+00  1.0114046042900082e+00 -1.5790226972415176e+00 0.0000000000000000e+00  9.7863438947642378e-01 4.0793507894130437e-01 0.0000000000000000e+00  1.0096214696670571e+00 -1.0659678586671828e-01 0.0000000000000000e+00  9.9707684571970190e-01 2.6297953185337279e-02 0.0000000000000000e+00  1.0002985819492214e+00 -3.2232718394917259e-03 0.0000000000000000e+00  1.0005692759668554e+00 -3.3335578373591460e-03 0.0000000000000000e+00  9.9922053595803817e-01 4.8451463659677464e-03 0.0000000000000000e+00  1.0007603438517196e+00 -4.7542865464218253e-03 0.0000000000000000e+00  9.9933198464207373e-01 4.1837993852993621e-03 0.0000000000000000e+00  1.0005594441279515e+00 -3.5030093301928939e-03 0.0000000000000000e+00  9.9954474559561335e-01 2.8517253847159326e-03 0.0000000000000000e+00  1.0003629325466430e+00 -2.2728049794780787e-03 0.0000000000000000e+00  9.9971550440840329e-01 1.7819976246509161e-03 0.0000000000000000e+00  1.0002197800722503e+00 -1.3764067721385275e-03 0.0000000000000000e+00  9.9983245087765427e-01 1.0494375571701879e-03 0.0000000000000000e+00  1.0001261877771579e+00 -7.9029555380534565e-04 0.0000000000000000e+00  9.9990603760701546e-01 5.8851535824305866e-04 0.0000000000000000e+00  1.0000692260961748e+00 -4.3356112433384103e-04 0.0000000000000000e+00  9.9994950902409196e-01 3.1623593879616044e-04 0.0000000000000000e+00  1.0000364772863024e+00 -2.2845868624358435e-04 0.0000000000000000e+00  9.9997388479091309e-01 1.6356388330724335e-04 0.0000000000000000e+00  1.0000185358836380e+00 -1.1609160409932363e-04 0.0000000000000000e+00  9.9998695200084364e-01 8.1721351454999502e-05 0.0000000000000000e+00  1.0000091125017208e+00 -5.7072305473571153e-05 0.0000000000000000e+00  9.9999368416840917e-01 3.9556575085866716e-05 0.0000000000000000e+00  1.0000043456081544e+00 -2.7216538570772565e-05 0.0000000000000000e+00  9.9999703096527792e-01 1.8594652543466146e-05 0.0000000000000000e+00  1.0000020148257451e+00 -1.2617807771316088e-05 0.0000000000000000e+00  9.9999864159850238e-01 8.5057432672913311e-06 0.0000000000000000e+00  1.0000009101394061e+00 -5.6968929684424506e-06 0.0000000000000000e+00  9.9999939377993008e-01 3.7912605161607181e-06 0.0000000000000000e+00  1.0000004016430326e+00 -2.5064941499246863e-06 0.0000000000000000e+00  9.9999973501897488e-01 1.6449775752338774e-06 0.0000000000000000e+00  1.0000001745040061e+00 -1.0693676687692998e-06 0.0000000000000000e+00  9.9999988464237066e-01 6.8468073968471274e-07 0.0000000000000000e+00  1.0000000775434323e+00 -4.2525172648463058e-07 0.0000000000000000e+00  9.9999994549773508e-01 2.4527667145158972e-07 0.0000000000000000e+00  1.0000000421516841e+00 -1.1189551963705913e-07 0.0000000000000000e+00  9.9999996173045325e-01 0.0000000000000000e+00 0.0000000000000000e+00  </DataArray> 
</PointData> 
</Piece>
</UnstructuredGrid>
</VTKFile>