<?xml version="1.0"?>
<VTKFile type="UnstructuredGrid"  version="0.1"  >
<UnstructuredGrid>
<Piece  NumberOfPoints="201" NumberOfCells="200">
<Points>
<DataArray  type="Float64"  NumberOfComponents="3"  format="ascii">-5 0 0  -4.95 0 0  -4.9 0 0  -4.85 0 0  -4.8 0 0  -4.75 0 0  -4.7 0 0  -4.65 0 0  -4.6 0 0  -4.55 0 0  -4.5 0 0  -4.45 0 0  -4.4 0 0  -4.35 0 0  -4.3 0 0  -4.25 0 0  -4.2 0 0  -4.15 0 0  -4.1 0 0  -4.05 0 0  -4 0 0  -3.95 0 0  -3.9 0 0  -3.85 0 0  -3.8 0 0  -3.75 0 0  -3.7 0 0  -3.65 0 0  -3.6 0 0  -3.55 0 0  -3.5 0 0  -3.45 0 0  -3.4 0 0  -3.35 0 0  -3.3 0 0  -3.25 0 0  -3.2 0 0  -3.15 0 0  -3.1 0 0  -3.05 0 0  -3 0 0  -2.95 0 0  -2.9 0 0  -2.85 0 0  -2.8 0 0  -2.75 0 0  -2.7 0 0  -2.65 0 0  -2.6 0 0  -2.55 0 0  -2.5 0 0  -2.45 0 0  -2.4 0 0  -2.35 0 0  -2.3 0 0  -2.25 0 0  -2.2 0 0  -2.15 0 0  -2.1 0 0  -2.05 0 0  -2 0 0  -1.95 0 0  -1.9 0 0  -1.85 0 0  -1.8 0 0  -1.75 0 0  -1.7 0 0  -1.65 0 0  -1.6 0 0  -1.55 0 0  -1.5 0 0  -1.45 0 0  -1.4 0 0  -1.35 0 0  -1.3 0 0  -1.25 0 0  -1.2 0 0  -1.15 0 0  -1.1 0 0  -1.05 0 0  -1 0 0  -0.9500000000000002 0 0  -0.9000000000000004 0 0  -0.8499999999999996 0 0  -0.7999999999999998 0 0  -0.75 0 0  -0.7000000000000002 0 0  -0.6500000000000004 0 0  -0.5999999999999996 0 0  -0.5499999999999998 0 0  -0.5 0 0  -0.4500000000000002 0 0  -0.4000000000000004 0 0  -0.3499999999999996 0 0  -0.2999999999999998 0 0  -0.25 0 0  -0.2000000000000002 0 0  -0.1500000000000004 0 0  -0.09999999999999964 0 0  -0.04999999999999982 0 0  0 0 0  0.04999999999999982 0 0  0.09999999999999964 0 0  0.1500000000000004 0 0  0.2000000000000002 0 0  0.25 0 0  0.2999999999999998 0 0  0.3499999999999996 0 0  0.4000000000000004 0 0  0.4500000000000002 0 0  0.5 0 0  0.5499999999999998 0 0  0.5999999999999996 0 0  0.6500000000000004 0 0  0.7000000000000002 0 0  0.75 0 0  0.7999999999999998 0 0  0.8499999999999996 0 0  0.9000000000000004 0 0  0.9500000000000002 0 0  1 0 0  1.05 0 0  1.1 0 0  1.15 0 0  1.2 0 0  1.25 0 0  1.3 0 0  1.35 0 0  1.4 0 0  1.45 0 0  1.5 0 0  1.55 0 0  1.6 0 0  1.65 0 0  1.7 0 0  1.75 0 0  1.8 0 0  1.85 0 0  1.9 0 0  1.95 0 0  2 0 0  2.05 0 0  2.1 0 0  2.15 0 0  2.2 0 0  2.25 0 0  2.3 0 0  2.35 0 0  2.4 0 0  2.45 0 0  2.5 0 0  2.55 0 0  2.6 0 0  2.65 0 0  2.7 0 0  2.75 0 0  2.8 0 0  2.85 0 0  2.9 0 0  2.95 0 0  3 0 0  3.050000000000001 0 0  3.1 0 0  3.15 0 0  3.199999999999999 0 0  3.25 0 0  3.300000000000001 0 0  3.35 0 0  3.4 0 0  3.449999999999999 0 0  3.5 0 0  3.550000000000001 0 0  3.6 0 0  3.65 0 0  3.699999999999999 0 0  3.75 0 0  3.800000000000001 0 0  3.85 0 0  3.9 0 0  3.949999999999999 0 0  4 0 0  4.050000000000001 0 0  4.1 0 0  4.15 0 0  4.199999999999999 0 0  4.25 0 0  4.300000000000001 0 0  4.35 0 0  4.4 0 0  4.449999999999999 0 0  4.5 0 0  4.550000000000001 0 0  4.6 0 0  4.65 0 0  4.699999999999999 0 0  4.75 0 0  4.800000000000001 0 0  4.85 0 0  4.9 0 0  4.949999999999999 0 0  5 0 0  </DataArray>
</Points>
<Cells>
<DataArray  type="UInt32"  Name="connectivity"  format="ascii">0 1  1 2  2 3  3 4  4 5  5 6  6 7  7 8  8 9  9 10  10 11  11 12  12 13  13 14  14 15  15 16  16 17  17 18  18 19  19 20  20 21  21 22  22 23  23 24  24 25  25 26  26 27  27 28  28 29  29 30  30 31  31 32  32 33  33 34  34 35  35 36  36 37  37 38  38 39  39 40  40 41  41 42  42 43  43 44  44 45  45 46  46 47  47 48  48 49  49 50  50 51  51 52  52 53  53 54  54 55  55 56  56 57  57 58  58 59  59 60  60 61  61 62  62 63  63 64  64 65  65 66  66 67  67 68  68 69  69 70  70 71  71 72  72 73  73 74  74 75  75 76  76 77  77 78  78 79  79 80  80 81  81 82  82 83  83 84  84 85  85 86  86 87  87 88  88 89  89 90  90 91  91 92  92 93  93 94  94 95  95 96  96 97  97 98  98 99  99 100  100 101  101 102  102 103  103 104  104 105  105 106  106 107  107 108  108 109  109 110  110 111  111 112  112 113  113 114  114 115  115 116  116 117  117 118  118 119  119 120  120 121  121 122  122 123  123 124  124 125  125 126  126 127  127 128  128 129  129 130  130 131  131 132  132 133  133 134  134 135  135 136  136 137  137 138  138 139  139 140  140 141  141 142  142 143  143 144  144 145  145 146  146 147  147 148  148 149  149 150  150 151  151 152  152 153  153 154  154 155  155 156  156 157  157 158  158 159  159 160  160 161  161 162  162 163  163 164  164 165  165 166  166 167  167 168  168 169  169 170  170 171  171 172  172 173  173 174  174 175  175 176  176 177  177 178  178 179  179 180  180 181  181 182  182 183  183 184  184 185  185 186  186 187  187 188  188 189  189 190  190 191  191 192  192 193  193 194  194 195  195 196  196 197  197 198  198 199  199 200  </DataArray>
<DataArray  type="UInt32"  Name="offsets"  format="ascii">2 4 6 8 10 12 14 16 18 20 22 24 26 28 30 32 34 36 38 40 42 44 46 48 50 52 54 56 58 60 62 64 66 68 70 72 74 76 78 80 82 84 86 88 90 92 94 96 98 100 102 104 106 108 110 112 114 116 118 120 122 124 126 128 130 132 134 136 138 140 142 144 146 148 150 152 154 156 158 160 162 164 166 168 170 172 174 176 178 180 182 184 186 188 190 192 194 196 198 200 202 204 206 208 210 212 214 216 218 220 222 224 226 228 230 232 234 236 238 240 242 244 246 248 250 252 254 256 258 260 262 264 266 268 270 272 274 276 278 280 282 284 286 288 290 292 294 296 298 300 302 304 306 308 310 312 314 316 318 320 322 324 326 328 330 332 334 336 338 340 342 344 346 348 350 352 354 356 358 360 362 364 366 368 370 372 374 376 378 380 382 384 386 388 390 392 394 396 398 400 </DataArray>
<DataArray  type="UInt8"  Name="types"  format="ascii">3 3 3 3 3 3 3 3 3 3 3 3 3 3 3 3 3 3 3 3 3 3 3 3 3 3 3 3 3 3 3 3 3 3 3 3 3 3 3 3 3 3 3 3 3 3 3 3 3 3 3 3 3 3 3 3 3 3 3 3 3 3 3 3 3 3 3 3 3 3 3 3 3 3 3 3 3 3 3 3 3 3 3 3 3 3 3 3 3 3 3 3 3 3 3 3 3 3 3 3 3 3 3 3 3 3 3 3 3 3 3 3 3 3 3 3 3 3 3 3 3 3 3 3 3 3 3 3 3 3 3 3 3 3 3 3 3 3 3 3 3 3 3 3 3 3 3 3 3 3 3 3 3 3 3 3 3 3 3 3 3 3 3 3 3 3 3 3 3 3 3 3 3 3 3 3 3 3 3 3 3 3 3 3 3 3 3 3 3 3 3 3 3 3 3 3 3 3 3 3 </DataArray>
</Cells>
<PointData  Vectors="(s, w)"> 
<DataArray  type="Float64"  Name="(s, w)"  NumberOfComponents="3" format="ascii">3.0512828867157578e+00 0.0000000000000000e+00 0.0000000000000000e+00  3.0366938804243131e+00 2.9771733376081022e-01 0.0000000000000000e+00  3.0395229189725037e+00 7.2811759151226296e-01 0.0000000000000000e+00  3.0498250017612558e+00 9.4475181208472903e-01 0.0000000000000000e+00  3.0223713093452820e+00 1.3250969542854638e+00 0.0000000000000000e+00  3.0475579110652022e+00 1.6197008835445266e+00 0.0000000000000000e+00  3.0225693255229560e+00 1.8480633240487079e+00 0.0000000000000000e+00  3.0222381271082970e+00 2.1861638833914268e+00 0.0000000000000000e+00  3.0266826384179235e+00 2.3730563901574944e+00 0.0000000000000000e+00  3.0015538000539976e+00 2.6356927143687474e+00 0.0000000000000000e+00  3.0068579146502734e+00 2.8514063484971994e+00 0.0000000000000000e+00  3.0006603341156688e+00 3.0459934734146192e+00 0.0000000000000000e+00  2.9713626820877130e+00 3.2691701595138620e+00 0.0000000000000000e+00  2.9937253814969660e+00 3.4019350040533847e+00 0.0000000000000000e+00  2.9538288703237030e+00 3.6768007863271954e+00 0.0000000000000000e+00  2.9601057615920094e+00 3.7297392641565783e+00 0.0000000000000000e+00  2.9535962664336401e+00 3.9980747807998553e+00 0.0000000000000000e+00  2.9256264535752861e+00 4.1683749551608216e+00 0.0000000000000000e+00  2.9358250088370479e+00 4.1985621391699794e+00 0.0000000000000000e+00  2.9174500725474455e+00 4.6142210617665249e+00 0.0000000000000000e+00  2.8970985868033612e+00 4.5533274990450714e+00 0.0000000000000000e+00  2.9135651629561492e+00 4.7833780984025109e+00 0.0000000000000000e+00  2.8719849691857342e+00 5.1507813949621459e+00 0.0000000000000000e+00  2.8856685226111534e+00 4.9041444903967992e+00 0.0000000000000000e+00  2.8671006927082483e+00 5.4855021720752850e+00 0.0000000000000000e+00  2.8509993109131480e+00 5.4595840609429018e+00 0.0000000000000000e+00  2.8537461677594198e+00 5.4209549786852067e+00 0.0000000000000000e+00  2.8334196930578197e+00 6.0777692901856373e+00 0.0000000000000000e+00  2.8250207848914033e+00 5.7089292072685609e+00 0.0000000000000000e+00  2.8231119939981051e+00 6.0929988388265990e+00 0.0000000000000000e+00  2.7973671587631541e+00 6.4941734716065787e+00 0.0000000000000000e+00  2.8073993976784068e+00 6.0545045891116898e+00 0.0000000000000000e+00  2.7764063910622645e+00 6.8154054838979592e+00 0.0000000000000000e+00  2.7842937334020612e+00 6.7054566528022805e+00 0.0000000000000000e+00  2.7653561322746110e+00 6.6203677459563171e+00 0.0000000000000000e+00  2.7508048576848330e+00 7.3288951319187721e+00 0.0000000000000000e+00  2.7572106170975812e+00 6.9499795084270861e+00 0.0000000000000000e+00  2.7280162953602756e+00 7.2672711877007581e+00 0.0000000000000000e+00  2.7237671219557900e+00 7.6639703269207207e+00 0.0000000000000000e+00  2.7322648114437076e+00 7.3230713257498827e+00 0.0000000000000000e+00  2.6823288754559855e+00 7.8739436262794920e+00 0.0000000000000000e+00  2.7153807536267163e+00 7.8765286827978782e+00 0.0000000000000000e+00  2.6834664163020006e+00 7.8914376234092840e+00 0.0000000000000000e+00  2.6607587923939371e+00 8.2820878087617515e+00 0.0000000000000000e+00  2.6886850366412758e+00 8.1928982845146230e+00 0.0000000000000000e+00  2.6442491327459248e+00 8.4687920172016415e+00 0.0000000000000000e+00  2.6374929754942249e+00 8.5537862012252770e+00 0.0000000000000000e+00  2.6625289176202238e+00 8.6233057671832505e+00 0.0000000000000000e+00  2.5983983255112992e+00 8.9795528856488005e+00 0.0000000000000000e+00  2.6289235918058638e+00 8.7543386207751137e+00 0.0000000000000000e+00  2.6144208140836662e+00 9.1826428222074377e+00 0.0000000000000000e+00  2.5756778691051525e+00 9.3072353953821398e+00 0.0000000000000000e+00  2.6021924594441659e+00 9.0391680291721990e+00 0.0000000000000000e+00  2.5756203590409066e+00 9.7407594751539559e+00 0.0000000000000000e+00  2.5508181519566646e+00 9.5380321562329140e+00 0.0000000000000000e+00  2.5767478410121085e+00 9.4115245148888445e+00 0.0000000000000000e+00  2.5302129751913216e+00 1.0242746655572272e+01 0.0000000000000000e+00  2.5412584007343950e+00 9.7317106798450190e+00 0.0000000000000000e+00  2.5317756788149879e+00 9.8810705243502799e+00 0.0000000000000000e+00  2.5036860250526098e+00 1.0617357189472576e+01 0.0000000000000000e+00  2.5186834903424802e+00 9.9662685541587148e+00 0.0000000000000000e+00  2.4928680072263942e+00 1.0375090362496522e+01 0.0000000000000000e+00  2.4753057954981257e+00 1.0898039503039019e+01 0.0000000000000000e+00  2.4998074810927724e+00 1.0271236933268151e+01 0.0000000000000000e+00  2.4439784100740631e+00 1.0815598869046433e+01 0.0000000000000000e+00  2.4608963449618786e+00 1.1124548835094737e+01 0.0000000000000000e+00  2.4670305622831621e+00 1.0650230188091435e+01 0.0000000000000000e+00  2.4063715136473078e+00 1.1207187841014767e+01 0.0000000000000000e+00  2.4391301689404821e+00 1.1276536383331813e+01 0.0000000000000000e+00  2.4363604482761132e+00 1.1108215714871841e+01 0.0000000000000000e+00  2.3677022227548230e+00 1.1513485425121090e+01 0.0000000000000000e+00  2.4227482355336911e+00 1.1469121461617942e+01 0.0000000000000000e+00  2.3965420890487099e+00 1.1552343867660772e+01 0.0000000000000000e+00  2.3394848656821012e+00 1.1791639851417282e+01 0.0000000000000000e+00  2.3969382099661973e+00 1.1609204614076235e+01 0.0000000000000000e+00  2.3612300066115277e+00 1.2059247990062781e+01 0.0000000000000000e+00  2.3128034797130215e+00 1.2015780131954353e+01 0.0000000000000000e+00  2.3713988502235424e+00 1.1790332950161885e+01 0.0000000000000000e+00  2.3182576913162731e+00 1.2470095036970282e+01 0.0000000000000000e+00  2.2972493231723865e+00 1.2271448567158247e+01 0.0000000000000000e+00  2.3366313838371435e+00 1.1954951156474696e+01 0.0000000000000000e+00  2.2797571925718456e+00 1.2887369303646009e+01 0.0000000000000000e+00  2.2846583207727420e+00 1.2501085314584801e+01 0.0000000000000000e+00  2.3003775748364190e+00 1.2194722154914464e+01 0.0000000000000000e+00  2.2327623196661914e+00 1.3130176801563545e+01 0.0000000000000000e+00  2.2858499521337099e+00 1.2764664684669242e+01 0.0000000000000000e+00  2.2504493022015097e+00 1.2540230317967687e+01 0.0000000000000000e+00  2.1972652241608008e+00 1.3240148957168794e+01 0.0000000000000000e+00  2.2845221977494621e+00 1.3014364396515232e+01 0.0000000000000000e+00  2.1931326154519319e+00 1.3088062863598362e+01 0.0000000000000000e+00  2.1742437661173253e+00 1.2988735182115756e+01 0.0000000000000000e+00  2.2717933873360998e+00 1.3408757811547721e+01 0.0000000000000000e+00  2.1231033384285949e+00 1.3779700332355596e+01 0.0000000000000000e+00  2.2073396198741690e+00 1.2344444948322485e+01 0.0000000000000000e+00  2.1527967027875357e+00 1.4481473774383486e+01 0.0000000000000000e+00  2.2031459487341998e+00 1.3519491948357711e+01 0.0000000000000000e+00  2.0812769035409757e+00 1.2771646128562001e+01 0.0000000000000000e+00  2.1875355516019637e+00 1.4348496906412580e+01 0.0000000000000000e+00  2.1490457101286782e+00 1.4243654963866593e+01 0.0000000000000000e+00  2.0527693053259326e+00 1.2475854017884732e+01 0.0000000000000000e+00  2.1436386364203743e+00 1.4806996973455009e+01 0.0000000000000000e+00  2.1466923771202553e+00 1.4655592986445898e+01 0.0000000000000000e+00  2.0003312725490909e+00 1.2271836987950666e+01 0.0000000000000000e+00  2.1469691624994378e+00 1.4937986315893856e+01 0.0000000000000000e+00  2.1506422325289627e+00 1.5101238836230621e+01 0.0000000000000000e+00  1.9828031607223346e+00 1.1651763830812538e+01 0.0000000000000000e+00  2.1415827864413459e+00 1.5012955214992425e+01 0.0000000000000000e+00  2.1829412037292548e+00 1.5751031652345338e+01 0.0000000000000000e+00  1.9375855103406643e+00 1.1069750903992652e+01 0.0000000000000000e+00  2.1256367317472580e+00 1.4723046889632984e+01 0.0000000000000000e+00  2.2299649292779100e+00 1.6923636847851093e+01 0.0000000000000000e+00  1.9097531450699734e+00 1.0560145224163254e+01 0.0000000000000000e+00  2.0661450066571683e+00 1.3758552733843585e+01 0.0000000000000000e+00  2.2990270626467479e+00 1.8346273662920261e+01 0.0000000000000000e+00  1.9057061037815608e+00 1.0700744475846925e+01 0.0000000000000000e+00  1.9679758016703004e+00 1.1875525589843154e+01 0.0000000000000000e+00  2.3522576600028797e+00 1.9619193400352071e+01 0.0000000000000000e+00  1.9649676004649723e+00 1.1930926576068826e+01 0.0000000000000000e+00  1.8371653044165235e+00 9.5143624068883419e+00 0.0000000000000000e+00  2.3614672987944147e+00 1.9896101561993152e+01 0.0000000000000000e+00  2.0867252709172917e+00 1.4498023651385610e+01 0.0000000000000000e+00  1.7236955319647800e+00 7.4141295368746851e+00 0.0000000000000000e+00  2.2833645478721913e+00 1.8507654752292030e+01 0.0000000000000000e+00  2.2565767883867034e+00 1.7938561138142489e+01 0.0000000000000000e+00  1.6700476711306902e+00 6.5812401504160967e+00 0.0000000000000000e+00  2.1157121040383275e+00 1.5230074231250084e+01 0.0000000000000000e+00  2.4156712625290022e+00 2.1300744681302913e+01 0.0000000000000000e+00  1.7264128009274429e+00 7.7515147878216251e+00 0.0000000000000000e+00  1.8815652343042768e+00 1.0776595693824868e+01 0.0000000000000000e+00  2.4994755232953350e+00 2.3097699233301501e+01 0.0000000000000000e+00  1.9034006539718356e+00 1.1292854643142652e+01 0.0000000000000000e+00  1.6547947611779747e+00 6.5141985833428926e+00 0.0000000000000000e+00  2.4345358982976504e+00 2.1926063424625877e+01 0.0000000000000000e+00  2.1780630940067529e+00 1.6724472052515317e+01 0.0000000000000000e+00  1.5233936151788090e+00 4.2422970230658397e+00 0.0000000000000000e+00  2.1959882083308404e+00 1.7178444605708332e+01 0.0000000000000000e+00  2.4567831144529046e+00 2.2482353889747344e+01 0.0000000000000000e+00  1.5833423732980554e+00 5.4953138736543297e+00 0.0000000000000000e+00  1.8310483871285892e+00 1.0165971048789400e+01 0.0000000000000000e+00  2.5959683987716753e+00 2.5505992531221949e+01 0.0000000000000000e+00  1.8689739606924609e+00 1.1003232190442121e+01 0.0000000000000000e+00  1.4944026973518814e+00 4.0205544250144261e+00 0.0000000000000000e+00  2.4437232179592532e+00 2.2521785544497003e+01 0.0000000000000000e+00  2.3031614360407779e+00 1.9592595507565918e+01 0.0000000000000000e+00  1.3878548994567150e+00 2.3679499468276517e+00 0.0000000000000000e+00  1.9950717519196557e+00 1.3578099225817189e+01 0.0000000000000000e+00  2.6409497134195634e+00 2.6791925808633401e+01 0.0000000000000000e+00  1.6610080813533530e+00 7.3832172255664243e+00 0.0000000000000000e+00  1.4804502964894517e+00 4.1382026731553649e+00 0.0000000000000000e+00  2.5656410295777703e+00 2.5333535065489098e+01 0.0000000000000000e+00  2.2274302887763664e+00 1.8296003750945214e+01 0.0000000000000000e+00  1.2719407241044365e+00 7.6193686437086350e-01 0.0000000000000000e+00  2.0040486647124811e+00 1.3954524854860226e+01 0.0000000000000000e+00  2.6984842976300518e+00 2.8298025537274654e+01 0.0000000000000000e+00  1.6194814067279957e+00 6.8572686573893948e+00 0.0000000000000000e+00  1.3641379556535165e+00 2.4156299540858344e+00 0.0000000000000000e+00  2.5425393926234174e+00 2.5060202192051925e+01 0.0000000000000000e+00  2.3482910055094264e+00 2.0873915498989152e+01 0.0000000000000000e+00  1.2213895538442352e+00 3.3979515334424132e-01 0.0000000000000000e+00  1.7783610879057723e+00 9.7620740938820880e+00 0.0000000000000000e+00  2.7745820338498408e+00 3.0314960358982905e+01 0.0000000000000000e+00  1.8243094256771142e+00 1.0642255178050448e+01 0.0000000000000000e+00  1.1516533925999779e+00 -5.5580188474106695e-01 0.0000000000000000e+00  2.2559477280018321e+00 1.9120282452521998e+01 0.0000000000000000e+00  2.6601708484986357e+00 2.7803849853527613e+01 0.0000000000000000e+00  1.3894379718008363e+00 3.2011617041979528e+00 0.0000000000000000e+00  1.3285925475713884e+00 2.2200268508810659e+00 0.0000000000000000e+00  2.6208915054342214e+00 2.7015341119800617e+01 0.0000000000000000e+00  2.3485878653187839e+00 2.1021705478451192e+01 0.0000000000000000e+00  1.1292934726755679e+00 -5.6155769429976832e-01 0.0000000000000000e+00  1.6070061064562593e+00 6.7751891023091249e+00 0.0000000000000000e+00  2.8020829915722869e+00 3.1266849130069691e+01 0.0000000000000000e+00  2.0114175218880233e+00 1.4137788350732588e+01 0.0000000000000000e+00  1.0247012067533798e+00 -1.7738673077551252e+00 0.0000000000000000e+00  1.8754719073685773e+00 1.1549851309635535e+01 0.0000000000000000e+00  2.8395610470997297e+00 3.2254275411096422e+01 0.0000000000000000e+00  1.7392573883005029e+00 9.0235191753981763e+00 0.0000000000000000e+00  1.0079346780412770e+00 -1.8219879441414821e+00 0.0000000000000000e+00  2.0842760603595285e+00 1.5567125796573256e+01 0.0000000000000000e+00  2.8071558832969488e+00 3.1554111031215118e+01 0.0000000000000000e+00  1.5493460577564659e+00 5.7535760161171963e+00 0.0000000000000000e+00  1.0263667926165763e+00 -1.4944717826546978e+00 0.0000000000000000e+00  2.2260288121068412e+00 1.8445192610566959e+01 0.0000000000000000e+00  2.7562085699635461e+00 3.0369945180320848e+01 0.0000000000000000e+00  1.4310649211881357e+00 3.8691425324593531e+00 0.0000000000000000e+00  1.0663147044064538e+00 -1.0032380966055809e+00 0.0000000000000000e+00  2.3343343879088390e+00 2.0722426506780742e+01 0.0000000000000000e+00  2.6909612149885049e+00 2.8796486947883945e+01 0.0000000000000000e+00  1.3422242728643634e+00 2.5509113822039593e+00 0.0000000000000000e+00  1.1625447321972988e+00 9.7978886786956210e-02 0.0000000000000000e+00  2.4885051441698391e+00 2.4112992817863493e+01 0.0000000000000000e+00  2.5575643385278539e+00 2.5663039428592260e+01 0.0000000000000000e+00  1.2138676181512011e+00 7.6749637469095666e-01 0.0000000000000000e+00  1.2941760545406618e+00 1.8498767834113348e+00 0.0000000000000000e+00  2.6475495475496444e+00 2.7773393531713744e+01 0.0000000000000000e+00  2.3877020443773631e+00 2.1899197723999482e+01 0.0000000000000000e+00  1.1030737865358931e+00 -5.9251691377797366e-01 0.0000000000000000e+00  1.4139526526711745e+00 3.5614477823667521e+00 0.0000000000000000e+00  2.7587842984125994e+00 3.0326039741008330e+01 0.0000000000000000e+00  2.2035465830672964e+00 1.8144900963275926e+01 0.0000000000000000e+00  1.1129363526649738e+00 0.0000000000000000e+00 0.0000000000000000e+00  </DataArray> 
</PointData> 
</Piece>
</UnstructuredGrid>
</VTKFile>