<?xml version="1.0"?>
<VTKFile type="UnstructuredGrid"  version="0.1"  >
<UnstructuredGrid>
<Piece  NumberOfPoints="201" NumberOfCells="200">
<Points>
<DataArray  type="Float64"  NumberOfComponents="3"  format="ascii">-5 0 0  -4.95 0 0  -4.9 0 0  -4.85 0 0  -4.8 0 0  -4.75 0 0  -4.7 0 0  -4.65 0 0  -4.6 0 0  -4.55 0 0  -4.5 0 0  -4.45 0 0  -4.4 0 0  -4.35 0 0  -4.3 0 0  -4.25 0 0  -4.2 0 0  -4.15 0 0  -4.1 0 0  -4.05 0 0  -4 0 0  -3.95 0 0  -3.9 0 0  -3.85 0 0  -3.8 0 0  -3.75 0 0  -3.7 0 0  -3.65 0 0  -3.6 0 0  -3.55 0 0  -3.5 0 0  -3.45 0 0  -3.4 0 0  -3.35 0 0  -3.3 0 0  -3.25 0 0  -3.2 0 0  -3.15 0 0  -3.1 0 0  -3.05 0 0  -3 0 0  -2.95 0 0  -2.9 0 0  -2.85 0 0  -2.8 0 0  -2.75 0 0  -2.7 0 0  -2.65 0 0  -2.6 0 0  -2.55 0 0  -2.5 0 0  -2.45 0 0  -2.4 0 0  -2.35 0 0  -2.3 0 0  -2.25 0 0  -2.2 0 0  -2.15 0 0  -2.1 0 0  -2.05 0 0  -2 0 0  -1.95 0 0  -1.9 0 0  -1.85 0 0  -1.8 0 0  -1.75 0 0  -1.7 0 0  -1.65 0 0  -1.6 0 0  -1.55 0 0  -1.5 0 0  -1.45 0 0  -1.4 0 0  -1.35 0 0  -1.3 0 0  -1.25 0 0  -1.2 0 0  -1.15 0 0  -1.1 0 0  -1.05 0 0  -1 0 0  -0.9500000000000002 0 0  -0.9000000000000004 0 0  -0.8499999999999996 0 0  -0.7999999999999998 0 0  -0.75 0 0  -0.7000000000000002 0 0  -0.6500000000000004 0 0  -0.5999999999999996 0 0  -0.5499999999999998 0 0  -0.5 0 0  -0.4500000000000002 0 0  -0.4000000000000004 0 0  -0.3499999999999996 0 0  -0.2999999999999998 0 0  -0.25 0 0  -0.2000000000000002 0 0  -0.1500000000000004 0 0  -0.09999999999999964 0 0  -0.04999999999999982 0 0  0 0 0  0.04999999999999982 0 0  0.09999999999999964 0 0  0.1500000000000004 0 0  0.2000000000000002 0 0  0.25 0 0  0.2999999999999998 0 0  0.3499999999999996 0 0  0.4000000000000004 0 0  0.4500000000000002 0 0  0.5 0 0  0.5499999999999998 0 0  0.5999999999999996 0 0  0.6500000000000004 0 0  0.7000000000000002 0 0  0.75 0 0  0.7999999999999998 0 0  0.8499999999999996 0 0  0.9000000000000004 0 0  0.9500000000000002 0 0  1 0 0  1.05 0 0  1.1 0 0  1.15 0 0  1.2 0 0  1.25 0 0  1.3 0 0  1.35 0 0  1.4 0 0  1.45 0 0  1.5 0 0  1.55 0 0  1.6 0 0  1.65 0 0  1.7 0 0  1.75 0 0  1.8 0 0  1.85 0 0  1.9 0 0  1.95 0 0  2 0 0  2.05 0 0  2.1 0 0  2.15 0 0  2.2 0 0  2.25 0 0  2.3 0 0  2.35 0 0  2.4 0 0  2.45 0 0  2.5 0 0  2.55 0 0  2.6 0 0  2.65 0 0  2.7 0 0  2.75 0 0  2.8 0 0  2.85 0 0  2.9 0 0  2.95 0 0  3 0 0  3.050000000000001 0 0  3.1 0 0  3.15 0 0  3.199999999999999 0 0  3.25 0 0  3.300000000000001 0 0  3.35 0 0  3.4 0 0  3.449999999999999 0 0  3.5 0 0  3.550000000000001 0 0  3.6 0 0  3.65 0 0  3.699999999999999 0 0  3.75 0 0  3.800000000000001 0 0  3.85 0 0  3.9 0 0  3.949999999999999 0 0  4 0 0  4.050000000000001 0 0  4.1 0 0  4.15 0 0  4.199999999999999 0 0  4.25 0 0  4.300000000000001 0 0  4.35 0 0  4.4 0 0  4.449999999999999 0 0  4.5 0 0  4.550000000000001 0 0  4.6 0 0  4.65 0 0  4.699999999999999 0 0  4.75 0 0  4.800000000000001 0 0  4.85 0 0  4.9 0 0  4.949999999999999 0 0  5 0 0  </DataArray>
</Points>
<Cells>
<DataArray  type="UInt32"  Name="connectivity"  format="ascii">0 1  1 2  2 3  3 4  4 5  5 6  6 7  7 8  8 9  9 10  10 11  11 12  12 13  13 14  14 15  15 16  16 17  17 18  18 19  19 20  20 21  21 22  22 23  23 24  24 25  25 26  26 27  27 28  28 29  29 30  30 31  31 32  32 33  33 34  34 35  35 36  36 37  37 38  38 39  39 40  40 41  41 42  42 43  43 44  44 45  45 46  46 47  47 48  48 49  49 50  50 51  51 52  52 53  53 54  54 55  55 56  56 57  57 58  58 59  59 60  60 61  61 62  62 63  63 64  64 65  65 66  66 67  67 68  68 69  69 70  70 71  71 72  72 73  73 74  74 75  75 76  76 77  77 78  78 79  79 80  80 81  81 82  82 83  83 84  84 85  85 86  86 87  87 88  88 89  89 90  90 91  91 92  92 93  93 94  94 95  95 96  96 97  97 98  98 99  99 100  100 101  101 102  102 103  103 104  104 105  105 106  106 107  107 108  108 109  109 110  110 111  111 112  112 113  113 114  114 115  115 116  116 117  117 118  118 119  119 120  120 121  121 122  122 123  123 124  124 125  125 126  126 127  127 128  128 129  129 130  130 131  131 132  132 133  133 134  134 135  135 136  136 137  137 138  138 139  139 140  140 141  141 142  142 143  143 144  144 145  145 146  146 147  147 148  148 149  149 150  150 151  151 152  152 153  153 154  154 155  155 156  156 157  157 158  158 159  159 160  160 161  161 162  162 163  163 164  164 165  165 166  166 167  167 168  168 169  169 170  170 171  171 172  172 173  173 174  174 175  175 176  176 177  177 178  178 179  179 180  180 181  181 182  182 183  183 184  184 185  185 186  186 187  187 188  188 189  189 190  190 191  191 192  192 193  193 194  194 195  195 196  196 197  197 198  198 199  199 200  </DataArray>
<DataArray  type="UInt32"  Name="offsets"  format="ascii">2 4 6 8 10 12 14 16 18 20 22 24 26 28 30 32 34 36 38 40 42 44 46 48 50 52 54 56 58 60 62 64 66 68 70 72 74 76 78 80 82 84 86 88 90 92 94 96 98 100 102 104 106 108 110 112 114 116 118 120 122 124 126 128 130 132 134 136 138 140 142 144 146 148 150 152 154 156 158 160 162 164 166 168 170 172 174 176 178 180 182 184 186 188 190 192 194 196 198 200 202 204 206 208 210 212 214 216 218 220 222 224 226 228 230 232 234 236 238 240 242 244 246 248 250 252 254 256 258 260 262 264 266 268 270 272 274 276 278 280 282 284 286 288 290 292 294 296 298 300 302 304 306 308 310 312 314 316 318 320 322 324 326 328 330 332 334 336 338 340 342 344 346 348 350 352 354 356 358 360 362 364 366 368 370 372 374 376 378 380 382 384 386 388 390 392 394 396 398 400 </DataArray>
<DataArray  type="UInt8"  Name="types"  format="ascii">3 3 3 3 3 3 3 3 3 3 3 3 3 3 3 3 3 3 3 3 3 3 3 3 3 3 3 3 3 3 3 3 3 3 3 3 3 3 3 3 3 3 3 3 3 3 3 3 3 3 3 3 3 3 3 3 3 3 3 3 3 3 3 3 3 3 3 3 3 3 3 3 3 3 3 3 3 3 3 3 3 3 3 3 3 3 3 3 3 3 3 3 3 3 3 3 3 3 3 3 3 3 3 3 3 3 3 3 3 3 3 3 3 3 3 3 3 3 3 3 3 3 3 3 3 3 3 3 3 3 3 3 3 3 3 3 3 3 3 3 3 3 3 3 3 3 3 3 3 3 3 3 3 3 3 3 3 3 3 3 3 3 3 3 3 3 3 3 3 3 3 3 3 3 3 3 3 3 3 3 3 3 3 3 3 3 3 3 3 3 3 3 3 3 3 3 3 3 3 3 </DataArray>
</Cells>
<PointData  Vectors="(s, w)"> 
<DataArray  type="Float64"  Name="(s, w)"  NumberOfComponents="3" format="ascii">3.1775124179505876e+00 0.0000000000000000e+00 0.0000000000000000e+00  3.1481259638405517e+00 -2.8475028489477056e-01 0.0000000000000000e+00  3.1742361160968731e+00 5.4888768124009557e-01 0.0000000000000000e+00  3.1543617691773775e+00 -7.3895709131895115e-01 0.0000000000000000e+00  3.1651643907029765e+00 8.7681154404118045e-01 0.0000000000000000e+00  3.1654694559819356e+00 -8.9728156190824437e-01 0.0000000000000000e+00  3.1527046754724397e+00 8.5669674708568255e-01 0.0000000000000000e+00  3.1782971739401567e+00 -7.0696430309193226e-01 0.0000000000000000e+00  3.1410088175577271e+00 5.1090839855035330e-01 0.0000000000000000e+00  3.1878825512741993e+00 -2.6412184156832741e-01 0.0000000000000000e+00  3.1353353926827094e+00 2.1525367302268955e-03 0.0000000000000000e+00  3.1887483604464473e+00 2.3184265318404634e-01 0.0000000000000000e+00  3.1402015273531596e+00 -4.4260754594871249e-01 0.0000000000000000e+00  3.1776054360119370e+00 5.7171575380451678e-01 0.0000000000000000e+00  3.1566644775720336e+00 -6.4511868549914564e-01 0.0000000000000000e+00  3.1562366025079580e+00 6.3768240234987505e-01 0.0000000000000000e+00  3.1801820412280399e+00 -5.6794369207182260e-01 0.0000000000000000e+00  3.1324131694027066e+00 4.6298809239794314e-01 0.0000000000000000e+00  3.2010802148793762e+00 -3.2791089860820916e-01 0.0000000000000000e+00  3.1172065571754755e+00 2.0950210930349888e-01 0.0000000000000000e+00  3.2086554663820075e+00 -1.1484680140317097e-01 0.0000000000000000e+00  3.1192715149861447e+00 6.0666712624950152e-02 0.0000000000000000e+00  3.1973835728495037e+00 -6.1707202757923151e-02 0.0000000000000000e+00  3.1392097277210063e+00 8.8440404220005833e-02 0.0000000000000000e+00  3.1713818238881588e+00 -1.4811777876059568e-01 0.0000000000000000e+00  3.1679660932606901e+00 1.9112562873567138e-01 0.0000000000000000e+00  3.1432659600304271e+00 -2.0711572337913631e-01 0.0000000000000000e+00  3.1914528133826412e+00 1.6501846190769992e-01 0.0000000000000000e+00  3.1266722721996811e+00 -5.0422124468365331e-02 0.0000000000000000e+00  3.1995675428147075e+00 -1.2627607498067134e-01 0.0000000000000000e+00  3.1267541833316868e+00 3.6159976635078772e-01 0.0000000000000000e+00  3.1935501445930821e+00 -6.1117563150742915e-01 0.0000000000000000e+00  3.1360826417435543e+00 8.4726911558802065e-01 0.0000000000000000e+00  3.1851970035157597e+00 -1.0269133725404811e+00 0.0000000000000000e+00  3.1405796071395953e+00 1.1200371446670170e+00 0.0000000000000000e+00  3.1870032925436775e+00 -1.1165475078139930e+00 0.0000000000000000e+00  3.1319918750103333e+00 1.0239032419144614e+00 0.0000000000000000e+00  3.2005230183612521e+00 -8.6247124697138855e-01 0.0000000000000000e+00  3.1162993062593984e+00 6.8929621778092798e-01 0.0000000000000000e+00  3.2138407535245821e+00 -5.2827481805714460e-01 0.0000000000000000e+00  3.1089316176058226e+00 4.4097619363734375e-01 0.0000000000000000e+00  3.2125670868282064e+00 -4.2477838716441130e-01 0.0000000000000000e+00  3.1192467072860883e+00 4.9313782438497150e-01 0.0000000000000000e+00  3.1952467238433662e+00 -5.9778430714325104e-01 0.0000000000000000e+00  3.1390918087257589e+00 7.2039146264329079e-01 0.0000000000000000e+00  3.1764556992566653e+00 -7.5791993786193845e-01 0.0000000000000000e+00  3.1490976063241019e+00 7.9550017612198376e-01 0.0000000000000000e+00  3.1708179481720644e+00 -5.7166470627010724e-01 0.0000000000000000e+00  3.1384026245189269e+00 6.0693003402244305e-01 0.0000000000000000e+00  3.1731153831917887e+00 -3.3386456147229029e-02 0.0000000000000000e+00  3.1161419184008428e+00 4.8817627986530315e-01 0.0000000000000000e+00  3.1600807605962302e+00 5.3365600608989494e-01 0.0000000000000000e+00  3.0988332045265592e+00 8.8383101843871903e-01 0.0000000000000000e+00  3.1186957342800214e+00 9.1776757604162240e-01 0.0000000000000000e+00  3.0852254260666956e+00 1.7368076004868469e+00 0.0000000000000000e+00  3.0674696862229172e+00 1.3848767409126630e+00 0.0000000000000000e+00  3.0538532014406710e+00 2.4793230677814657e+00 0.0000000000000000e+00  3.0325658497761832e+00 2.3074185186096861e+00 0.0000000000000000e+00  2.9994229121011906e+00 2.8803111319583596e+00 0.0000000000000000e+00  3.0042475505940800e+00 3.3944243076318008e+00 0.0000000000000000e+00  2.9522765130345339e+00 3.4727036552098118e+00 0.0000000000000000e+00  2.9530708819181801e+00 4.0226608657810203e+00 0.0000000000000000e+00  2.9271969870071910e+00 4.5174528373133294e+00 0.0000000000000000e+00  2.8927668129457444e+00 4.4511599067519994e+00 0.0000000000000000e+00  2.8892392482978937e+00 5.3063937479213745e+00 0.0000000000000000e+00  2.8594452753587793e+00 5.3879918929787758e+00 0.0000000000000000e+00  2.8271079556448302e+00 5.6097984506672933e+00 0.0000000000000000e+00  2.8292597626562550e+00 6.3546590456186696e+00 0.0000000000000000e+00  2.7864717023855392e+00 6.3260765660238434e+00 0.0000000000000000e+00  2.7676319777042901e+00 6.6687214731560003e+00 0.0000000000000000e+00  2.7628350084382216e+00 7.3577356286920299e+00 0.0000000000000000e+00  2.7186741521002036e+00 7.2059994448214981e+00 0.0000000000000000e+00  2.7052615372720554e+00 7.6945591525791910e+00 0.0000000000000000e+00  2.6976392174147774e+00 8.2647699819750464e+00 0.0000000000000000e+00  2.6510347127146061e+00 8.0761902732016857e+00 0.0000000000000000e+00  2.6431136166288285e+00 8.6297592502937306e+00 0.0000000000000000e+00  2.6319176432126667e+00 9.1262632255866034e+00 0.0000000000000000e+00  2.5853291180460678e+00 8.9049535178768622e+00 0.0000000000000000e+00  2.5791980568111459e+00 9.4826961665580534e+00 0.0000000000000000e+00  2.5677244930981931e+00 9.9469278767746108e+00 0.0000000000000000e+00  2.5200328824991174e+00 9.6883970791331659e+00 0.0000000000000000e+00  2.5145349805275372e+00 1.0254683199717974e+01 0.0000000000000000e+00  2.5042325345113126e+00 1.0725008166077412e+01 0.0000000000000000e+00  2.4558789508730454e+00 1.0431020548112011e+01 0.0000000000000000e+00  2.4489408089315954e+00 1.0950696105274361e+01 0.0000000000000000e+00  2.4409817388330173e+00 1.1445641866525126e+01 0.0000000000000000e+00  2.3928958637500832e+00 1.1138688116033460e+01 0.0000000000000000e+00  2.3842882401647496e+00 1.1603955321670258e+01 0.0000000000000000e+00  2.3748910442165370e+00 1.2051257453811038e+01 0.0000000000000000e+00  2.3322483930633902e+00 1.1830276979421305e+01 0.0000000000000000e+00  2.3238494864734567e+00 1.2280625233436913e+01 0.0000000000000000e+00  2.3016656221597049e+00 1.2450899271145788e+01 0.0000000000000000e+00  2.2731744288904610e+00 1.2488628197145333e+01 0.0000000000000000e+00  2.2756802316605627e+00 1.3129989183767789e+01 0.0000000000000000e+00  2.2153190189539584e+00 1.2524444401726646e+01 0.0000000000000000e+00  2.2112197242056668e+00 1.3015983017539025e+01 0.0000000000000000e+00  2.2504125444402621e+00 1.4365504382500150e+01 0.0000000000000000e+00  2.1151451819108615e+00 1.2259877764777864e+01 0.0000000000000000e+00  2.1308626690453583e+00 1.3136838953603263e+01 0.0000000000000000e+00  2.2526898007722771e+00 1.6184517821559968e+01 0.0000000000000000e+00  1.9950034920699202e+00 1.2101598739001307e+01 0.0000000000000000e+00  2.0153284310872137e+00 1.2407264059689687e+01 0.0000000000000000e+00  2.2822359267536116e+00 1.8197967125291044e+01 0.0000000000000000e+00  1.9966529040584780e+00 1.2146545966763178e+01 0.0000000000000000e+00  1.8998281476650172e+00 1.0561607067120015e+01 0.0000000000000000e+00  2.3470389211493714e+00 1.9350620453051871e+01 0.0000000000000000e+00  2.0427792554903652e+00 1.3602736111092529e+01 0.0000000000000000e+00  1.7733542307641459e+00 8.2277124715422758e+00 0.0000000000000000e+00  2.3263229501711118e+00 1.9403358210732769e+01 0.0000000000000000e+00  2.1776801998095294e+00 1.6338346111218158e+01 0.0000000000000000e+00  1.6568343082584807e+00 6.3961982965419919e+00 0.0000000000000000e+00  2.2196998930865433e+00 1.7354327718665679e+01 0.0000000000000000e+00  2.3519512460355703e+00 2.0126657927873950e+01 0.0000000000000000e+00  1.6301728922426468e+00 6.0363449367286952e+00 0.0000000000000000e+00  1.9891393976141332e+00 1.3069364406287248e+01 0.0000000000000000e+00  2.5207964310664686e+00 2.3676384898070335e+01 0.0000000000000000e+00  1.7425454346951565e+00 8.5012619525267752e+00 0.0000000000000000e+00  1.6795030670310320e+00 7.2112388588326137e+00 0.0000000000000000e+00  2.5480146446572305e+00 2.4602760955253132e+01 0.0000000000000000e+00  2.0569282095313124e+00 1.4623217429327770e+01 0.0000000000000000e+00  1.4063800624532454e+00 2.5812934558662040e+00 0.0000000000000000e+00  2.2819503649296240e+00 1.9292606111594562e+01 0.0000000000000000e+00  2.4906109236678766e+00 2.3580532698792180e+01 0.0000000000000000e+00  1.4285348818718115e+00 3.3191891598707484e+00 0.0000000000000000e+00  1.7035836784722558e+00 8.2212488769862695e+00 0.0000000000000000e+00  2.7088523245457079e+00 2.8549726363246439e+01 0.0000000000000000e+00  1.9286419966670645e+00 1.2545566535321605e+01 0.0000000000000000e+00  1.2074428100538543e+00 -2.2595267266396272e-02 0.0000000000000000e+00  2.2333120169446716e+00 1.8666501961252159e+01 0.0000000000000000e+00  2.6528655843226820e+00 2.7484611798929862e+01 0.0000000000000000e+00  1.4063438079697952e+00 3.4900148034438012e+00 0.0000000000000000e+00  1.3385286912731920e+00 2.2829462532156235e+00 0.0000000000000000e+00  2.6219198902658305e+00 2.7102985340505899e+01 0.0000000000000000e+00  2.3552574639381034e+00 2.1091587562190590e+01 0.0000000000000000e+00  1.1149942731906732e+00 -5.9339969865881848e-01 0.0000000000000000e+00  1.5429420450960696e+00 5.6456838491702577e+00 0.0000000000000000e+00  2.7936696953382305e+00 3.1226685821216531e+01 0.0000000000000000e+00  2.0994050734057716e+00 1.5780127929957848e+01 0.0000000000000000e+00  9.9620377696412876e-01 -1.7939214415382083e+00 0.0000000000000000e+00  1.6682195507638999e+00 7.6996077854565810e+00 0.0000000000000000e+00  2.8425334861346090e+00 3.2493892326050123e+01 0.0000000000000000e+00  1.9695412525482150e+00 1.3220699248784484e+01 0.0000000000000000e+00  9.7570825916313031e-01 -2.0075317231941630e+00 0.0000000000000000e+00  1.7892359195422496e+00 9.8220825237606793e+00 0.0000000000000000e+00  2.8441951979103943e+00 3.2552529467360984e+01 0.0000000000000000e+00  1.8488709599518034e+00 1.0648114217685270e+01 0.0000000000000000e+00  9.5339799984108520e-01 -1.4709055504484749e+00 0.0000000000000000e+00  9.9629434556148155e-01 3.5337377327854136e-01 0.0000000000000000e+00  1.0039072552983039e+00 -8.2804480673435030e-02 0.0000000000000000e+00  9.9915206572497450e-01 1.5768444288675153e-02 0.0000000000000000e+00  9.9941200109966033e-01 1.8264454591231034e-03 0.0000000000000000e+00  1.0010189002695278e+00 -6.0465229311617704e-03 0.0000000000000000e+00  9.9896402208102242e-01 6.4323909917374618e-03 0.0000000000000000e+00  1.0009119225425809e+00 -5.6991228326051975e-03 0.0000000000000000e+00  9.9924668054378118e-01 4.7175271459381062e-03 0.0000000000000000e+00  1.0006003131024235e+00 -3.7587292951250218e-03 0.0000000000000000e+00  9.9953349590688001e-01 2.9221716228563285e-03 0.0000000000000000e+00  1.0003554358873805e+00 -2.2258605162036823e-03 0.0000000000000000e+00  9.9973375513479623e-01 1.6676676667384180e-03 0.0000000000000000e+00  1.0001964504142018e+00 -1.2303113253295602e-03 0.0000000000000000e+00  9.9985704023474575e-01 8.9541525058469871e-04 0.0000000000000000e+00  1.0001027148582999e+00 -6.4329333974408559e-04 0.0000000000000000e+00  9.9992707727251307e-01 4.5673416919150990e-04 0.0000000000000000e+00  1.0000511951794289e+00 -3.2063596214937005e-04 0.0000000000000000e+00  9.9996443703593363e-01 2.2273744880645471e-04 0.0000000000000000e+00  1.0000244578351309e+00 -1.5318101884518822e-04 0.0000000000000000e+00  9.9998333894600788e-01 1.0435063724881443e-04 0.0000000000000000e+00  1.0000112473346510e+00 -7.0443091076340551e-05 0.0000000000000000e+00  9.9999247276917858e-01 4.7144018372543261e-05 0.0000000000000000e+00  1.0000049960007322e+00 -3.1290474284059245e-05 0.0000000000000000e+00  9.9999671027815529e-01 2.0603924913932426e-05 0.0000000000000000e+00  1.0000021497235376e+00 -1.3463955097558025e-05 0.0000000000000000e+00  9.9999860549856512e-01 8.7339255684803244e-06 0.0000000000000000e+00  1.0000008982264277e+00 -5.6256931708287537e-06 0.0000000000000000e+00  9.9999942536466713e-01 3.5990073801086568e-06 0.0000000000000000e+00  1.0000003652082246e+00 -2.2873405749875491e-06 0.0000000000000000e+00  9.9999976936462143e-01 1.4444958288784189e-06 0.0000000000000000e+00  1.0000001447565094e+00 -9.0662651691176466e-07 0.0000000000000000e+00  9.9999990968470165e-01 5.6565505109756056e-07 0.0000000000000000e+00  1.0000000560241202e+00 -3.5088544985189740e-07 0.0000000000000000e+00  9.9999996544154957e-01 2.1644352133746906e-07 0.0000000000000000e+00  1.0000000212016642e+00 -1.3278844356703218e-07 0.0000000000000000e+00  9.9999998706133852e-01 8.1036315538158495e-08 0.0000000000000000e+00  1.0000000078555462e+00 -4.9200176565140833e-08 0.0000000000000000e+00  9.9999999525439520e-01 2.9722272330444596e-08 0.0000000000000000e+00  1.0000000028529412e+00 -1.7868296642442250e-08 0.0000000000000000e+00  9.9999999829299313e-01 1.0691174036685386e-08 0.0000000000000000e+00  1.0000000010166497e+00 -6.3673849140358243e-09 0.0000000000000000e+00  9.9999999939723083e-01 3.7752093648364451e-09 0.0000000000000000e+00  1.0000000003558147e+00 -2.2284919788007024e-09 0.0000000000000000e+00  9.9999999979086096e-01 1.3098365220281512e-09 0.0000000000000000e+00  1.0000000001224154e+00 -7.6664811821454723e-10 0.0000000000000000e+00  9.9999999992863486e-01 4.4687071832463400e-10 0.0000000000000000e+00  1.0000000000414451e+00 -2.5939306025719196e-10 0.0000000000000000e+00  9.9999999997601385e-01 1.4990822969797390e-10 0.0000000000000000e+00  1.0000000000138505e+00 -8.6172818729130871e-11 0.0000000000000000e+00  9.9999999999199352e-01 4.9115584813048449e-11 0.0000000000000000e+00  1.0000000000046791e+00 -2.7462409316503145e-11 0.0000000000000000e+00  9.9999999999715494e-01 1.4525575090209132e-11 0.0000000000000000e+00  1.0000000000019340e+00 -6.2582885775265533e-12 0.0000000000000000e+00  9.9999999999833999e-01 0.0000000000000000e+00 0.0000000000000000e+00  </DataArray> 
</PointData> 
</Piece>
</UnstructuredGrid>
</VTKFile>