<?xml version="1.0"?>
<VTKFile type="UnstructuredGrid"  version="0.1"  >
<UnstructuredGrid>
<Piece  NumberOfPoints="201" NumberOfCells="200">
<Points>
<DataArray  type="Float64"  NumberOfComponents="3"  format="ascii">-5 0 0  -4.95 0 0  -4.9 0 0  -4.85 0 0  -4.8 0 0  -4.75 0 0  -4.7 0 0  -4.65 0 0  -4.6 0 0  -4.55 0 0  -4.5 0 0  -4.45 0 0  -4.4 0 0  -4.35 0 0  -4.3 0 0  -4.25 0 0  -4.2 0 0  -4.15 0 0  -4.1 0 0  -4.05 0 0  -4 0 0  -3.95 0 0  -3.9 0 0  -3.85 0 0  -3.8 0 0  -3.75 0 0  -3.7 0 0  -3.65 0 0  -3.6 0 0  -3.55 0 0  -3.5 0 0  -3.45 0 0  -3.4 0 0  -3.35 0 0  -3.3 0 0  -3.25 0 0  -3.2 0 0  -3.15 0 0  -3.1 0 0  -3.05 0 0  -3 0 0  -2.95 0 0  -2.9 0 0  -2.85 0 0  -2.8 0 0  -2.75 0 0  -2.7 0 0  -2.65 0 0  -2.6 0 0  -2.55 0 0  -2.5 0 0  -2.45 0 0  -2.4 0 0  -2.35 0 0  -2.3 0 0  -2.25 0 0  -2.2 0 0  -2.15 0 0  -2.1 0 0  -2.05 0 0  -2 0 0  -1.95 0 0  -1.9 0 0  -1.85 0 0  -1.8 0 0  -1.75 0 0  -1.7 0 0  -1.65 0 0  -1.6 0 0  -1.55 0 0  -1.5 0 0  -1.45 0 0  -1.4 0 0  -1.35 0 0  -1.3 0 0  -1.25 0 0  -1.2 0 0  -1.15 0 0  -1.1 0 0  -1.05 0 0  -1 0 0  -0.9500000000000002 0 0  -0.9000000000000004 0 0  -0.8499999999999996 0 0  -0.7999999999999998 0 0  -0.75 0 0  -0.7000000000000002 0 0  -0.6500000000000004 0 0  -0.5999999999999996 0 0  -0.5499999999999998 0 0  -0.5 0 0  -0.4500000000000002 0 0  -0.4000000000000004 0 0  -0.3499999999999996 0 0  -0.2999999999999998 0 0  -0.25 0 0  -0.2000000000000002 0 0  -0.1500000000000004 0 0  -0.09999999999999964 0 0  -0.04999999999999982 0 0  0 0 0  0.04999999999999982 0 0  0.09999999999999964 0 0  0.1500000000000004 0 0  0.2000000000000002 0 0  0.25 0 0  0.2999999999999998 0 0  0.3499999999999996 0 0  0.4000000000000004 0 0  0.4500000000000002 0 0  0.5 0 0  0.5499999999999998 0 0  0.5999999999999996 0 0  0.6500000000000004 0 0  0.7000000000000002 0 0  0.75 0 0  0.7999999999999998 0 0  0.8499999999999996 0 0  0.9000000000000004 0 0  0.9500000000000002 0 0  1 0 0  1.05 0 0  1.1 0 0  1.15 0 0  1.2 0 0  1.25 0 0  1.3 0 0  1.35 0 0  1.4 0 0  1.45 0 0  1.5 0 0  1.55 0 0  1.6 0 0  1.65 0 0  1.7 0 0  1.75 0 0  1.8 0 0  1.85 0 0  1.9 0 0  1.95 0 0  2 0 0  2.05 0 0  2.1 0 0  2.15 0 0  2.2 0 0  2.25 0 0  2.3 0 0  2.35 0 0  2.4 0 0  2.45 0 0  2.5 0 0  2.55 0 0  2.6 0 0  2.65 0 0  2.7 0 0  2.75 0 0  2.8 0 0  2.85 0 0  2.9 0 0  2.95 0 0  3 0 0  3.050000000000001 0 0  3.1 0 0  3.15 0 0  3.199999999999999 0 0  3.25 0 0  3.300000000000001 0 0  3.35 0 0  3.4 0 0  3.449999999999999 0 0  3.5 0 0  3.550000000000001 0 0  3.6 0 0  3.65 0 0  3.699999999999999 0 0  3.75 0 0  3.800000000000001 0 0  3.85 0 0  3.9 0 0  3.949999999999999 0 0  4 0 0  4.050000000000001 0 0  4.1 0 0  4.15 0 0  4.199999999999999 0 0  4.25 0 0  4.300000000000001 0 0  4.35 0 0  4.4 0 0  4.449999999999999 0 0  4.5 0 0  4.550000000000001 0 0  4.6 0 0  4.65 0 0  4.699999999999999 0 0  4.75 0 0  4.800000000000001 0 0  4.85 0 0  4.9 0 0  4.949999999999999 0 0  5 0 0  </DataArray>
</Points>
<Cells>
<DataArray  type="UInt32"  Name="connectivity"  format="ascii">0 1  1 2  2 3  3 4  4 5  5 6  6 7  7 8  8 9  9 10  10 11  11 12  12 13  13 14  14 15  15 16  16 17  17 18  18 19  19 20  20 21  21 22  22 23  23 24  24 25  25 26  26 27  27 28  28 29  29 30  30 31  31 32  32 33  33 34  34 35  35 36  36 37  37 38  38 39  39 40  40 41  41 42  42 43  43 44  44 45  45 46  46 47  47 48  48 49  49 50  50 51  51 52  52 53  53 54  54 55  55 56  56 57  57 58  58 59  59 60  60 61  61 62  62 63  63 64  64 65  65 66  66 67  67 68  68 69  69 70  70 71  71 72  72 73  73 74  74 75  75 76  76 77  77 78  78 79  79 80  80 81  81 82  82 83  83 84  84 85  85 86  86 87  87 88  88 89  89 90  90 91  91 92  92 93  93 94  94 95  95 96  96 97  97 98  98 99  99 100  100 101  101 102  102 103  103 104  104 105  105 106  106 107  107 108  108 109  109 110  110 111  111 112  112 113  113 114  114 115  115 116  116 117  117 118  118 119  119 120  120 121  121 122  122 123  123 124  124 125  125 126  126 127  127 128  128 129  129 130  130 131  131 132  132 133  133 134  134 135  135 136  136 137  137 138  138 139  139 140  140 141  141 142  142 143  143 144  144 145  145 146  146 147  147 148  148 149  149 150  150 151  151 152  152 153  153 154  154 155  155 156  156 157  157 158  158 159  159 160  160 161  161 162  162 163  163 164  164 165  165 166  166 167  167 168  168 169  169 170  170 171  171 172  172 173  173 174  174 175  175 176  176 177  177 178  178 179  179 180  180 181  181 182  182 183  183 184  184 185  185 186  186 187  187 188  188 189  189 190  190 191  191 192  192 193  193 194  194 195  195 196  196 197  197 198  198 199  199 200  </DataArray>
<DataArray  type="UInt32"  Name="offsets"  format="ascii">2 4 6 8 10 12 14 16 18 20 22 24 26 28 30 32 34 36 38 40 42 44 46 48 50 52 54 56 58 60 62 64 66 68 70 72 74 76 78 80 82 84 86 88 90 92 94 96 98 100 102 104 106 108 110 112 114 116 118 120 122 124 126 128 130 132 134 136 138 140 142 144 146 148 150 152 154 156 158 160 162 164 166 168 170 172 174 176 178 180 182 184 186 188 190 192 194 196 198 200 202 204 206 208 210 212 214 216 218 220 222 224 226 228 230 232 234 236 238 240 242 244 246 248 250 252 254 256 258 260 262 264 266 268 270 272 274 276 278 280 282 284 286 288 290 292 294 296 298 300 302 304 306 308 310 312 314 316 318 320 322 324 326 328 330 332 334 336 338 340 342 344 346 348 350 352 354 356 358 360 362 364 366 368 370 372 374 376 378 380 382 384 386 388 390 392 394 396 398 400 </DataArray>
<DataArray  type="UInt8"  Name="types"  format="ascii">3 3 3 3 3 3 3 3 3 3 3 3 3 3 3 3 3 3 3 3 3 3 3 3 3 3 3 3 3 3 3 3 3 3 3 3 3 3 3 3 3 3 3 3 3 3 3 3 3 3 3 3 3 3 3 3 3 3 3 3 3 3 3 3 3 3 3 3 3 3 3 3 3 3 3 3 3 3 3 3 3 3 3 3 3 3 3 3 3 3 3 3 3 3 3 3 3 3 3 3 3 3 3 3 3 3 3 3 3 3 3 3 3 3 3 3 3 3 3 3 3 3 3 3 3 3 3 3 3 3 3 3 3 3 3 3 3 3 3 3 3 3 3 3 3 3 3 3 3 3 3 3 3 3 3 3 3 3 3 3 3 3 3 3 3 3 3 3 3 3 3 3 3 3 3 3 3 3 3 3 3 3 3 3 3 3 3 3 3 3 3 3 3 3 3 3 3 3 3 3 </DataArray>
</Cells>
<PointData  Vectors="(s, w)"> 
<DataArray  type="Float64"  Name="(s, w)"  NumberOfComponents="3" format="ascii">2.5468889107602366e+00 0.0000000000000000e+00 0.0000000000000000e+00  2.5367831966210748e+00 2.6128017633955708e-01 0.0000000000000000e+00  2.5295989957603977e+00 4.2247237345102029e-01 0.0000000000000000e+00  2.5512237906621738e+00 6.7337214798266520e-01 0.0000000000000000e+00  2.5346881330001465e+00 9.4720758436234187e-01 0.0000000000000000e+00  2.5322165143522337e+00 1.1103606250457623e+00 0.0000000000000000e+00  2.5452322738846633e+00 1.3547056498341206e+00 0.0000000000000000e+00  2.5419827932721066e+00 1.6315392798320723e+00 0.0000000000000000e+00  2.5256858940333093e+00 1.8060050362360502e+00 0.0000000000000000e+00  2.5480306943584159e+00 2.0301785198118152e+00 0.0000000000000000e+00  2.5396079905377746e+00 2.3159395167736512e+00 0.0000000000000000e+00  2.5292488553279453e+00 2.4893171123072135e+00 0.0000000000000000e+00  2.5407645701087471e+00 2.7098833765453723e+00 0.0000000000000000e+00  2.5464680060614056e+00 2.9846979573272150e+00 0.0000000000000000e+00  2.5234820952907211e+00 3.1822790871615712e+00 0.0000000000000000e+00  2.5424703557809076e+00 3.3826811454428247e+00 0.0000000000000000e+00  2.5430399411454472e+00 3.6666120014109360e+00 0.0000000000000000e+00  2.5276091098544633e+00 3.8649368564317332e+00 0.0000000000000000e+00  2.5341162784774007e+00 4.0727836817224157e+00 0.0000000000000000e+00  2.5492351696415425e+00 4.3289472830296205e+00 0.0000000000000000e+00  2.5225292943907025e+00 4.5583944528967111e+00 0.0000000000000000e+00  2.5355642124361961e+00 4.7462299152319547e+00 0.0000000000000000e+00  2.5452008559768462e+00 5.0043893425609083e+00 0.0000000000000000e+00  2.5274348081709626e+00 5.2310666391786036e+00 0.0000000000000000e+00  2.5261616476703912e+00 5.4452615483709472e+00 0.0000000000000000e+00  2.5504512575392941e+00 5.6584272727245928e+00 0.0000000000000000e+00  2.5224530132389287e+00 5.9164909226471165e+00 0.0000000000000000e+00  2.5267678199573815e+00 6.1194561510227059e+00 0.0000000000000000e+00  2.5450868240117210e+00 6.3274031270904825e+00 0.0000000000000000e+00  2.5281967852138965e+00 6.5655098095878373e+00 0.0000000000000000e+00  2.5161321924202205e+00 6.8194871710189116e+00 0.0000000000000000e+00  2.5490000398390853e+00 6.9754038475225340e+00 0.0000000000000000e+00  2.5235782001056943e+00 7.2298992227240255e+00 0.0000000000000000e+00  2.5162352476781473e+00 7.4877541226905890e+00 0.0000000000000000e+00  2.5411672654371920e+00 7.6484685302829227e+00 0.0000000000000000e+00  2.5304558570178628e+00 7.8501499556860281e+00 0.0000000000000000e+00  2.5044987368041345e+00 8.1746709382416132e+00 0.0000000000000000e+00  2.5425086231831919e+00 8.2993034067527578e+00 0.0000000000000000e+00  2.5260211474375724e+00 8.4722530705564481e+00 0.0000000000000000e+00  2.5045500326487082e+00 8.8054733569402828e+00 0.0000000000000000e+00  2.5286785416883415e+00 8.9673684909162272e+00 0.0000000000000000e+00  2.5325317506581402e+00 9.0309155924489630e+00 0.0000000000000000e+00  2.4910004291896448e+00 9.3922194454396202e+00 0.0000000000000000e+00  2.5226075833523298e+00 9.5779550187342988e+00 0.0000000000000000e+00  2.5224796666061136e+00 9.5426077760357622e+00 0.0000000000000000e+00  2.4900706812652307e+00 9.8652355354471712e+00 0.0000000000000000e+00  2.4964189252834545e+00 1.0131848042156056e+01 0.0000000000000000e+00  2.5215055541761755e+00 9.9949302832223523e+00 0.0000000000000000e+00  2.4731976718484669e+00 1.0206675131409829e+01 0.0000000000000000e+00  2.4808719453565682e+00 1.0612406541498700e+01 0.0000000000000000e+00  2.4959611708515306e+00 1.0373765716870720e+01 0.0000000000000000e+00  2.4734388328531174e+00 1.0468146221065249e+01 0.0000000000000000e+00  2.4446624387997509e+00 1.0922192002654050e+01 0.0000000000000000e+00  2.4805434436867717e+00 1.0815001480111341e+01 0.0000000000000000e+00  2.4523229758890985e+00 1.0573004507370134e+01 0.0000000000000000e+00  2.4338154819906030e+00 1.1222904172308857e+01 0.0000000000000000e+00  2.4347831703637004e+00 1.1140457316103886e+01 0.0000000000000000e+00  2.4521696482393827e+00 1.0868754431637251e+01 0.0000000000000000e+00  2.4041042427910320e+00 1.1215254520519405e+01 0.0000000000000000e+00  2.4157757971470430e+00 1.1679592352164837e+01 0.0000000000000000e+00  2.4125592370068922e+00 1.1009545714203616e+01 0.0000000000000000e+00  2.4132686697368326e+00 1.1418215346018446e+01 0.0000000000000000e+00  2.3692208110845265e+00 1.1796021710522931e+01 0.0000000000000000e+00  2.3975946610056269e+00 1.1635162652884995e+01 0.0000000000000000e+00  2.3816434398761590e+00 1.1235435940791628e+01 0.0000000000000000e+00  2.3758700565202657e+00 1.2155879508285942e+01 0.0000000000000000e+00  2.3370633434622050e+00 1.1847836093997513e+01 0.0000000000000000e+00  2.3793791051498463e+00 1.1684067324317578e+01 0.0000000000000000e+00  2.3482609496027984e+00 1.1877207109733874e+01 0.0000000000000000e+00  2.3327547861355180e+00 1.2461550396122338e+01 0.0000000000000000e+00  2.3168894862366178e+00 1.1823128041050342e+01 0.0000000000000000e+00  2.3597359515838123e+00 1.2095347973542196e+01 0.0000000000000000e+00  2.3065478987795132e+00 1.2454509488065430e+01 0.0000000000000000e+00  2.2901350867002956e+00 1.2359635245505627e+01 0.0000000000000000e+00  2.3180834940533908e+00 1.2239888303806046e+01 0.0000000000000000e+00  2.3156831291465063e+00 1.2402817305649027e+01 0.0000000000000000e+00  2.2657917560246008e+00 1.2846916020917835e+01 0.0000000000000000e+00  2.2606775092176270e+00 1.2213790294237370e+01 0.0000000000000000e+00  2.3243070301550288e+00 1.3008328514989735e+01 0.0000000000000000e+00  2.2373201694428611e+00 1.2229503799487173e+01 0.0000000000000000e+00  2.2549982276806491e+00 1.3481812318734631e+01 0.0000000000000000e+00  2.2347672554020592e+00 1.2007005384169689e+01 0.0000000000000000e+00  2.3131861776223803e+00 1.3818426207422094e+01 0.0000000000000000e+00  2.1491940401051370e+00 1.1846197612272887e+01 0.0000000000000000e+00  2.2855925749720729e+00 1.4452948820658799e+01 0.0000000000000000e+00  2.1816218155063143e+00 1.1442870365492519e+01 0.0000000000000000e+00  2.2884392361022656e+00 1.4791384760592370e+01 0.0000000000000000e+00  2.0868956858842016e+00 1.1543944058423413e+01 0.0000000000000000e+00  2.3231867643906368e+00 1.5139591804667141e+01 0.0000000000000000e+00  2.1010804460782313e+00 1.1106797006520573e+01 0.0000000000000000e+00  2.2626201390171654e+00 1.5803993218439164e+01 0.0000000000000000e+00  2.0660936871431823e+00 1.0940246399993377e+01 0.0000000000000000e+00  2.3193255107732029e+00 1.5670582474620712e+01 0.0000000000000000e+00  2.0279248630444036e+00 1.1814046475536541e+01 0.0000000000000000e+00  2.2404815898596162e+00 1.5162867910722282e+01 0.0000000000000000e+00  2.0898542994396654e+00 1.1673794412016012e+01 0.0000000000000000e+00  2.1935886630434251e+00 1.6151967561429664e+01 0.0000000000000000e+00  2.0775329377767897e+00 1.1506283362153436e+01 0.0000000000000000e+00  2.1275586202798422e+00 1.4625311205212702e+01 0.0000000000000000e+00  2.1726628283499916e+00 1.4633463228885379e+01 0.0000000000000000e+00  2.0349789319091856e+00 1.2712556118147601e+01 0.0000000000000000e+00  2.1370041905700634e+00 1.4402259925114874e+01 0.0000000000000000e+00  2.0877476813756175e+00 1.3909537406385631e+01 0.0000000000000000e+00  2.1774572769954945e+00 1.5543617761570056e+01 0.0000000000000000e+00  1.8877631616389647e+00 9.8194460312697309e+00 0.0000000000000000e+00  2.3911663332867530e+00 1.9595991319381877e+01 0.0000000000000000e+00  1.8388184528340779e+00 8.8879992650511088e+00 0.0000000000000000e+00  2.2679522581341289e+00 1.7372982438047668e+01 0.0000000000000000e+00  1.9316683131850525e+00 1.0872478990061159e+01 0.0000000000000000e+00  2.3613857441332229e+00 1.9218750728563762e+01 0.0000000000000000e+00  1.6939561803227330e+00 6.0725901725932685e+00 0.0000000000000000e+00  2.4978281820464661e+00 2.1844079897494051e+01 0.0000000000000000e+00  1.8225313101372844e+00 8.7228797776890108e+00 0.0000000000000000e+00  2.1938239979222054e+00 1.6114553114701980e+01 0.0000000000000000e+00  2.0016814896493660e+00 1.2424621339044039e+01 0.0000000000000000e+00  2.2932649017780320e+00 1.8092939237579319e+01 0.0000000000000000e+00  1.7925188438942616e+00 8.2323266609696830e+00 0.0000000000000000e+00  2.2496231475525734e+00 1.7205012948907513e+01 0.0000000000000000e+00  2.2016996173666961e+00 1.6370326958351146e+01 0.0000000000000000e+00  1.7859281690590640e+00 8.1051212051529227e+00 0.0000000000000000e+00  2.2823508753760167e+00 1.8098548481918264e+01 0.0000000000000000e+00  2.0727938550320766e+00 1.4049437340621873e+01 0.0000000000000000e+00  2.0840651022934478e+00 1.4341970638143975e+01 0.0000000000000000e+00  1.7718746760356325e+00 8.0195357014989526e+00 0.0000000000000000e+00  2.6457443712743922e+00 2.4995412258002236e+01 0.0000000000000000e+00  1.5817092152405350e+00 4.1883257878932731e+00 0.0000000000000000e+00  2.1954112314161849e+00 1.6618752072360444e+01 0.0000000000000000e+00  2.1414809546691385e+00 1.5707152479247835e+01 0.0000000000000000e+00  2.1871401394074170e+00 1.6591604915046027e+01 0.0000000000000000e+00  1.6197785477658360e+00 5.2754355412426799e+00 0.0000000000000000e+00  2.4508270089026181e+00 2.1527464300916435e+01 0.0000000000000000e+00  2.1338301576930054e+00 1.5437174172875967e+01 0.0000000000000000e+00  1.6239742330175755e+00 5.4437853236487133e+00 0.0000000000000000e+00  2.3449701890008496e+00 1.9720114203089928e+01 0.0000000000000000e+00  2.1597192139123202e+00 1.6444403333638014e+01 0.0000000000000000e+00  1.8751726967615860e+00 1.0679563934502145e+01 0.0000000000000000e+00  1.7970350992765645e+00 9.0895887482442213e+00 0.0000000000000000e+00  2.6831191108714214e+00 2.6178509579027786e+01 0.0000000000000000e+00  1.6125035287245726e+00 5.2064668368638838e+00 0.0000000000000000e+00  1.9125733782262915e+00 1.1571918415985753e+01 0.0000000000000000e+00  2.4108966514024841e+00 2.1447760481528398e+01 0.0000000000000000e+00  2.0253983368701269e+00 1.3817880753721731e+01 0.0000000000000000e+00  1.6444817443675463e+00 6.7053018335197034e+00 0.0000000000000000e+00  2.2174226495671094e+00 1.7384387877630612e+01 0.0000000000000000e+00  2.5074039611082894e+00 2.2937552860895977e+01 0.0000000000000000e+00  1.2880435116869375e+00 -7.6393006976850797e-01 0.0000000000000000e+00  2.3568552897113841e+00 1.9996623297091141e+01 0.0000000000000000e+00  2.2040248349212570e+00 1.8296248276334403e+01 0.0000000000000000e+00  1.9926960155044811e+00 1.3488403477858459e+01 0.0000000000000000e+00  1.4218387710732558e+00 2.0293811564495097e+00 0.0000000000000000e+00  2.8130532313579022e+00 2.9132671810997834e+01 0.0000000000000000e+00  1.8214427800833592e+00 9.5716472805824129e+00 0.0000000000000000e+00  1.6028661757740279e+00 6.2896707552348090e+00 0.0000000000000000e+00  2.2604599271222958e+00 1.9078572338530449e+01 0.0000000000000000e+00  2.4035997782297529e+00 2.1490985697965055e+01 0.0000000000000000e+00  1.5290646142070914e+00 5.1606385442416265e+00 0.0000000000000000e+00  1.7516015324372480e+00 8.5290454834017506e+00 0.0000000000000000e+00  2.8831846037356605e+00 3.0451931945880911e+01 0.0000000000000000e+00  1.4287995287292625e+00 2.9917088440679800e+00 0.0000000000000000e+00  1.8415039635866142e+00 1.1284545755110942e+01 0.0000000000000000e+00  2.0954702134735985e+00 1.6559227614961763e+01 0.0000000000000000e+00  2.7128021241913141e+00 2.6657106678757728e+01 0.0000000000000000e+00  8.7197173574259690e-01 -8.3395227256364741e+00 0.0000000000000000e+00  2.4976672564454483e+00 2.2797420746828525e+01 0.0000000000000000e+00  2.2515876258349174e+00 2.0417395626097292e+01 0.0000000000000000e+00  1.9055682399865705e+00 1.2557590422347111e+01 0.0000000000000000e+00  1.2522428184442818e+00 2.3825875956659179e-01 0.0000000000000000e+00  2.7046758959101793e+00 2.7206251539626024e+01 0.0000000000000000e+00  2.2748426910228856e+00 1.8040396627641208e+01 0.0000000000000000e+00  1.0272003894666308e+00 -3.8903827237877935e+00 0.0000000000000000e+00  2.3593719555938915e+00 2.1003306908415205e+01 0.0000000000000000e+00  2.2574664043559061e+00 2.1018767742031461e+01 0.0000000000000000e+00  2.0875194115377065e+00 1.6048907820473467e+01 0.0000000000000000e+00  8.2247597601971234e-01 -8.6705774108857234e+00 0.0000000000000000e+00  3.2469997047596242e+00 3.5755971811960535e+01 0.0000000000000000e+00  1.6607595859367776e+00 8.2594008924178972e+00 0.0000000000000000e+00  1.6800085295181346e+00 1.0585421635429737e+01 0.0000000000000000e+00  1.4515541971301813e+00 3.5765717349800865e+00 0.0000000000000000e+00  3.0782125695528499e+00 3.5889603911671621e+01 0.0000000000000000e+00  1.7426249865244761e+00 6.5582580293881920e-02 0.0000000000000000e+00  3.0903276661151557e+00 -1.8499557451481209e+01 0.0000000000000000e+00  3.9504354241098829e+00 2.0242143442437072e+01 0.0000000000000000e+00  -1.2356837152198620e-01 -6.6656128260745300e+00 0.0000000000000000e+00  3.8309116989804304e+00 1.2438960877112915e+00 0.0000000000000000e+00  3.4073913319298388e+00 -1.0769070796408893e+00 0.0000000000000000e+00  1.7814537888893576e+00 6.7776860395784020e+00 0.0000000000000000e+00  3.3327296468055305e+00 -1.3215203563741138e+01 0.0000000000000000e+00  3.5790102098056371e+00 1.5433864710944565e+01 0.0000000000000000e+00  1.7739955758835024e+00 1.2967191521248933e+01 0.0000000000000000e+00  1.9331007957410393e+00 -1.2499388835214003e+00 0.0000000000000000e+00  3.9966102781005115e+00 2.7090581859165286e+00 0.0000000000000000e+00  2.8070562424262393e+00 -1.6327024698425106e+00 0.0000000000000000e+00  2.1171113412543985e+00 -2.5262983459161042e+01 0.0000000000000000e+00  4.4136246428058383e+00 1.6124010369990849e+01 0.0000000000000000e+00  2.0834316274328626e+00 -7.9673702449785537e+00 0.0000000000000000e+00  3.0960105286828887e+00 -2.3504320200261430e+00 0.0000000000000000e+00  3.3551482867294471e+00 1.7435914082353694e+01 0.0000000000000000e+00  1.0650284382775017e+00 -6.7140808140852908e+00 0.0000000000000000e+00  4.3057180078470791e+00 -2.0945226396689186e+01 0.0000000000000000e+00  2.7026041588299687e+00 2.6825133924167115e+01 0.0000000000000000e+00  8.9208779111277337e-01 0.0000000000000000e+00 0.0000000000000000e+00  </DataArray> 
</PointData> 
</Piece>
</UnstructuredGrid>
</VTKFile>