<?xml version="1.0"?>
<VTKFile type="UnstructuredGrid"  version="0.1"  >
<UnstructuredGrid>
<Piece  NumberOfPoints="201" NumberOfCells="200">
<Points>
<DataArray  type="Float64"  NumberOfComponents="3"  format="ascii">-5 0 0  -4.95 0 0  -4.9 0 0  -4.85 0 0  -4.8 0 0  -4.75 0 0  -4.7 0 0  -4.65 0 0  -4.6 0 0  -4.55 0 0  -4.5 0 0  -4.45 0 0  -4.4 0 0  -4.35 0 0  -4.3 0 0  -4.25 0 0  -4.2 0 0  -4.15 0 0  -4.1 0 0  -4.05 0 0  -4 0 0  -3.95 0 0  -3.9 0 0  -3.85 0 0  -3.8 0 0  -3.75 0 0  -3.7 0 0  -3.65 0 0  -3.6 0 0  -3.55 0 0  -3.5 0 0  -3.45 0 0  -3.4 0 0  -3.35 0 0  -3.3 0 0  -3.25 0 0  -3.2 0 0  -3.15 0 0  -3.1 0 0  -3.05 0 0  -3 0 0  -2.95 0 0  -2.9 0 0  -2.85 0 0  -2.8 0 0  -2.75 0 0  -2.7 0 0  -2.65 0 0  -2.6 0 0  -2.55 0 0  -2.5 0 0  -2.45 0 0  -2.4 0 0  -2.35 0 0  -2.3 0 0  -2.25 0 0  -2.2 0 0  -2.15 0 0  -2.1 0 0  -2.05 0 0  -2 0 0  -1.95 0 0  -1.9 0 0  -1.85 0 0  -1.8 0 0  -1.75 0 0  -1.7 0 0  -1.65 0 0  -1.6 0 0  -1.55 0 0  -1.5 0 0  -1.45 0 0  -1.4 0 0  -1.35 0 0  -1.3 0 0  -1.25 0 0  -1.2 0 0  -1.15 0 0  -1.1 0 0  -1.05 0 0  -1 0 0  -0.9500000000000002 0 0  -0.9000000000000004 0 0  -0.8499999999999996 0 0  -0.7999999999999998 0 0  -0.75 0 0  -0.7000000000000002 0 0  -0.6500000000000004 0 0  -0.5999999999999996 0 0  -0.5499999999999998 0 0  -0.5 0 0  -0.4500000000000002 0 0  -0.4000000000000004 0 0  -0.3499999999999996 0 0  -0.2999999999999998 0 0  -0.25 0 0  -0.2000000000000002 0 0  -0.1500000000000004 0 0  -0.09999999999999964 0 0  -0.04999999999999982 0 0  0 0 0  0.04999999999999982 0 0  0.09999999999999964 0 0  0.1500000000000004 0 0  0.2000000000000002 0 0  0.25 0 0  0.2999999999999998 0 0  0.3499999999999996 0 0  0.4000000000000004 0 0  0.4500000000000002 0 0  0.5 0 0  0.5499999999999998 0 0  0.5999999999999996 0 0  0.6500000000000004 0 0  0.7000000000000002 0 0  0.75 0 0  0.7999999999999998 0 0  0.8499999999999996 0 0  0.9000000000000004 0 0  0.9500000000000002 0 0  1 0 0  1.05 0 0  1.1 0 0  1.15 0 0  1.2 0 0  1.25 0 0  1.3 0 0  1.35 0 0  1.4 0 0  1.45 0 0  1.5 0 0  1.55 0 0  1.6 0 0  1.65 0 0  1.7 0 0  1.75 0 0  1.8 0 0  1.85 0 0  1.9 0 0  1.95 0 0  2 0 0  2.05 0 0  2.1 0 0  2.15 0 0  2.2 0 0  2.25 0 0  2.3 0 0  2.35 0 0  2.4 0 0  2.45 0 0  2.5 0 0  2.55 0 0  2.6 0 0  2.65 0 0  2.7 0 0  2.75 0 0  2.8 0 0  2.85 0 0  2.9 0 0  2.95 0 0  3 0 0  3.050000000000001 0 0  3.1 0 0  3.15 0 0  3.199999999999999 0 0  3.25 0 0  3.300000000000001 0 0  3.35 0 0  3.4 0 0  3.449999999999999 0 0  3.5 0 0  3.550000000000001 0 0  3.6 0 0  3.65 0 0  3.699999999999999 0 0  3.75 0 0  3.800000000000001 0 0  3.85 0 0  3.9 0 0  3.949999999999999 0 0  4 0 0  4.050000000000001 0 0  4.1 0 0  4.15 0 0  4.199999999999999 0 0  4.25 0 0  4.300000000000001 0 0  4.35 0 0  4.4 0 0  4.449999999999999 0 0  4.5 0 0  4.550000000000001 0 0  4.6 0 0  4.65 0 0  4.699999999999999 0 0  4.75 0 0  4.800000000000001 0 0  4.85 0 0  4.9 0 0  4.949999999999999 0 0  5 0 0  </DataArray>
</Points>
<Cells>
<DataArray  type="UInt32"  Name="connectivity"  format="ascii">0 1  1 2  2 3  3 4  4 5  5 6  6 7  7 8  8 9  9 10  10 11  11 12  12 13  13 14  14 15  15 16  16 17  17 18  18 19  19 20  20 21  21 22  22 23  23 24  24 25  25 26  26 27  27 28  28 29  29 30  30 31  31 32  32 33  33 34  34 35  35 36  36 37  37 38  38 39  39 40  40 41  41 42  42 43  43 44  44 45  45 46  46 47  47 48  48 49  49 50  50 51  51 52  52 53  53 54  54 55  55 56  56 57  57 58  58 59  59 60  60 61  61 62  62 63  63 64  64 65  65 66  66 67  67 68  68 69  69 70  70 71  71 72  72 73  73 74  74 75  75 76  76 77  77 78  78 79  79 80  80 81  81 82  82 83  83 84  84 85  85 86  86 87  87 88  88 89  89 90  90 91  91 92  92 93  93 94  94 95  95 96  96 97  97 98  98 99  99 100  100 101  101 102  102 103  103 104  104 105  105 106  106 107  107 108  108 109  109 110  110 111  111 112  112 113  113 114  114 115  115 116  116 117  117 118  118 119  119 120  120 121  121 122  122 123  123 124  124 125  125 126  126 127  127 128  128 129  129 130  130 131  131 132  132 133  133 134  134 135  135 136  136 137  137 138  138 139  139 140  140 141  141 142  142 143  143 144  144 145  145 146  146 147  147 148  148 149  149 150  150 151  151 152  152 153  153 154  154 155  155 156  156 157  157 158  158 159  159 160  160 161  161 162  162 163  163 164  164 165  165 166  166 167  167 168  168 169  169 170  170 171  171 172  172 173  173 174  174 175  175 176  176 177  177 178  178 179  179 180  180 181  181 182  182 183  183 184  184 185  185 186  186 187  187 188  188 189  189 190  190 191  191 192  192 193  193 194  194 195  195 196  196 197  197 198  198 199  199 200  </DataArray>
<DataArray  type="UInt32"  Name="offsets"  format="ascii">2 4 6 8 10 12 14 16 18 20 22 24 26 28 30 32 34 36 38 40 42 44 46 48 50 52 54 56 58 60 62 64 66 68 70 72 74 76 78 80 82 84 86 88 90 92 94 96 98 100 102 104 106 108 110 112 114 116 118 120 122 124 126 128 130 132 134 136 138 140 142 144 146 148 150 152 154 156 158 160 162 164 166 168 170 172 174 176 178 180 182 184 186 188 190 192 194 196 198 200 202 204 206 208 210 212 214 216 218 220 222 224 226 228 230 232 234 236 238 240 242 244 246 248 250 252 254 256 258 260 262 264 266 268 270 272 274 276 278 280 282 284 286 288 290 292 294 296 298 300 302 304 306 308 310 312 314 316 318 320 322 324 326 328 330 332 334 336 338 340 342 344 346 348 350 352 354 356 358 360 362 364 366 368 370 372 374 376 378 380 382 384 386 388 390 392 394 396 398 400 </DataArray>
<DataArray  type="UInt8"  Name="types"  format="ascii">3 3 3 3 3 3 3 3 3 3 3 3 3 3 3 3 3 3 3 3 3 3 3 3 3 3 3 3 3 3 3 3 3 3 3 3 3 3 3 3 3 3 3 3 3 3 3 3 3 3 3 3 3 3 3 3 3 3 3 3 3 3 3 3 3 3 3 3 3 3 3 3 3 3 3 3 3 3 3 3 3 3 3 3 3 3 3 3 3 3 3 3 3 3 3 3 3 3 3 3 3 3 3 3 3 3 3 3 3 3 3 3 3 3 3 3 3 3 3 3 3 3 3 3 3 3 3 3 3 3 3 3 3 3 3 3 3 3 3 3 3 3 3 3 3 3 3 3 3 3 3 3 3 3 3 3 3 3 3 3 3 3 3 3 3 3 3 3 3 3 3 3 3 3 3 3 3 3 3 3 3 3 3 3 3 3 3 3 3 3 3 3 3 3 3 3 3 3 3 3 </DataArray>
</Cells>
<PointData  Vectors="(s, w)"> 
<DataArray  type="Float64"  Name="(s, w)"  NumberOfComponents="3" format="ascii">3.0728793970733714e+00 0.0000000000000000e+00 0.0000000000000000e+00  3.2507558101072935e+00 3.7608896458342686e-02 0.0000000000000000e+00  3.0755295021516456e+00 -7.3175471900723002e-02 0.0000000000000000e+00  3.2455037733444305e+00 9.3944243325793111e-02 0.0000000000000000e+00  3.0834030113963991e+00 -1.0855726451617390e-01 0.0000000000000000e+00  3.2351654818734574e+00 9.7742719449185861e-02 0.0000000000000000e+00  3.0961905279218835e+00 -7.7070819438518123e-02 0.0000000000000000e+00  3.2202265812610844e+00 2.7437757774355771e-02 0.0000000000000000e+00  3.1131438817166290e+00 3.3722280255716594e-02 0.0000000000000000e+00  3.2017371683754869e+00 -1.1947091294705978e-01 0.0000000000000000e+00  3.1328326877620993e+00 2.1379708123255584e-01 0.0000000000000000e+00  3.1815273702645324e+00 -3.2188784854806041e-01 0.0000000000000000e+00  3.1530010991585002e+00 4.2883272613906737e-01 0.0000000000000000e+00  3.1622412974009544e+00 -5.3524017200593799e-01 0.0000000000000000e+00  3.1706784708830713e+00 6.2443865819378563e-01 0.0000000000000000e+00  3.1470491374692506e+00 -6.9858717761541567e-01 0.0000000000000000e+00  3.1826577243558671e+00 7.3767546970988773e-01 0.0000000000000000e+00  3.1389743774638492e+00 -7.4985785981427733e-01 0.0000000000000000e+00  3.1863434699148141e+00 7.1516813682045566e-01 0.0000000000000000e+00  3.1399170424098379e+00 -6.4741399973381353e-01 0.0000000000000000e+00  3.1807969871620405e+00 5.3437498905766023e-01 0.0000000000000000e+00  3.1496409569141841e+00 -3.9196905218871614e-01 0.0000000000000000e+00  3.1676093015986062e+00 2.2149666554294975e-01 0.0000000000000000e+00  3.1651672155423802e+00 -3.9226167627369357e-02 0.0000000000000000e+00  3.1511037533559838e+00 -1.4312020016530597e-01 0.0000000000000000e+00  3.1810728100284051e+00 3.0676378829023404e-01 0.0000000000000000e+00  3.1374350267666213e+00 -4.4120163831937487e-01 0.0000000000000000e+00  3.1909965965432989e+00 5.2416917359427506e-01 0.0000000000000000e+00  3.1325169929590801e+00 -5.5734943002275283e-01 0.0000000000000000e+00  3.1901422174392327e+00 5.2206360185267409e-01 0.0000000000000000e+00  3.1393331176657679e+00 -4.3397708883605279e-01 0.0000000000000000e+00  3.1778785814702495e+00 2.9001971761055878e-01 0.0000000000000000e+00  3.1558159260323029e+00 -1.1474558590305990e-01 0.0000000000000000e+00  3.1590245394075791e+00 -7.6504686390960822e-02 0.0000000000000000e+00  3.1747386384000986e+00 2.5450004746229005e-01 0.0000000000000000e+00  3.1425221535257863e+00 -3.9992030325217515e-01 0.0000000000000000e+00  3.1865146029666609e+00 4.8346624707388086e-01 0.0000000000000000e+00  3.1372859167853013e+00 -5.0146003384063653e-01 0.0000000000000000e+00  3.1842795633539143e+00 4.3719273829430866e-01 0.0000000000000000e+00  3.1468488475481791e+00 -3.0972011453275311e-01 0.0000000000000000e+00  3.1687169767921288e+00 1.2839825274863254e-01 0.0000000000000000e+00  3.1660085645259479e+00 7.1133357083278906e-02 0.0000000000000000e+00  3.1491276841484970e+00 -2.6074890626929109e-01 0.0000000000000000e+00  3.1826113114774710e+00 3.9972917436900285e-01 0.0000000000000000e+00  3.1386109135154125e+00 -4.7040399956664170e-01 0.0000000000000000e+00  3.1849524519051031e+00 4.4613782042530931e-01 0.0000000000000000e+00  3.1450916167399767e+00 -3.4202793435686413e-01 0.0000000000000000e+00  3.1707779730765711e+00 1.6628208169321448e-01 0.0000000000000000e+00  3.1641887658083503e+00 3.6374479173924903e-02 0.0000000000000000e+00  3.1507642826111972e+00 -2.3029721738551262e-01 0.0000000000000000e+00  3.1807367394982595e+00 3.6312554350066267e-01 0.0000000000000000e+00  3.1415405878535680e+00 -4.1376874168374372e-01 0.0000000000000000e+00  3.1803943915449082e+00 3.5594091754978557e-01 0.0000000000000000e+00  3.1515086165534907e+00 -2.1605136435167102e-01 0.0000000000000000e+00  3.1632512614126989e+00 1.6938436635433006e-02 0.0000000000000000e+00  3.1713658345380051e+00 1.7826107722351878e-01 0.0000000000000000e+00  3.1459495235063515e+00 -3.2265025359709804e-01 0.0000000000000000e+00  3.1807446416791669e+00 3.7365217192738914e-01 0.0000000000000000e+00  3.1461785573694172e+00 -2.9304073741765940e-01 0.0000000000000000e+00  3.1681216450954701e+00 1.8029243315834126e-01 0.0000000000000000e+00  3.1613389804182819e+00 1.2381941434848015e-01 0.0000000000000000e+00  3.1434983322205050e+00 -8.6882912396725284e-02 0.0000000000000000e+00  3.1649469041841227e+00 5.7964934411540647e-01 0.0000000000000000e+00  3.1252916065234921e+00 1.6844978902173191e-01 0.0000000000000000e+00  3.1325333892754190e+00 8.3764767542276963e-01 0.0000000000000000e+00  3.1125718226646550e+00 1.1276222872367083e+00 0.0000000000000000e+00  3.0745557128910543e+00 1.1933505365807167e+00 0.0000000000000000e+00  3.0789175555362016e+00 2.2072258351356098e+00 0.0000000000000000e+00  3.0268054230404089e+00 2.1755505067237588e+00 0.0000000000000000e+00  3.0091809804111369e+00 2.8656021125599684e+00 0.0000000000000000e+00  2.9926520412336650e+00 3.6053969283327589e+00 0.0000000000000000e+00  2.9369298955290661e+00 3.5745877273154227e+00 0.0000000000000000e+00  2.9330178551817139e+00 4.5714486600326261e+00 0.0000000000000000e+00  2.8964634954834780e+00 4.9227724769311534e+00 0.0000000000000000e+00  2.8503537573606019e+00 5.0725927962578776e+00 0.0000000000000000e+00  2.8500199197593439e+00 6.1233105637714855e+00 0.0000000000000000e+00  2.7994822209460857e+00 6.1719277719269456e+00 0.0000000000000000e+00  2.7662838358995021e+00 6.5466169418521449e+00 0.0000000000000000e+00  2.7622923350299424e+00 7.4931263993541615e+00 0.0000000000000000e+00  2.7058285422371071e+00 7.3868475204212860e+00 0.0000000000000000e+00  2.6815202726981204e+00 7.9010895538783519e+00 0.0000000000000000e+00  2.6736244143224193e+00 8.7312812296448712e+00 0.0000000000000000e+00  2.6150041700906019e+00 8.5438588094699117e+00 0.0000000000000000e+00  2.5959157390761414e+00 9.1206329720530945e+00 0.0000000000000000e+00  2.5844689485050596e+00 9.8432973138002637e+00 0.0000000000000000e+00  2.5281503323492380e+00 9.6595453261026645e+00 0.0000000000000000e+00  2.5082825776868511e+00 1.0184683711210706e+01 0.0000000000000000e+00  2.4947974619468307e+00 1.0824875268425981e+01 0.0000000000000000e+00  2.4463840764720413e+00 1.0761958166538019e+01 0.0000000000000000e+00  2.4194867425100117e+00 1.1107397880117249e+01 0.0000000000000000e+00  2.3997799583712438e+00 1.1587295953392704e+01 0.0000000000000000e+00  2.3753333965854582e+00 1.1958380820245409e+01 0.0000000000000000e+00  2.3298570317507061e+00 1.1903347507190043e+01 0.0000000000000000e+00  2.2916737997400243e+00 1.1971352806239967e+01 0.0000000000000000e+00  2.3210920350053201e+00 1.3374635128842113e+01 0.0000000000000000e+00  2.2455472544344439e+00 1.2688227084911563e+01 0.0000000000000000e+00  2.1562919679683610e+00 1.1704533002230782e+01 0.0000000000000000e+00  2.2864111323273337e+00 1.5069450188664339e+01 0.0000000000000000e+00  2.1793019313638990e+00 1.3755147030902327e+01 0.0000000000000000e+00  1.9800215093686868e+00 1.0614175853035416e+01 0.0000000000000000e+00  2.2245377806955839e+00 1.6830965170190627e+01 0.0000000000000000e+00  2.1636014668625636e+00 1.5558759840096005e+01 0.0000000000000000e+00  1.8063483716706783e+00 8.9689158241191613e+00 0.0000000000000000e+00  2.2193611875510859e+00 1.6713379352070373e+01 0.0000000000000000e+00  2.2601441425668067e+00 1.7917690905429872e+01 0.0000000000000000e+00  1.7338217113047794e+00 7.4967782635498939e+00 0.0000000000000000e+00  2.1036790145494768e+00 1.5054013158275554e+01 0.0000000000000000e+00  2.4003193232657973e+00 2.0839231914187806e+01 0.0000000000000000e+00  1.7114930155327548e+00 7.6190642441985830e+00 0.0000000000000000e+00  1.9096917198718439e+00 1.1316426528979687e+01 0.0000000000000000e+00  2.5126582713158951e+00 2.3566703217939800e+01 0.0000000000000000e+00  1.8352725864057546e+00 1.0124626111752638e+01 0.0000000000000000e+00  1.6267554059735805e+00 6.2799366776545096e+00 0.0000000000000000e+00  2.5098588381683813e+00 2.3734892325871311e+01 0.0000000000000000e+00  2.1340927718903653e+00 1.6227631172175549e+01 0.0000000000000000e+00  1.3908371692810364e+00 2.2720815384022730e+00 0.0000000000000000e+00  2.1973841091559092e+00 1.7717979661254454e+01 0.0000000000000000e+00  2.5642037117446463e+00 2.5112837126013385e+01 0.0000000000000000e+00  1.4632653673880052e+00 4.1310843789968574e+00 0.0000000000000000e+00  1.5721380402102392e+00 5.8446948545989024e+00 0.0000000000000000e+00  2.6929711067330966e+00 2.8448601681694051e+01 0.0000000000000000e+00  2.0842776289664364e+00 1.5493368651094958e+01 0.0000000000000000e+00  1.1262406421283144e+00 -8.6086007918587404e-01 0.0000000000000000e+00  1.9869187126153691e+00 1.3713139940315390e+01 0.0000000000000000e+00  2.7930097259632087e+00 3.0989419980959063e+01 0.0000000000000000e+00  1.6277243838928324e+00 7.0929368758018772e+00 0.0000000000000000e+00  1.0706754967307643e+00 -1.1841141066444758e+00 0.0000000000000000e+00  2.2639474476269217e+00 1.9269105075807353e+01 0.0000000000000000e+00  2.7277706441026930e+00 2.9660586099919087e+01 0.0000000000000000e+00  1.3978003929770642e+00 3.3484075508619262e+00 0.0000000000000000e+00  1.0860355802086521e+00 -7.5726878787145269e-01 0.0000000000000000e+00  2.3806119585219068e+00 2.1664307174448716e+01 0.0000000000000000e+00  2.6545372782377243e+00 2.8195264353141656e+01 0.0000000000000000e+00  1.3376522698741053e+00 1.7330785954137602e+00 0.0000000000000000e+00  9.3159928983562501e-01 -2.4776079225701270e-01 0.0000000000000000e+00  1.0170630084299355e+00 2.2353919889125468e-02 0.0000000000000000e+00  9.9415615051102668e-01 1.2367115315861134e-02 0.0000000000000000e+00  1.0030740034923122e+00 -1.4683543756403674e-02 0.0000000000000000e+00  9.9785722842533131e-01 1.2575453936104359e-02 0.0000000000000000e+00  1.0016529927430748e+00 -1.0187680884298658e-02 0.0000000000000000e+00  9.9870395063667550e-01 8.0910886447949897e-03 0.0000000000000000e+00  1.0010053437104911e+00 -6.2888895598205872e-03 0.0000000000000000e+00  9.9923447510557240e-01 4.7947772547228956e-03 0.0000000000000000e+00  1.0005717390069797e+00 -3.5799894756542460e-03 0.0000000000000000e+00  9.9958095640586719e-01 2.6248476502074920e-03 0.0000000000000000e+00  1.0003018234106533e+00 -1.8901599280009298e-03 0.0000000000000000e+00  9.9978611329148814e-01 1.3396893177834272e-03 0.0000000000000000e+00  1.0001493139859523e+00 -9.3512502156472437e-04 0.0000000000000000e+00  9.9989721346427296e-01 6.4378508656666889e-04 0.0000000000000000e+00  1.0000698411965325e+00 -4.3741361104966312e-04 0.0000000000000000e+00  9.9995312167214034e-01 2.9360869556714468e-04 0.0000000000000000e+00  1.0000311057622226e+00 -1.9481702819648694e-04 0.0000000000000000e+00  9.9997958288579136e-01 1.2787553824104508e-04 0.0000000000000000e+00  1.0000132644117232e+00 -8.3076182082367401e-05 0.0000000000000000e+00  9.9999146611054135e-01 5.3448866128459834e-05 0.0000000000000000e+00  1.0000054397476537e+00 -3.4069703806265968e-05 0.0000000000000000e+00  9.9999656307483376e-01 2.1525877664432712e-05 0.0000000000000000e+00  1.0000021532441212e+00 -1.3486005060150316e-05 0.0000000000000000e+00  9.9999866184666997e-01 8.3810105830174419e-06 0.0000000000000000e+00  1.0000008251895955e+00 -5.1682554130715041e-06 0.0000000000000000e+00  9.9999949490673912e-01 3.1634572691057336e-06 0.0000000000000000e+00  1.0000003069620371e+00 -1.9225381287814172e-06 0.0000000000000000e+00  9.9999981472807342e-01 1.1603793064983675e-06 0.0000000000000000e+00  1.0000001110849910e+00 -6.9573796965786079e-07 0.0000000000000000e+00  9.9999993382043240e-01 4.1449020983217214e-07 0.0000000000000000e+00  1.0000000391841981e+00 -2.4541510357895057e-07 0.0000000000000000e+00  9.9999997693749654e-01 1.4444309447922225e-07 0.0000000000000000e+00  1.0000000134956935e+00 -8.4525067395342069e-08 0.0000000000000000e+00  9.9999999214661017e-01 4.9186675004737463e-08 0.0000000000000000e+00  1.0000000045453581e+00 -2.8468094648495919e-08 0.0000000000000000e+00  9.9999999738302536e-01 1.6390414729475732e-08 0.0000000000000000e+00  1.0000000014990622e+00 -9.3887927329890206e-09 0.0000000000000000e+00  9.9999999914553894e-01 5.3515903972147669e-09 0.0000000000000000e+00  1.0000000004847076e+00 -3.0357801948233591e-09 0.0000000000000000e+00  9.9999999972632225e-01 1.7140814551865941e-09 0.0000000000000000e+00  1.0000000001538261e+00 -9.6342871200192400e-10 0.0000000000000000e+00  9.9999999991392119e-01 5.3912643609704583e-10 0.0000000000000000e+00  1.0000000000479623e+00 -3.0039843038506726e-10 0.0000000000000000e+00  9.9999999997338751e-01 1.6667770115179291e-10 0.0000000000000000e+00  1.0000000000147067e+00 -9.2101580946776445e-11 0.0000000000000000e+00  9.9999999999190625e-01 5.0695800465442791e-11 0.0000000000000000e+00  1.0000000000044382e+00 -2.7796398139735377e-11 0.0000000000000000e+00  9.9999999999757638e-01 1.5180626835432846e-11 0.0000000000000000e+00  1.0000000000013187e+00 -8.2630373845537135e-12 0.0000000000000000e+00  9.9999999999928524e-01 4.4843082636885266e-12 0.0000000000000000e+00  1.0000000000003868e+00 -2.4239120878398681e-12 0.0000000000000000e+00  9.9999999999979194e-01 1.3055794398419055e-12 0.0000000000000000e+00  1.0000000000001121e+00 -7.0031969790524034e-13 0.0000000000000000e+00  9.9999999999993983e-01 3.7656051617857084e-13 0.0000000000000000e+00  1.0000000000000320e+00 -1.9627080353345121e-13 0.0000000000000000e+00  9.9999999999998290e-01 1.0672189122036883e-13 0.0000000000000000e+00  1.0000000000000087e+00 -5.3325788310087034e-14 0.0000000000000000e+00  9.9999999999999534e-01 2.9780920799933482e-14 0.0000000000000000e+00  1.0000000000000024e+00 -1.3885369097883614e-14 0.0000000000000000e+00  9.9999999999999889e-01 5.4065117160697215e-15 0.0000000000000000e+00  1.0000000000000004e+00 -3.7549383435186049e-15 0.0000000000000000e+00  9.9999999999999922e-01 1.8103977467388672e-15 0.0000000000000000e+00  1.0000000000000007e+00 -3.2908922292379159e-15 0.0000000000000000e+00  1.0000000000000004e+00 5.9441391711072078e-15 0.0000000000000000e+00  1.0000000000000002e+00 1.8759506341264935e-15 0.0000000000000000e+00  1.0000000000000000e+00 0.0000000000000000e+00 0.0000000000000000e+00  </DataArray> 
</PointData> 
</Piece>
</UnstructuredGrid>
</VTKFile>