<?xml version="1.0"?>
<VTKFile type="UnstructuredGrid"  version="0.1"  >
<UnstructuredGrid>
<Piece  NumberOfPoints="201" NumberOfCells="200">
<Points>
<DataArray  type="Float64"  NumberOfComponents="3"  format="ascii">-5 0 0  -4.95 0 0  -4.9 0 0  -4.85 0 0  -4.8 0 0  -4.75 0 0  -4.7 0 0  -4.65 0 0  -4.6 0 0  -4.55 0 0  -4.5 0 0  -4.45 0 0  -4.4 0 0  -4.35 0 0  -4.3 0 0  -4.25 0 0  -4.2 0 0  -4.15 0 0  -4.1 0 0  -4.05 0 0  -4 0 0  -3.95 0 0  -3.9 0 0  -3.85 0 0  -3.8 0 0  -3.75 0 0  -3.7 0 0  -3.65 0 0  -3.6 0 0  -3.55 0 0  -3.5 0 0  -3.45 0 0  -3.4 0 0  -3.35 0 0  -3.3 0 0  -3.25 0 0  -3.2 0 0  -3.15 0 0  -3.1 0 0  -3.05 0 0  -3 0 0  -2.95 0 0  -2.9 0 0  -2.85 0 0  -2.8 0 0  -2.75 0 0  -2.7 0 0  -2.65 0 0  -2.6 0 0  -2.55 0 0  -2.5 0 0  -2.45 0 0  -2.4 0 0  -2.35 0 0  -2.3 0 0  -2.25 0 0  -2.2 0 0  -2.15 0 0  -2.1 0 0  -2.05 0 0  -2 0 0  -1.95 0 0  -1.9 0 0  -1.85 0 0  -1.8 0 0  -1.75 0 0  -1.7 0 0  -1.65 0 0  -1.6 0 0  -1.55 0 0  -1.5 0 0  -1.45 0 0  -1.4 0 0  -1.35 0 0  -1.3 0 0  -1.25 0 0  -1.2 0 0  -1.15 0 0  -1.1 0 0  -1.05 0 0  -1 0 0  -0.9500000000000002 0 0  -0.9000000000000004 0 0  -0.8499999999999996 0 0  -0.7999999999999998 0 0  -0.75 0 0  -0.7000000000000002 0 0  -0.6500000000000004 0 0  -0.5999999999999996 0 0  -0.5499999999999998 0 0  -0.5 0 0  -0.4500000000000002 0 0  -0.4000000000000004 0 0  -0.3499999999999996 0 0  -0.2999999999999998 0 0  -0.25 0 0  -0.2000000000000002 0 0  -0.1500000000000004 0 0  -0.09999999999999964 0 0  -0.04999999999999982 0 0  0 0 0  0.04999999999999982 0 0  0.09999999999999964 0 0  0.1500000000000004 0 0  0.2000000000000002 0 0  0.25 0 0  0.2999999999999998 0 0  0.3499999999999996 0 0  0.4000000000000004 0 0  0.4500000000000002 0 0  0.5 0 0  0.5499999999999998 0 0  0.5999999999999996 0 0  0.6500000000000004 0 0  0.7000000000000002 0 0  0.75 0 0  0.7999999999999998 0 0  0.8499999999999996 0 0  0.9000000000000004 0 0  0.9500000000000002 0 0  1 0 0  1.05 0 0  1.1 0 0  1.15 0 0  1.2 0 0  1.25 0 0  1.3 0 0  1.35 0 0  1.4 0 0  1.45 0 0  1.5 0 0  1.55 0 0  1.6 0 0  1.65 0 0  1.7 0 0  1.75 0 0  1.8 0 0  1.85 0 0  1.9 0 0  1.95 0 0  2 0 0  2.05 0 0  2.1 0 0  2.15 0 0  2.2 0 0  2.25 0 0  2.3 0 0  2.35 0 0  2.4 0 0  2.45 0 0  2.5 0 0  2.55 0 0  2.6 0 0  2.65 0 0  2.7 0 0  2.75 0 0  2.8 0 0  2.85 0 0  2.9 0 0  2.95 0 0  3 0 0  3.050000000000001 0 0  3.1 0 0  3.15 0 0  3.199999999999999 0 0  3.25 0 0  3.300000000000001 0 0  3.35 0 0  3.4 0 0  3.449999999999999 0 0  3.5 0 0  3.550000000000001 0 0  3.6 0 0  3.65 0 0  3.699999999999999 0 0  3.75 0 0  3.800000000000001 0 0  3.85 0 0  3.9 0 0  3.949999999999999 0 0  4 0 0  4.050000000000001 0 0  4.1 0 0  4.15 0 0  4.199999999999999 0 0  4.25 0 0  4.300000000000001 0 0  4.35 0 0  4.4 0 0  4.449999999999999 0 0  4.5 0 0  4.550000000000001 0 0  4.6 0 0  4.65 0 0  4.699999999999999 0 0  4.75 0 0  4.800000000000001 0 0  4.85 0 0  4.9 0 0  4.949999999999999 0 0  5 0 0  </DataArray>
</Points>
<Cells>
<DataArray  type="UInt32"  Name="connectivity"  format="ascii">0 1  1 2  2 3  3 4  4 5  5 6  6 7  7 8  8 9  9 10  10 11  11 12  12 13  13 14  14 15  15 16  16 17  17 18  18 19  19 20  20 21  21 22  22 23  23 24  24 25  25 26  26 27  27 28  28 29  29 30  30 31  31 32  32 33  33 34  34 35  35 36  36 37  37 38  38 39  39 40  40 41  41 42  42 43  43 44  44 45  45 46  46 47  47 48  48 49  49 50  50 51  51 52  52 53  53 54  54 55  55 56  56 57  57 58  58 59  59 60  60 61  61 62  62 63  63 64  64 65  65 66  66 67  67 68  68 69  69 70  70 71  71 72  72 73  73 74  74 75  75 76  76 77  77 78  78 79  79 80  80 81  81 82  82 83  83 84  84 85  85 86  86 87  87 88  88 89  89 90  90 91  91 92  92 93  93 94  94 95  95 96  96 97  97 98  98 99  99 100  100 101  101 102  102 103  103 104  104 105  105 106  106 107  107 108  108 109  109 110  110 111  111 112  112 113  113 114  114 115  115 116  116 117  117 118  118 119  119 120  120 121  121 122  122 123  123 124  124 125  125 126  126 127  127 128  128 129  129 130  130 131  131 132  132 133  133 134  134 135  135 136  136 137  137 138  138 139  139 140  140 141  141 142  142 143  143 144  144 145  145 146  146 147  147 148  148 149  149 150  150 151  151 152  152 153  153 154  154 155  155 156  156 157  157 158  158 159  159 160  160 161  161 162  162 163  163 164  164 165  165 166  166 167  167 168  168 169  169 170  170 171  171 172  172 173  173 174  174 175  175 176  176 177  177 178  178 179  179 180  180 181  181 182  182 183  183 184  184 185  185 186  186 187  187 188  188 189  189 190  190 191  191 192  192 193  193 194  194 195  195 196  196 197  197 198  198 199  199 200  </DataArray>
<DataArray  type="UInt32"  Name="offsets"  format="ascii">2 4 6 8 10 12 14 16 18 20 22 24 26 28 30 32 34 36 38 40 42 44 46 48 50 52 54 56 58 60 62 64 66 68 70 72 74 76 78 80 82 84 86 88 90 92 94 96 98 100 102 104 106 108 110 112 114 116 118 120 122 124 126 128 130 132 134 136 138 140 142 144 146 148 150 152 154 156 158 160 162 164 166 168 170 172 174 176 178 180 182 184 186 188 190 192 194 196 198 200 202 204 206 208 210 212 214 216 218 220 222 224 226 228 230 232 234 236 238 240 242 244 246 248 250 252 254 256 258 260 262 264 266 268 270 272 274 276 278 280 282 284 286 288 290 292 294 296 298 300 302 304 306 308 310 312 314 316 318 320 322 324 326 328 330 332 334 336 338 340 342 344 346 348 350 352 354 356 358 360 362 364 366 368 370 372 374 376 378 380 382 384 386 388 390 392 394 396 398 400 </DataArray>
<DataArray  type="UInt8"  Name="types"  format="ascii">3 3 3 3 3 3 3 3 3 3 3 3 3 3 3 3 3 3 3 3 3 3 3 3 3 3 3 3 3 3 3 3 3 3 3 3 3 3 3 3 3 3 3 3 3 3 3 3 3 3 3 3 3 3 3 3 3 3 3 3 3 3 3 3 3 3 3 3 3 3 3 3 3 3 3 3 3 3 3 3 3 3 3 3 3 3 3 3 3 3 3 3 3 3 3 3 3 3 3 3 3 3 3 3 3 3 3 3 3 3 3 3 3 3 3 3 3 3 3 3 3 3 3 3 3 3 3 3 3 3 3 3 3 3 3 3 3 3 3 3 3 3 3 3 3 3 3 3 3 3 3 3 3 3 3 3 3 3 3 3 3 3 3 3 3 3 3 3 3 3 3 3 3 3 3 3 3 3 3 3 3 3 3 3 3 3 3 3 3 3 3 3 3 3 3 3 3 3 3 3 </DataArray>
</Cells>
<PointData  Vectors="(s, w)"> 
<DataArray  type="Float64"  Name="(s, w)"  NumberOfComponents="3" format="ascii">2.1180442586755102e+00 0.0000000000000000e+00 0.0000000000000000e+00  2.1243266749772229e+00 1.3506413051367575e-01 0.0000000000000000e+00  2.1180139603757913e+00 2.7221136010254909e-01 0.0000000000000000e+00  2.1242840713319016e+00 4.0516900025138586e-01 0.0000000000000000e+00  2.1179228948582831e+00 5.4440509269318449e-01 0.0000000000000000e+00  2.1241990748727657e+00 6.7520341135022477e-01 0.0000000000000000e+00  2.1177705511382507e+00 8.1656394277359523e-01 0.0000000000000000e+00  2.1240721047875848e+00 9.4511948733665163e-01 0.0000000000000000e+00  2.1175560823844810e+00 1.0886713080697039e+00 0.0000000000000000e+00  2.1239037797648481e+00 1.2148681606713656e+00 0.0000000000000000e+00  2.1172783199642655e+00 1.3607113208089106e+00 0.0000000000000000e+00  2.1236948946752578e+00 1.4843990503166662e+00 0.0000000000000000e+00  2.1169358072312123e+00 1.6326685988254857e+00 0.0000000000000000e+00  2.1234463701270485e+00 1.7536607462231899e+00 0.0000000000000000e+00  2.1165268679951024e+00 1.9045274993442773e+00 0.0000000000000000e+00  2.1231591574252469e+00 2.0226016831697176e+00 0.0000000000000000e+00  2.1160497293112717e+00 2.1762706740951616e+00 0.0000000000000000e+00  2.1228340771124787e+00 2.2911718153293754e+00 0.0000000000000000e+00  2.1155027218850053e+00 2.4478767034338742e+00 0.0000000000000000e+00  2.1224715667612504e+00 2.5593253080489093e+00 0.0000000000000000e+00  2.1148845821803453e+00 2.7193166014430199e+00 0.0000000000000000e+00  2.1220713152784048e+00 2.8270244189847826e+00 0.0000000000000000e+00  2.1141948755378639e+00 2.9905490626736788e+00 0.0000000000000000e+00  2.1216317697652527e+00 3.0942446148823057e+00 0.0000000000000000e+00  2.1134345458128818e+00 3.2615144978021275e+00 0.0000000000000000e+00  2.1211495205143631e+00 3.3609807300507444e+00 0.0000000000000000e+00  2.1126065707284645e+00 3.5321282099720124e+00 0.0000000000000000e+00  2.1206186031335825e+00 3.6272535957522112e+00 0.0000000000000000e+00  2.1117166609608655e+00 3.8022735081328500e+00 0.0000000000000000e+00  2.1200298051434054e+00 3.8931160625292329e+00 0.0000000000000000e+00  2.1107738857617231e+00 4.0717961124730273e+00 0.0000000000000000e+00  2.1193701244782384e+00 4.1586567570292052e+00 0.0000000000000000e+00  2.1097910451469151e+00 4.3405017933135932e+00 0.0000000000000000e+00  2.1186225891136958e+00 4.4239993901158874e+00 0.0000000000000000e+00  2.1087845528404388e+00 4.6081596325086549e+00 0.0000000000000000e+00  2.1177666918205089e+00 4.6892951736972970e+00 0.0000000000000000e+00  2.1077735687746713e+00 4.8745133590153271e+00 0.0000000000000000e+00  2.1167796945663659e+00 4.9547061818376994e+00 0.0000000000000000e+00  2.1067781554754750e+00 5.1393025934890577e+00 0.0000000000000000e+00  2.1156389816417525e+00 5.2203785811969583e+00 0.0000000000000000e+00  2.1058163594946242e+00 5.4022942798599800e+00 0.0000000000000000e+00  2.1143254625221846e+00 5.4864067224836370e+00 0.0000000000000000e+00  2.1049003546821239e+00 5.6633219933564787e+00 0.0000000000000000e+00  2.1128277383887379e+00 5.7527920399506769e+00 0.0000000000000000e+00  2.1040321158417319e+00 5.9223274414586617e+00 0.0000000000000000e+00  2.1111463821591530e+00 6.0194040661951869e+00 0.0000000000000000e+00  2.1031994597749044e+00 6.1793950471028696e+00 0.0000000000000000e+00  2.1092973257997509e+00 6.2859536915354859e+00 0.0000000000000000e+00  2.1023735830206931e+00 6.4347682553016705e+00 0.0000000000000000e+00  2.1073131383317398e+00 6.5519897784358774e+00 0.0000000000000000e+00  2.1015092897643117e+00 6.6888366489231306e+00 0.0000000000000000e+00  2.1052410768685537e+00 6.8169280516495920e+00 0.0000000000000000e+00  2.1005487922012551e+00 6.9420873563194432e+00 0.0000000000000000e+00  2.1031373298341047e+00 7.0801150335508831e+00 0.0000000000000000e+00  2.0994292084381243e+00 7.1950228107049359e+00 0.0000000000000000e+00  2.1010578533073963e+00 7.3409201205783994e+00 0.0000000000000000e+00  2.0980927664306082e+00 7.4480581402877908e+00 0.0000000000000000e+00  2.0990474335614651e+00 7.5988379076595969e+00 0.0000000000000000e+00  2.0964975408670652e+00 7.7014218154978922e+00 0.0000000000000000e+00  2.0971296769435988e+00 7.8535744960855647e+00 0.0000000000000000e+00  2.0946257733482767e+00 7.9550879639283849e+00 0.0000000000000000e+00  2.0953010003651893e+00 8.1050903677795354e+00 0.0000000000000000e+00  2.0924869467891396e+00 8.2087640350985058e+00 0.0000000000000000e+00  2.0935309583187234e+00 8.3535815877281543e+00 0.0000000000000000e+00  2.0901140578915887e+00 8.4619424906292355e+00 0.0000000000000000e+00  2.0917693909400494e+00 8.5993997043732335e+00 0.0000000000000000e+00  2.0875537188974147e+00 8.7140039865793142e+00 0.0000000000000000e+00  2.0899584862809140e+00 8.8429325833974630e+00 0.0000000000000000e+00  2.0848530203315447e+00 8.9643404474825754e+00 0.0000000000000000e+00  2.0880459347767437e+00 9.0844838372340160e+00 0.0000000000000000e+00  2.0820474121842443e+00 9.2124586825672523e+00 0.0000000000000000e+00  2.0859949059581813e+00 9.3241890655673867e+00 0.0000000000000000e+00  2.0791534564488705e+00 9.4580333813106439e+00 0.0000000000000000e+00  2.0837879871545901e+00 9.5619909497497204e+00 0.0000000000000000e+00  2.0761683072206281e+00 9.7008988388789668e+00 0.0000000000000000e+00  2.0814247416130960e+00 9.7976710260498390e+00 0.0000000000000000e+00  2.0730749511200002e+00 9.9409934882378526e+00 0.0000000000000000e+00  2.0789143233755918e+00 1.0030920619851079e+01 0.0000000000000000e+00  2.0698501349731018e+00 1.0178287013836492e+01 0.0000000000000000e+00  2.0762659716836032e+00 1.0261423527683970e+01 0.0000000000000000e+00  2.0664746971708183e+00 1.0412694448745373e+01 0.0000000000000000e+00  2.0734843705137789e+00 1.0488893250911680e+01 0.0000000000000000e+00  2.0629511833683685e+00 1.0643941703097637e+01 0.0000000000000000e+00  2.0705653439566767e+00 1.0713105132773419e+01 0.0000000000000000e+00  2.0592830258994650e+00 1.0871739895797292e+01 0.0000000000000000e+00  2.0673948111639846e+00 1.0934662896658386e+01 0.0000000000000000e+00  2.0554424465634544e+00 1.1096019605563674e+01 0.0000000000000000e+00  2.0640752245937608e+00 1.1152474726333523e+01 0.0000000000000000e+00  2.0522109110383515e+00 1.1310720216824535e+01 0.0000000000000000e+00  2.0605891786608543e+00 1.1366432210838337e+01 0.0000000000000000e+00  2.0476023919823190e+00 1.1530248978123749e+01 0.0000000000000000e+00  2.0541525224002841e+00 1.1596235658506327e+01 0.0000000000000000e+00  2.0485281361511114e+00 1.1704432594983842e+01 0.0000000000000000e+00  2.0557337516481509e+00 1.1763075889912953e+01 0.0000000000000000e+00  2.0402918080689321e+00 1.1938498487894250e+01 0.0000000000000000e+00  2.0317901561829967e+00 1.2101433300777998e+01 0.0000000000000000e+00  2.0522894263204958e+00 1.2025413948728803e+01 0.0000000000000000e+00  2.0509640898602703e+00 1.2136374364252815e+01 0.0000000000000000e+00  1.9922230152050668e+00 1.2591055072888652e+01 0.0000000000000000e+00  2.0546029536518176e+00 1.2271623496099284e+01 0.0000000000000000e+00  2.0166863715364327e+00 1.2589532979965600e+01 0.0000000000000000e+00  2.0300303544289222e+00 1.2588484909143409e+01 0.0000000000000000e+00  2.0233015330876820e+00 1.2697969469677886e+01 0.0000000000000000e+00  2.0218554814979175e+00 1.2788834496224899e+01 0.0000000000000000e+00  2.0181821781270024e+00 1.2874975381183932e+01 0.0000000000000000e+00  2.0159919942415092e+00 1.2966642715724971e+01 0.0000000000000000e+00  2.0122050874536446e+00 1.3049713699407327e+01 0.0000000000000000e+00  2.0101154726236308e+00 1.3136733053803685e+01 0.0000000000000000e+00  2.0060876425458587e+00 1.3217395177764876e+01 0.0000000000000000e+00  2.0037198962920644e+00 1.3301956992956077e+01 0.0000000000000000e+00  1.9999820681847651e+00 1.3376916533597724e+01 0.0000000000000000e+00  1.9969356743717814e+00 1.3461258251519352e+01 0.0000000000000000e+00  1.9934747012492731e+00 1.3530535457563222e+01 0.0000000000000000e+00  1.9901839163815889e+00 1.3612016607589956e+01 0.0000000000000000e+00  1.9864175480416699e+00 1.3678885052680595e+01 0.0000000000000000e+00  1.9832120578219949e+00 1.3755570435803806e+01 0.0000000000000000e+00  1.9792252702354027e+00 1.3819497813901554e+01 0.0000000000000000e+00  1.9757878772009985e+00 1.3893085856933457e+01 0.0000000000000000e+00  1.9717919936791830e+00 1.3952920679831767e+01 0.0000000000000000e+00  1.9681723180610362e+00 1.4023066790941547e+01 0.0000000000000000e+00  1.9639986858825988e+00 1.4079794010649676e+01 0.0000000000000000e+00  1.9602754332930166e+00 1.4145970391197036e+01 0.0000000000000000e+00  1.9559946624346145e+00 1.4199410258005463e+01 0.0000000000000000e+00  1.9520856492645782e+00 1.4261876473871181e+01 0.0000000000000000e+00  1.9477108516939663e+00 1.4312257719208272e+01 0.0000000000000000e+00  1.9436624765318917e+00 1.4370575209972381e+01 0.0000000000000000e+00  1.9391958638317239e+00 1.4418265121038038e+01 0.0000000000000000e+00  1.9349856026643997e+00 1.4472358956677949e+01 0.0000000000000000e+00  1.9304610873858636e+00 1.4517529776185702e+01 0.0000000000000000e+00  1.9261181664464320e+00 1.4567294964304088e+01 0.0000000000000000e+00  1.9215334053251758e+00 1.4609969395239542e+01 0.0000000000000000e+00  1.9171090552378451e+00 1.4655813661849059e+01 0.0000000000000000e+00  1.9124545436154481e+00 1.4695196313451953e+01 0.0000000000000000e+00  1.9081174051792840e+00 1.4738312700088528e+01 0.0000000000000000e+00  1.9033518886231011e+00 1.4772071848717005e+01 0.0000000000000000e+00  1.8994091276341900e+00 1.4815388329463874e+01 0.0000000000000000e+00  1.8948785627579179e+00 1.4836847100479066e+01 0.0000000000000000e+00  1.8926276381104070e+00 1.4882891312412758e+01 0.0000000000000000e+00  1.8891871386727979e+00 1.4879663130668293e+01 0.0000000000000000e+00  1.8959207136675136e+00 1.4911905017027831e+01 0.0000000000000000e+00  1.9052491321634262e+00 1.4823257711408502e+01 0.0000000000000000e+00  1.9218652329751620e+00 1.4851016228568094e+01 0.0000000000000000e+00  1.9236084681145931e+00 1.4740613413205375e+01 0.0000000000000000e+00  1.9335238600610061e+00 1.4852104866682122e+01 0.0000000000000000e+00  1.9265359520779706e+00 1.4714342727268578e+01 0.0000000000000000e+00  1.9375465508797700e+00 1.4884303268631516e+01 0.0000000000000000e+00  1.9269364148214712e+00 1.4702986432438415e+01 0.0000000000000000e+00  1.9398407536271600e+00 1.4901824913643418e+01 0.0000000000000000e+00  1.9282923531676888e+00 1.4722281653381794e+01 0.0000000000000000e+00  1.9392652943721156e+00 1.4866503004737380e+01 0.0000000000000000e+00  1.9330678581249243e+00 1.4820882193815160e+01 0.0000000000000000e+00  1.9335523686179068e+00 1.4710695889426141e+01 0.0000000000000000e+00  1.9431170186105995e+00 1.5087572788967082e+01 0.0000000000000000e+00  1.9247656869150900e+00 1.4304617161594528e+01 0.0000000000000000e+00  1.9454492785421691e+00 1.5712792551335173e+01 0.0000000000000000e+00  1.9587676592617682e+00 1.3279953204527981e+01 0.0000000000000000e+00  1.8168811308272905e+00 1.7353003152891453e+01 0.0000000000000000e+00  2.7133030854873206e+00 6.2284636254205754e+00 0.0000000000000000e+00  3.1609763638094299e+00 -2.3145575945213910e+00 0.0000000000000000e+00  2.9258101123914151e+00 2.4533035096977986e+00 0.0000000000000000e+00  3.1430623964753313e+00 -1.7065101343709219e+00 0.0000000000000000e+00  2.9918066529342839e+00 1.1978793532515426e+00 0.0000000000000000e+00  3.0871075036485118e+00 -6.4340825831286563e-01 0.0000000000000000e+00  3.0396484142799616e+00 2.8216320936124262e-01 0.0000000000000000e+00  3.0546157261225146e+00 -2.0660954586276252e-02 0.0000000000000000e+00  3.0602079599982788e+00 -1.0699702298170570e-01 0.0000000000000000e+00  3.0448711581433665e+00 1.7029929317791348e-01 0.0000000000000000e+00  3.0632449153362877e+00 -1.6151050812163004e-01 0.0000000000000000e+00  3.0463996656303158e+00 1.4387209820458866e-01 0.0000000000000000e+00  3.0598900414111321e+00 -9.5579240293701823e-02 0.0000000000000000e+00  3.0504229761143944e+00 6.8303976651894929e-02 0.0000000000000000e+00  3.0563757540815355e+00 -2.7556337053564025e-02 0.0000000000000000e+00  3.0532232490896791e+00 1.5520339590355618e-02 0.0000000000000000e+00  3.0545403901580803e+00 7.9799167158923177e-03 0.0000000000000000e+00  3.0543311743590715e+00 -5.1716030566578116e-03 0.0000000000000000e+00  3.0540833453394005e+00 1.6904826941125436e-02 0.0000000000000000e+00  3.0544281482644857e+00 -6.7733369593471968e-03 0.0000000000000000e+00  3.0542448729239613e+00 1.3772438908916570e-02 0.0000000000000000e+00  3.0541951307519248e+00 -2.2600041670114805e-03 0.0000000000000000e+00  3.0545064222702378e+00 8.5676821910226283e-03 0.0000000000000000e+00  3.0539837551319531e+00 1.7031058691415668e-03 0.0000000000000000e+00  3.0546700918318512e+00 5.1195911254696474e-03 0.0000000000000000e+00  3.0538816210167470e+00 3.4701368910327220e-03 0.0000000000000000e+00  3.0547256716115316e+00 3.6473075268571935e-03 0.0000000000000000e+00  3.0538594348301955e+00 3.6243651994015669e-03 0.0000000000000000e+00  3.0547219026674286e+00 3.2407645308427518e-03 0.0000000000000000e+00  3.0538693684971507e+00 3.1010603195807916e-03 0.0000000000000000e+00  3.0547009991188854e+00 3.1101794633880599e-03 0.0000000000000000e+00  3.0538818573705013e+00 2.4815593500717714e-03 0.0000000000000000e+00  3.0546831536761800e+00 2.8840139032911319e-03 0.0000000000000000e+00  3.0538871822496492e+00 1.9658162212193957e-03 0.0000000000000000e+00  3.0546727655842791e+00 2.4917984432367151e-03 0.0000000000000000e+00  3.0538862008468342e+00 1.5498074091728714e-03 0.0000000000000000e+00  3.0546677887456331e+00 1.9848566019096728e-03 0.0000000000000000e+00  3.0538825065360355e+00 1.1751925707090879e-03 0.0000000000000000e+00  3.0546654628734404e+00 1.4265636530198930e-03 0.0000000000000000e+00  3.0538788312470388e+00 7.9879040108488987e-04 0.0000000000000000e+00  3.0546642305044345e+00 8.5514298029581981e-04 0.0000000000000000e+00  3.0538764241757219e+00 4.0563379073062488e-04 0.0000000000000000e+00  3.0546636232633140e+00 2.8453595322095875e-04 0.0000000000000000e+00  3.0538756121932922e+00 0.0000000000000000e+00 0.0000000000000000e+00  </DataArray> 
</PointData> 
</Piece>
</UnstructuredGrid>
</VTKFile>