<?xml version="1.0"?>
<VTKFile type="UnstructuredGrid"  version="0.1"  >
<UnstructuredGrid>
<Piece  NumberOfPoints="201" NumberOfCells="200">
<Points>
<DataArray  type="Float64"  NumberOfComponents="3"  format="ascii">-5 0 0  -4.95 0 0  -4.9 0 0  -4.85 0 0  -4.8 0 0  -4.75 0 0  -4.7 0 0  -4.65 0 0  -4.6 0 0  -4.55 0 0  -4.5 0 0  -4.45 0 0  -4.4 0 0  -4.35 0 0  -4.3 0 0  -4.25 0 0  -4.2 0 0  -4.15 0 0  -4.1 0 0  -4.05 0 0  -4 0 0  -3.95 0 0  -3.9 0 0  -3.85 0 0  -3.8 0 0  -3.75 0 0  -3.7 0 0  -3.65 0 0  -3.6 0 0  -3.55 0 0  -3.5 0 0  -3.45 0 0  -3.4 0 0  -3.35 0 0  -3.3 0 0  -3.25 0 0  -3.2 0 0  -3.15 0 0  -3.1 0 0  -3.05 0 0  -3 0 0  -2.95 0 0  -2.9 0 0  -2.85 0 0  -2.8 0 0  -2.75 0 0  -2.7 0 0  -2.65 0 0  -2.6 0 0  -2.55 0 0  -2.5 0 0  -2.45 0 0  -2.4 0 0  -2.35 0 0  -2.3 0 0  -2.25 0 0  -2.2 0 0  -2.15 0 0  -2.1 0 0  -2.05 0 0  -2 0 0  -1.95 0 0  -1.9 0 0  -1.85 0 0  -1.8 0 0  -1.75 0 0  -1.7 0 0  -1.65 0 0  -1.6 0 0  -1.55 0 0  -1.5 0 0  -1.45 0 0  -1.4 0 0  -1.35 0 0  -1.3 0 0  -1.25 0 0  -1.2 0 0  -1.15 0 0  -1.1 0 0  -1.05 0 0  -1 0 0  -0.9500000000000002 0 0  -0.9000000000000004 0 0  -0.8499999999999996 0 0  -0.7999999999999998 0 0  -0.75 0 0  -0.7000000000000002 0 0  -0.6500000000000004 0 0  -0.5999999999999996 0 0  -0.5499999999999998 0 0  -0.5 0 0  -0.4500000000000002 0 0  -0.4000000000000004 0 0  -0.3499999999999996 0 0  -0.2999999999999998 0 0  -0.25 0 0  -0.2000000000000002 0 0  -0.1500000000000004 0 0  -0.09999999999999964 0 0  -0.04999999999999982 0 0  0 0 0  0.04999999999999982 0 0  0.09999999999999964 0 0  0.1500000000000004 0 0  0.2000000000000002 0 0  0.25 0 0  0.2999999999999998 0 0  0.3499999999999996 0 0  0.4000000000000004 0 0  0.4500000000000002 0 0  0.5 0 0  0.5499999999999998 0 0  0.5999999999999996 0 0  0.6500000000000004 0 0  0.7000000000000002 0 0  0.75 0 0  0.7999999999999998 0 0  0.8499999999999996 0 0  0.9000000000000004 0 0  0.9500000000000002 0 0  1 0 0  1.05 0 0  1.1 0 0  1.15 0 0  1.2 0 0  1.25 0 0  1.3 0 0  1.35 0 0  1.4 0 0  1.45 0 0  1.5 0 0  1.55 0 0  1.6 0 0  1.65 0 0  1.7 0 0  1.75 0 0  1.8 0 0  1.85 0 0  1.9 0 0  1.95 0 0  2 0 0  2.05 0 0  2.1 0 0  2.15 0 0  2.2 0 0  2.25 0 0  2.3 0 0  2.35 0 0  2.4 0 0  2.45 0 0  2.5 0 0  2.55 0 0  2.6 0 0  2.65 0 0  2.7 0 0  2.75 0 0  2.8 0 0  2.85 0 0  2.9 0 0  2.95 0 0  3 0 0  3.050000000000001 0 0  3.1 0 0  3.15 0 0  3.199999999999999 0 0  3.25 0 0  3.300000000000001 0 0  3.35 0 0  3.4 0 0  3.449999999999999 0 0  3.5 0 0  3.550000000000001 0 0  3.6 0 0  3.65 0 0  3.699999999999999 0 0  3.75 0 0  3.800000000000001 0 0  3.85 0 0  3.9 0 0  3.949999999999999 0 0  4 0 0  4.050000000000001 0 0  4.1 0 0  4.15 0 0  4.199999999999999 0 0  4.25 0 0  4.300000000000001 0 0  4.35 0 0  4.4 0 0  4.449999999999999 0 0  4.5 0 0  4.550000000000001 0 0  4.6 0 0  4.65 0 0  4.699999999999999 0 0  4.75 0 0  4.800000000000001 0 0  4.85 0 0  4.9 0 0  4.949999999999999 0 0  5 0 0  </DataArray>
</Points>
<Cells>
<DataArray  type="UInt32"  Name="connectivity"  format="ascii">0 1  1 2  2 3  3 4  4 5  5 6  6 7  7 8  8 9  9 10  10 11  11 12  12 13  13 14  14 15  15 16  16 17  17 18  18 19  19 20  20 21  21 22  22 23  23 24  24 25  25 26  26 27  27 28  28 29  29 30  30 31  31 32  32 33  33 34  34 35  35 36  36 37  37 38  38 39  39 40  40 41  41 42  42 43  43 44  44 45  45 46  46 47  47 48  48 49  49 50  50 51  51 52  52 53  53 54  54 55  55 56  56 57  57 58  58 59  59 60  60 61  61 62  62 63  63 64  64 65  65 66  66 67  67 68  68 69  69 70  70 71  71 72  72 73  73 74  74 75  75 76  76 77  77 78  78 79  79 80  80 81  81 82  82 83  83 84  84 85  85 86  86 87  87 88  88 89  89 90  90 91  91 92  92 93  93 94  94 95  95 96  96 97  97 98  98 99  99 100  100 101  101 102  102 103  103 104  104 105  105 106  106 107  107 108  108 109  109 110  110 111  111 112  112 113  113 114  114 115  115 116  116 117  117 118  118 119  119 120  120 121  121 122  122 123  123 124  124 125  125 126  126 127  127 128  128 129  129 130  130 131  131 132  132 133  133 134  134 135  135 136  136 137  137 138  138 139  139 140  140 141  141 142  142 143  143 144  144 145  145 146  146 147  147 148  148 149  149 150  150 151  151 152  152 153  153 154  154 155  155 156  156 157  157 158  158 159  159 160  160 161  161 162  162 163  163 164  164 165  165 166  166 167  167 168  168 169  169 170  170 171  171 172  172 173  173 174  174 175  175 176  176 177  177 178  178 179  179 180  180 181  181 182  182 183  183 184  184 185  185 186  186 187  187 188  188 189  189 190  190 191  191 192  192 193  193 194  194 195  195 196  196 197  197 198  198 199  199 200  </DataArray>
<DataArray  type="UInt32"  Name="offsets"  format="ascii">2 4 6 8 10 12 14 16 18 20 22 24 26 28 30 32 34 36 38 40 42 44 46 48 50 52 54 56 58 60 62 64 66 68 70 72 74 76 78 80 82 84 86 88 90 92 94 96 98 100 102 104 106 108 110 112 114 116 118 120 122 124 126 128 130 132 134 136 138 140 142 144 146 148 150 152 154 156 158 160 162 164 166 168 170 172 174 176 178 180 182 184 186 188 190 192 194 196 198 200 202 204 206 208 210 212 214 216 218 220 222 224 226 228 230 232 234 236 238 240 242 244 246 248 250 252 254 256 258 260 262 264 266 268 270 272 274 276 278 280 282 284 286 288 290 292 294 296 298 300 302 304 306 308 310 312 314 316 318 320 322 324 326 328 330 332 334 336 338 340 342 344 346 348 350 352 354 356 358 360 362 364 366 368 370 372 374 376 378 380 382 384 386 388 390 392 394 396 398 400 </DataArray>
<DataArray  type="UInt8"  Name="types"  format="ascii">3 3 3 3 3 3 3 3 3 3 3 3 3 3 3 3 3 3 3 3 3 3 3 3 3 3 3 3 3 3 3 3 3 3 3 3 3 3 3 3 3 3 3 3 3 3 3 3 3 3 3 3 3 3 3 3 3 3 3 3 3 3 3 3 3 3 3 3 3 3 3 3 3 3 3 3 3 3 3 3 3 3 3 3 3 3 3 3 3 3 3 3 3 3 3 3 3 3 3 3 3 3 3 3 3 3 3 3 3 3 3 3 3 3 3 3 3 3 3 3 3 3 3 3 3 3 3 3 3 3 3 3 3 3 3 3 3 3 3 3 3 3 3 3 3 3 3 3 3 3 3 3 3 3 3 3 3 3 3 3 3 3 3 3 3 3 3 3 3 3 3 3 3 3 3 3 3 3 3 3 3 3 3 3 3 3 3 3 3 3 3 3 3 3 3 3 3 3 3 3 </DataArray>
</Cells>
<PointData  Vectors="(s, w)"> 
<DataArray  type="Float64"  Name="(s, w)"  NumberOfComponents="3" format="ascii">3.1992518143095805e+00 0.0000000000000000e+00 0.0000000000000000e+00  3.1268573072192480e+00 -2.2085664153425488e-01 0.0000000000000000e+00  3.1951676046710711e+00 4.2050756065264827e-01 0.0000000000000000e+00  3.1348404017921530e+00 -6.1061041931563687e-01 0.0000000000000000e+00  3.1832776693930800e+00 7.4583975389647406e-01 0.0000000000000000e+00  3.1500525633764744e+00 -8.6007504537191748e-01 0.0000000000000000e+00  3.1648241133495771e+00 9.0790104631914947e-01 0.0000000000000000e+00  3.1707226596231020e+00 -9.2374608623256205e-01 0.0000000000000000e+00  3.1422580368445887e+00 8.8699386126041868e-01 0.0000000000000000e+00  3.1937686577226030e+00 -8.1464820452566844e-01 0.0000000000000000e+00  3.1194058919424403e+00 7.2120522197195369e-01 0.0000000000000000e+00  3.2148425100946501e+00 -6.0243866272881275e-01 0.0000000000000000e+00  3.1010933856881264e+00 4.9816005062676655e-01 0.0000000000000000e+00  3.2290353881920191e+00 -3.9174591289692656e-01 0.0000000000000000e+00  3.0920324002534865e+00 3.2689585003652261e-01 0.0000000000000000e+00  3.2322950938572794e+00 -2.8484899841290889e-01 0.0000000000000000e+00  3.0951479746060047e+00 2.9516581495659872e-01 0.0000000000000000e+00  3.2231844023773260e+00 -3.3946138262238346e-01 0.0000000000000000e+00  3.1099428428892790e+00 4.2702061067562980e-01 0.0000000000000000e+00  3.2042054673582503e+00 -5.3712796364548632e-01 0.0000000000000000e+00  3.1317777709783146e+00 6.6158998605691643e-01 0.0000000000000000e+00  3.1817656806846126e+00 -7.7915812972679233e-01 0.0000000000000000e+00  3.1528708583148846e+00 8.7027257033165772e-01 0.0000000000000000e+00  3.1642053155202023e+00 -9.2199688750375663e-01 0.0000000000000000e+00  3.1651968382107714e+00 9.1359342534817234e-01 0.0000000000000000e+00  3.1582236640756318e+00 -8.4749293362460809e-01 0.0000000000000000e+00  3.1643668167930632e+00 7.1686132085119014e-01 0.0000000000000000e+00  3.1651993662844733e+00 -5.3804097040929644e-01 0.0000000000000000e+00  3.1525263374917327e+00 3.2720116074393396e-01 0.0000000000000000e+00  3.1795991854462256e+00 -1.0919566842595793e-01 0.0000000000000000e+00  3.1381338473718667e+00 -8.7602811400397634e-02 0.0000000000000000e+00  3.1911835378434676e+00 2.3547035040427006e-01 0.0000000000000000e+00  3.1317556697908930e+00 -3.1841643847144763e-01 0.0000000000000000e+00  3.1907585321854235e+00 3.1774838138166334e-01 0.0000000000000000e+00  3.1395163267043800e+00 -2.4499630261590974e-01 0.0000000000000000e+00  3.1765239171751243e+00 1.0600200417638181e-01 0.0000000000000000e+00  3.1581876678833103e+00 6.4488645589282426e-02 0.0000000000000000e+00  3.1565023947098378e+00 -2.3860195305931900e-01 0.0000000000000000e+00  3.1760890003004252e+00 3.7377927322586052e-01 0.0000000000000000e+00  3.1440306071466857e+00 -4.4829077888731150e-01 0.0000000000000000e+00  3.1807733971181049e+00 4.3405705368601238e-01 0.0000000000000000e+00  3.1480287528416229e+00 -3.4169526915448661e-01 0.0000000000000000e+00  3.1690038120050703e+00 1.7874081245940987e-01 0.0000000000000000e+00  3.1649313359963540e+00 1.2404934288838324e-02 0.0000000000000000e+00  3.1508719998765873e+00 -1.9648113311876289e-01 0.0000000000000000e+00  3.1799855039840565e+00 3.2285663138032100e-01 0.0000000000000000e+00  3.1426564476858965e+00 -3.7078498358666540e-01 0.0000000000000000e+00  3.1792310956128316e+00 3.1646790685431109e-01 0.0000000000000000e+00  3.1523396507708057e+00 -1.8599298228723035e-01 0.0000000000000000e+00  3.1630793758482554e+00 3.1937092565605088e-03 0.0000000000000000e+00  3.1705982565867643e+00 1.7234422435072841e-01 0.0000000000000000e+00  3.1476138667274585e+00 -2.9498155106853136e-01 0.0000000000000000e+00  3.1782590879037085e+00 3.3251008740348326e-01 0.0000000000000000e+00  3.1487387371454751e+00 -2.4241724068807280e-01 0.0000000000000000e+00  3.1657127941878724e+00 1.4126678813419508e-01 0.0000000000000000e+00  3.1625461544674125e+00 1.4921994916679068e-01 0.0000000000000000e+00  3.1435400910426741e+00 -8.7097590516398607e-02 0.0000000000000000e+00  3.1644175643482320e+00 5.4473934678063307e-01 0.0000000000000000e+00  3.1285317461765070e+00 1.7213735243105474e-01 0.0000000000000000e+00  3.1343560408044580e+00 7.4786672184769243e-01 0.0000000000000000e+00  3.1183375063658434e+00 1.0286663060689116e+00 0.0000000000000000e+00  3.0839765284802403e+00 1.0560745591956637e+00 0.0000000000000000e+00  3.0885917487473549e+00 1.9516364977315350e+00 0.0000000000000000e+00  3.0438108395279957e+00 1.9321640774594413e+00 0.0000000000000000e+00  3.0274073307615845e+00 2.5134572778996023e+00 0.0000000000000000e+00  3.0144551656519205e+00 3.1889796871454261e+00 0.0000000000000000e+00  2.9647198864462494e+00 3.1458561808812804e+00 0.0000000000000000e+00  2.9624891078410829e+00 4.0466775693044603e+00 0.0000000000000000e+00  2.9292523606023653e+00 4.3377368744245173e+00 0.0000000000000000e+00  2.8901215635114221e+00 4.5032346225034994e+00 0.0000000000000000e+00  2.8897531422049125e+00 5.4351016568072854e+00 0.0000000000000000e+00  2.8436612442863844e+00 5.4552782026381408e+00 0.0000000000000000e+00  2.8174054743387096e+00 5.8575267639811450e+00 0.0000000000000000e+00  2.8125034436931005e+00 6.6776023491107317e+00 0.0000000000000000e+00  2.7602005180752909e+00 6.5501174159770938e+00 0.0000000000000000e+00  2.7448415389564751e+00 7.1412808158825847e+00 0.0000000000000000e+00  2.7330275939223947e+00 7.7983624586147862e+00 0.0000000000000000e+00  2.6797127558614910e+00 7.6206969558394428e+00 0.0000000000000000e+00  2.6706756935620612e+00 8.3089868842923433e+00 0.0000000000000000e+00  2.6541156330985536e+00 8.8421282510322676e+00 0.0000000000000000e+00  2.6008170760482070e+00 8.6352714776071231e+00 0.0000000000000000e+00  2.5953600276403912e+00 9.3642087191771015e+00 0.0000000000000000e+00  2.5760562657459767e+00 9.8140517284804734e+00 0.0000000000000000e+00  2.5237750099662413e+00 9.5968154169758346e+00 0.0000000000000000e+00  2.5183800182417633e+00 1.0298323768422636e+01 0.0000000000000000e+00  2.4989763116051780e+00 1.0715679633330701e+01 0.0000000000000000e+00  2.4489997068648859e+00 1.0516136527540223e+01 0.0000000000000000e+00  2.4403357498162093e+00 1.1122245345560513e+01 0.0000000000000000e+00  2.4199603627876840e+00 1.1492699502194075e+01 0.0000000000000000e+00  2.3801731487972138e+00 1.1463498070182808e+01 0.0000000000000000e+00  2.3610871369239281e+00 1.1837900984775093e+01 0.0000000000000000e+00  2.3341104181979104e+00 1.2042715131857495e+01 0.0000000000000000e+00  2.3221390685072989e+00 1.2538191178672333e+01 0.0000000000000000e+00  2.2840420824427770e+00 1.2504820388704701e+01 0.0000000000000000e+00  2.2309962634525964e+00 1.2159262577617678e+01 0.0000000000000000e+00  2.2807404691999706e+00 1.3845847853065829e+01 0.0000000000000000e+00  2.2172291538253752e+00 1.3289048290896993e+01 0.0000000000000000e+00  2.0985015514538694e+00 1.1603967346485359e+01 0.0000000000000000e+00  2.2500201177522907e+00 1.5306954716573824e+01 0.0000000000000000e+00  2.1752789650158482e+00 1.4576196308641510e+01 0.0000000000000000e+00  1.9092137704101122e+00 1.0496253328123069e+01 0.0000000000000000e+00  2.2039218409109300e+00 1.6290792714039490e+01 0.0000000000000000e+00  2.1976366529708922e+00 1.6592977221852010e+01 0.0000000000000000e+00  1.8211795384802858e+00 8.7821865545436015e+00 0.0000000000000000e+00  2.1482258826464942e+00 1.5621280037404595e+01 0.0000000000000000e+00  2.3205040958303536e+00 1.8916455315831499e+01 0.0000000000000000e+00  1.7546097031742114e+00 8.1403648548027299e+00 0.0000000000000000e+00  2.0230010644090228e+00 1.3254160288567142e+01 0.0000000000000000e+00  2.4289547136516112e+00 2.1579294461561098e+01 0.0000000000000000e+00  1.7953281063108337e+00 9.0434515141768372e+00 0.0000000000000000e+00  1.8119496581943106e+00 9.5190140975217012e+00 0.0000000000000000e+00  2.5003430159757105e+00 2.3164882844571384e+01 0.0000000000000000e+00  1.9518198000265199e+00 1.2420644670596692e+01 0.0000000000000000e+00  1.5808547822437300e+00 5.2506945911722980e+00 0.0000000000000000e+00  2.4166354937743599e+00 2.1847577606589745e+01 0.0000000000000000e+00  2.2570887855361184e+00 1.8492149394624146e+01 0.0000000000000000e+00  1.4277738134504219e+00 2.9282228041728979e+00 0.0000000000000000e+00  2.0818053048351688e+00 1.5222259370253285e+01 0.0000000000000000e+00  2.5974878375899482e+00 2.5818930309089168e+01 0.0000000000000000e+00  1.5803416495236817e+00 5.9694282598197059e+00 0.0000000000000000e+00  1.5308984212219865e+00 5.0726913471022135e+00 0.0000000000000000e+00  2.6346102997749448e+00 2.6956319310209416e+01 0.0000000000000000e+00  2.1501915763451320e+00 1.6822549367909492e+01 0.0000000000000000e+00  1.1883514874793906e+00 -2.4058461671062933e-01 0.0000000000000000e+00  1.9910816178461943e+00 1.3836664449887630e+01 0.0000000000000000e+00  2.7640849106575169e+00 3.0082531627953824e+01 0.0000000000000000e+00  1.6157146400343756e+00 6.9721892615364807e+00 0.0000000000000000e+00  1.1569510615813907e+00 -3.2882833261328420e-01 0.0000000000000000e+00  2.3807526701674799e+00 2.1829835968060927e+01 0.0000000000000000e+00  2.6245015758518866e+00 2.7073043200274327e+01 0.0000000000000000e+00  1.2870236173578247e+00 1.8207435901761944e+00 0.0000000000000000e+00  1.2262922126946039e+00 8.6774851572520151e-01 0.0000000000000000e+00  2.5723039333369928e+00 2.6086625505225729e+01 0.0000000000000000e+00  2.4907452020945131e+00 2.4149262505926277e+01 0.0000000000000000e+00  1.1506785644551911e+00 1.8825504720652121e-02 0.0000000000000000e+00  1.2937770980543222e+00 1.8622389603313101e+00 0.0000000000000000e+00  2.6549309327472526e+00 2.7940367670097274e+01 0.0000000000000000e+00  2.3863698397627480e+00 2.2015704453033756e+01 0.0000000000000000e+00  1.1244150352848410e+00 -8.3272527198905233e-01 0.0000000000000000e+00  9.5742566265770157e-01 2.5688940506996327e-01 0.0000000000000000e+00  1.0129803593496247e+00 -7.4768424114515744e-02 0.0000000000000000e+00  9.9703584096919529e-01 1.6641467995269551e-02 0.0000000000000000e+00  9.9978266172489816e-01 1.8641838804076894e-03 0.0000000000000000e+00  1.0010929136773348e+00 -6.9555753904239877e-03 0.0000000000000000e+00  9.9879876479429230e-01 7.5532042141801519e-03 0.0000000000000000e+00  1.0010688936345158e+00 -6.6974223761848764e-03 0.0000000000000000e+00  9.9912294464623319e-01 5.4959633069058267e-03 0.0000000000000000e+00  1.0006894242746842e+00 -4.3171553910937880e-03 0.0000000000000000e+00  9.9947341523961231e-01 3.2986959436629103e-03 0.0000000000000000e+00  1.0003934871443876e+00 -2.4641403579512356e-03 0.0000000000000000e+00  9.9971137292496459e-01 1.8078789818168372e-03 0.0000000000000000e+00  1.0002082972310020e+00 -1.3045004511681034e-03 0.0000000000000000e+00  9.9985188518311541e-01 9.2770489738169750e-04 0.0000000000000000e+00  1.0001038998538265e+00 -6.5071476255301394e-04 0.0000000000000000e+00  9.9992803356721638e-01 4.5074443505275754e-04 0.0000000000000000e+00  1.0000492612609710e+00 -3.0852404164017380e-04 0.0000000000000000e+00  9.9996665448739386e-01 2.0884897079321137e-04 0.0000000000000000e+00  1.0000223356441251e+00 -1.3988970209308682e-04 0.0000000000000000e+00  9.9998518765470701e-01 9.2771843250180684e-05 0.0000000000000000e+00  1.0000097303911266e+00 -6.0942365568035147e-05 0.0000000000000000e+00  9.9999366552379410e-01 3.9673626435895193e-05 0.0000000000000000e+00  1.0000040883029666e+00 -2.5605476088109358e-05 0.0000000000000000e+00  9.9999738308949726e-01 1.6390022671587305e-05 0.0000000000000000e+00  1.0000016618720975e+00 -1.0408489489111776e-05 0.0000000000000000e+00  9.9999895261422123e-01 6.5598988820717162e-06 0.0000000000000000e+00  1.0000006553055307e+00 -4.1042525754733629e-06 0.0000000000000000e+00  9.9999959287517981e-01 2.5498695782227878e-06 0.0000000000000000e+00  1.0000002512283002e+00 -1.5734714245829519e-06 0.0000000000000000e+00  9.9999984598248493e-01 9.6462933984335626e-07 0.0000000000000000e+00  1.0000000938272853e+00 -5.8765099450005353e-07 0.0000000000000000e+00  9.9999994318844543e-01 3.5581726651509752e-07 0.0000000000000000e+00  1.0000000341962403e+00 -2.1417495813008709e-07 0.0000000000000000e+00  9.9999997953390518e-01 1.2818149828059497e-07 0.0000000000000000e+00  1.0000000121809998e+00 -7.6290990692220029e-08 0.0000000000000000e+00  9.9999999278901841e-01 4.5163204007599458e-08 0.0000000000000000e+00  1.0000000042465671e+00 -2.6596732500725701e-08 0.0000000000000000e+00  9.9999999751183888e-01 1.5583640620711746e-08 0.0000000000000000e+00  1.0000000014507016e+00 -9.0859057645889315e-09 0.0000000000000000e+00  9.9999999915822635e-01 5.2721232285219878e-09 0.0000000000000000e+00  1.0000000004861680e+00 -3.0449307823813764e-09 0.0000000000000000e+00  9.9999999972048614e-01 1.7506362266210233e-09 0.0000000000000000e+00  1.0000000001599934e+00 -1.0020552043029320e-09 0.0000000000000000e+00  9.9999999990881505e-01 5.7110852430026533e-10 0.0000000000000000e+00  1.0000000000517513e+00 -3.2412754939369558e-10 0.0000000000000000e+00  9.9999999997074940e-01 1.8319788028606200e-10 0.0000000000000000e+00  1.0000000000164675e+00 -1.0313242385979729e-10 0.0000000000000000e+00  9.9999999999076583e-01 5.7836642690469524e-11 0.0000000000000000e+00  1.0000000000051583e+00 -3.2306122634799573e-11 0.0000000000000000e+00  9.9999999999712874e-01 1.7983633363744557e-11 0.0000000000000000e+00  1.0000000000015923e+00 -9.9709086354818316e-12 0.0000000000000000e+00  9.9999999999912004e-01 5.5134594358254774e-12 0.0000000000000000e+00  1.0000000000004849e+00 -3.0339333984675083e-12 0.0000000000000000e+00  9.9999999999973432e-01 1.6655678427738640e-12 0.0000000000000000e+00  1.0000000000001454e+00 -9.1067069663492142e-13 0.0000000000000000e+00  9.9999999999992073e-01 4.9822944850869794e-13 0.0000000000000000e+00  1.0000000000000429e+00 -2.6907695372384479e-13 0.0000000000000000e+00  9.9999999999997702e-01 1.4126887577157901e-13 0.0000000000000000e+00  1.0000000000000124e+00 -7.6386999744474423e-14 0.0000000000000000e+00  9.9999999999999234e-01 3.7773182891863623e-14 0.0000000000000000e+00  1.0000000000000056e+00 -1.3327898755066516e-14 0.0000000000000000e+00  9.9999999999999678e-01 0.0000000000000000e+00 0.0000000000000000e+00  </DataArray> 
</PointData> 
</Piece>
</UnstructuredGrid>
</VTKFile>