<?xml version="1.0"?>
<VTKFile type="UnstructuredGrid"  version="0.1"  >
<UnstructuredGrid>
<Piece  NumberOfPoints="201" NumberOfCells="200">
<Points>
<DataArray  type="Float64"  NumberOfComponents="3"  format="ascii">-5 0 0  -4.95 0 0  -4.9 0 0  -4.85 0 0  -4.8 0 0  -4.75 0 0  -4.7 0 0  -4.65 0 0  -4.6 0 0  -4.55 0 0  -4.5 0 0  -4.45 0 0  -4.4 0 0  -4.35 0 0  -4.3 0 0  -4.25 0 0  -4.2 0 0  -4.15 0 0  -4.1 0 0  -4.05 0 0  -4 0 0  -3.95 0 0  -3.9 0 0  -3.85 0 0  -3.8 0 0  -3.75 0 0  -3.7 0 0  -3.65 0 0  -3.6 0 0  -3.55 0 0  -3.5 0 0  -3.45 0 0  -3.4 0 0  -3.35 0 0  -3.3 0 0  -3.25 0 0  -3.2 0 0  -3.15 0 0  -3.1 0 0  -3.05 0 0  -3 0 0  -2.95 0 0  -2.9 0 0  -2.85 0 0  -2.8 0 0  -2.75 0 0  -2.7 0 0  -2.65 0 0  -2.6 0 0  -2.55 0 0  -2.5 0 0  -2.45 0 0  -2.4 0 0  -2.35 0 0  -2.3 0 0  -2.25 0 0  -2.2 0 0  -2.15 0 0  -2.1 0 0  -2.05 0 0  -2 0 0  -1.95 0 0  -1.9 0 0  -1.85 0 0  -1.8 0 0  -1.75 0 0  -1.7 0 0  -1.65 0 0  -1.6 0 0  -1.55 0 0  -1.5 0 0  -1.45 0 0  -1.4 0 0  -1.35 0 0  -1.3 0 0  -1.25 0 0  -1.2 0 0  -1.15 0 0  -1.1 0 0  -1.05 0 0  -1 0 0  -0.9500000000000002 0 0  -0.9000000000000004 0 0  -0.8499999999999996 0 0  -0.7999999999999998 0 0  -0.75 0 0  -0.7000000000000002 0 0  -0.6500000000000004 0 0  -0.5999999999999996 0 0  -0.5499999999999998 0 0  -0.5 0 0  -0.4500000000000002 0 0  -0.4000000000000004 0 0  -0.3499999999999996 0 0  -0.2999999999999998 0 0  -0.25 0 0  -0.2000000000000002 0 0  -0.1500000000000004 0 0  -0.09999999999999964 0 0  -0.04999999999999982 0 0  0 0 0  0.04999999999999982 0 0  0.09999999999999964 0 0  0.1500000000000004 0 0  0.2000000000000002 0 0  0.25 0 0  0.2999999999999998 0 0  0.3499999999999996 0 0  0.4000000000000004 0 0  0.4500000000000002 0 0  0.5 0 0  0.5499999999999998 0 0  0.5999999999999996 0 0  0.6500000000000004 0 0  0.7000000000000002 0 0  0.75 0 0  0.7999999999999998 0 0  0.8499999999999996 0 0  0.9000000000000004 0 0  0.9500000000000002 0 0  1 0 0  1.05 0 0  1.1 0 0  1.15 0 0  1.2 0 0  1.25 0 0  1.3 0 0  1.35 0 0  1.4 0 0  1.45 0 0  1.5 0 0  1.55 0 0  1.6 0 0  1.65 0 0  1.7 0 0  1.75 0 0  1.8 0 0  1.85 0 0  1.9 0 0  1.95 0 0  2 0 0  2.05 0 0  2.1 0 0  2.15 0 0  2.2 0 0  2.25 0 0  2.3 0 0  2.35 0 0  2.4 0 0  2.45 0 0  2.5 0 0  2.55 0 0  2.6 0 0  2.65 0 0  2.7 0 0  2.75 0 0  2.8 0 0  2.85 0 0  2.9 0 0  2.95 0 0  3 0 0  3.050000000000001 0 0  3.1 0 0  3.15 0 0  3.199999999999999 0 0  3.25 0 0  3.300000000000001 0 0  3.35 0 0  3.4 0 0  3.449999999999999 0 0  3.5 0 0  3.550000000000001 0 0  3.6 0 0  3.65 0 0  3.699999999999999 0 0  3.75 0 0  3.800000000000001 0 0  3.85 0 0  3.9 0 0  3.949999999999999 0 0  4 0 0  4.050000000000001 0 0  4.1 0 0  4.15 0 0  4.199999999999999 0 0  4.25 0 0  4.300000000000001 0 0  4.35 0 0  4.4 0 0  4.449999999999999 0 0  4.5 0 0  4.550000000000001 0 0  4.6 0 0  4.65 0 0  4.699999999999999 0 0  4.75 0 0  4.800000000000001 0 0  4.85 0 0  4.9 0 0  4.949999999999999 0 0  5 0 0  </DataArray>
</Points>
<Cells>
<DataArray  type="UInt32"  Name="connectivity"  format="ascii">0 1  1 2  2 3  3 4  4 5  5 6  6 7  7 8  8 9  9 10  10 11  11 12  12 13  13 14  14 15  15 16  16 17  17 18  18 19  19 20  20 21  21 22  22 23  23 24  24 25  25 26  26 27  27 28  28 29  29 30  30 31  31 32  32 33  33 34  34 35  35 36  36 37  37 38  38 39  39 40  40 41  41 42  42 43  43 44  44 45  45 46  46 47  47 48  48 49  49 50  50 51  51 52  52 53  53 54  54 55  55 56  56 57  57 58  58 59  59 60  60 61  61 62  62 63  63 64  64 65  65 66  66 67  67 68  68 69  69 70  70 71  71 72  72 73  73 74  74 75  75 76  76 77  77 78  78 79  79 80  80 81  81 82  82 83  83 84  84 85  85 86  86 87  87 88  88 89  89 90  90 91  91 92  92 93  93 94  94 95  95 96  96 97  97 98  98 99  99 100  100 101  101 102  102 103  103 104  104 105  105 106  106 107  107 108  108 109  109 110  110 111  111 112  112 113  113 114  114 115  115 116  116 117  117 118  118 119  119 120  120 121  121 122  122 123  123 124  124 125  125 126  126 127  127 128  128 129  129 130  130 131  131 132  132 133  133 134  134 135  135 136  136 137  137 138  138 139  139 140  140 141  141 142  142 143  143 144  144 145  145 146  146 147  147 148  148 149  149 150  150 151  151 152  152 153  153 154  154 155  155 156  156 157  157 158  158 159  159 160  160 161  161 162  162 163  163 164  164 165  165 166  166 167  167 168  168 169  169 170  170 171  171 172  172 173  173 174  174 175  175 176  176 177  177 178  178 179  179 180  180 181  181 182  182 183  183 184  184 185  185 186  186 187  187 188  188 189  189 190  190 191  191 192  192 193  193 194  194 195  195 196  196 197  197 198  198 199  199 200  </DataArray>
<DataArray  type="UInt32"  Name="offsets"  format="ascii">2 4 6 8 10 12 14 16 18 20 22 24 26 28 30 32 34 36 38 40 42 44 46 48 50 52 54 56 58 60 62 64 66 68 70 72 74 76 78 80 82 84 86 88 90 92 94 96 98 100 102 104 106 108 110 112 114 116 118 120 122 124 126 128 130 132 134 136 138 140 142 144 146 148 150 152 154 156 158 160 162 164 166 168 170 172 174 176 178 180 182 184 186 188 190 192 194 196 198 200 202 204 206 208 210 212 214 216 218 220 222 224 226 228 230 232 234 236 238 240 242 244 246 248 250 252 254 256 258 260 262 264 266 268 270 272 274 276 278 280 282 284 286 288 290 292 294 296 298 300 302 304 306 308 310 312 314 316 318 320 322 324 326 328 330 332 334 336 338 340 342 344 346 348 350 352 354 356 358 360 362 364 366 368 370 372 374 376 378 380 382 384 386 388 390 392 394 396 398 400 </DataArray>
<DataArray  type="UInt8"  Name="types"  format="ascii">3 3 3 3 3 3 3 3 3 3 3 3 3 3 3 3 3 3 3 3 3 3 3 3 3 3 3 3 3 3 3 3 3 3 3 3 3 3 3 3 3 3 3 3 3 3 3 3 3 3 3 3 3 3 3 3 3 3 3 3 3 3 3 3 3 3 3 3 3 3 3 3 3 3 3 3 3 3 3 3 3 3 3 3 3 3 3 3 3 3 3 3 3 3 3 3 3 3 3 3 3 3 3 3 3 3 3 3 3 3 3 3 3 3 3 3 3 3 3 3 3 3 3 3 3 3 3 3 3 3 3 3 3 3 3 3 3 3 3 3 3 3 3 3 3 3 3 3 3 3 3 3 3 3 3 3 3 3 3 3 3 3 3 3 3 3 3 3 3 3 3 3 3 3 3 3 3 3 3 3 3 3 3 3 3 3 3 3 3 3 3 3 3 3 3 3 3 3 3 3 </DataArray>
</Cells>
<PointData  Vectors="(s, w)"> 
<DataArray  type="Float64"  Name="(s, w)"  NumberOfComponents="3" format="ascii">3.1359761053237891e+00 0.0000000000000000e+00 0.0000000000000000e+00  3.1519740117447119e+00 2.7784006086213109e-01 0.0000000000000000e+00  3.1370865965553394e+00 2.7932809430397110e-02 0.0000000000000000e+00  3.1376529443873773e+00 6.4688973639835312e-01 0.0000000000000000e+00  3.1343953444746924e+00 4.1260890880067058e-01 0.0000000000000000e+00  3.1204676423820303e+00 7.2322430527155501e-01 0.0000000000000000e+00  3.1178202948602700e+00 1.0327628125675850e+00 0.0000000000000000e+00  3.1099868929463677e+00 8.3834962310409944e-01 0.0000000000000000e+00  3.0889669431120965e+00 1.4736386509975459e+00 0.0000000000000000e+00  3.1003350375247534e+00 1.3016784862941684e+00 0.0000000000000000e+00  3.0644365709453170e+00 1.6251935888431965e+00 0.0000000000000000e+00  3.0768286620937713e+00 1.9453756764859598e+00 0.0000000000000000e+00  3.0554150290396054e+00 1.8224064227039349e+00 0.0000000000000000e+00  3.0410248223991667e+00 2.3827846536106310e+00 0.0000000000000000e+00  3.0474372584472045e+00 2.3003787356521816e+00 0.0000000000000000e+00  3.0159894787125756e+00 2.5900495520177595e+00 0.0000000000000000e+00  3.0180925897093647e+00 2.8579891297848383e+00 0.0000000000000000e+00  3.0121088005820935e+00 2.8590554115535816e+00 0.0000000000000000e+00  2.9762272099835836e+00 3.2640897962715076e+00 0.0000000000000000e+00  3.0037602488078337e+00 3.2695432470649002e+00 0.0000000000000000e+00  2.9550261619980636e+00 3.5950208109617341e+00 0.0000000000000000e+00  2.9673877689776278e+00 3.6912263397123524e+00 0.0000000000000000e+00  2.9567111130288919e+00 3.9169190491428916e+00 0.0000000000000000e+00  2.9255943048766357e+00 4.1561546948042762e+00 0.0000000000000000e+00  2.9436333812885329e+00 4.1517965313956200e+00 0.0000000000000000e+00  2.9117258628247780e+00 4.6490656824708028e+00 0.0000000000000000e+00  2.9025342183638743e+00 4.4832956307993799e+00 0.0000000000000000e+00  2.9111051168799111e+00 4.8699393784325675e+00 0.0000000000000000e+00  2.8671283877142066e+00 5.1355857503392368e+00 0.0000000000000000e+00  2.8896969736345128e+00 4.8932091222170930e+00 0.0000000000000000e+00  2.8554064953827192e+00 5.6655794713460716e+00 0.0000000000000000e+00  2.8537737952243787e+00 5.3462407726620693e+00 0.0000000000000000e+00  2.8457715050206418e+00 5.6233357217506690e+00 0.0000000000000000e+00  2.8256035823162056e+00 6.1720580248666677e+00 0.0000000000000000e+00  2.8263940589282126e+00 5.6550931033186922e+00 0.0000000000000000e+00  2.8043689855473648e+00 6.4717166960026562e+00 0.0000000000000000e+00  2.8009299064534243e+00 6.3815428112981811e+00 0.0000000000000000e+00  2.7917755895098959e+00 6.2925030386153722e+00 0.0000000000000000e+00  2.7644099721855726e+00 7.0572738200015737e+00 0.0000000000000000e+00  2.7861597815359906e+00 6.6103920520705834e+00 0.0000000000000000e+00  2.7353404928169223e+00 7.0758130957511467e+00 0.0000000000000000e+00  2.7543681240040025e+00 7.3218745805685979e+00 0.0000000000000000e+00  2.7393754292887396e+00 7.1326838247218172e+00 0.0000000000000000e+00  2.7022687418754772e+00 7.6715404742325175e+00 0.0000000000000000e+00  2.7339679594616091e+00 7.5492666437355327e+00 0.0000000000000000e+00  2.6908540377504910e+00 7.8432886084048468e+00 0.0000000000000000e+00  2.6792429313538557e+00 7.9506757898307949e+00 0.0000000000000000e+00  2.7053898114498205e+00 8.0410675585291660e+00 0.0000000000000000e+00  2.6398251658305902e+00 8.4249048246372613e+00 0.0000000000000000e+00  2.6733252532144780e+00 8.1572887962133489e+00 0.0000000000000000e+00  2.6493569193951254e+00 8.7292926029309417e+00 0.0000000000000000e+00  2.6199392242107837e+00 8.7341942303820410e+00 0.0000000000000000e+00  2.6428130233212213e+00 8.5277049768327355e+00 0.0000000000000000e+00  2.6041341765071548e+00 9.4012600017181480e+00 0.0000000000000000e+00  2.6036337965556355e+00 8.8589302713134597e+00 0.0000000000000000e+00  2.6010544378823872e+00 9.1538935463342881e+00 0.0000000000000000e+00  2.5672064656369713e+00 9.7903518697808209e+00 0.0000000000000000e+00  2.5895345020754301e+00 9.1096276244779659e+00 0.0000000000000000e+00  2.5432961820927220e+00 9.8027445214149616e+00 0.0000000000000000e+00  2.5560644057968265e+00 9.9970096608280627e+00 0.0000000000000000e+00  2.5491649675159129e+00 9.5321341986546155e+00 0.0000000000000000e+00  2.5018865968446526e+00 1.0334310763378211e+01 0.0000000000000000e+00  2.5423949405396362e+00 1.0122443338231982e+01 0.0000000000000000e+00  2.5012067036619019e+00 1.0189182382117105e+01 0.0000000000000000e+00  2.4719022091777543e+00 1.0560963049694854e+01 0.0000000000000000e+00  2.5226181177443547e+00 1.0427545312263625e+01 0.0000000000000000e+00  2.4460074117958754e+00 1.0779002437460349e+01 0.0000000000000000e+00  2.4616674385979129e+00 1.0697562755242235e+01 0.0000000000000000e+00  2.4799666374996461e+00 1.0868805724140699e+01 0.0000000000000000e+00  2.4085531397707327e+00 1.1274477794224115e+01 0.0000000000000000e+00  2.4452008290835958e+00 1.0740309175596375e+01 0.0000000000000000e+00  2.4293603914283013e+00 1.1475594413530052e+01 0.0000000000000000e+00  2.3853801942043806e+00 1.1549228032443317e+01 0.0000000000000000e+00  2.4236580424849579e+00 1.0988676677986442e+01 0.0000000000000000e+00  2.3703288390168202e+00 1.1972614845219532e+01 0.0000000000000000e+00  2.3807686632215868e+00 1.1732097117570904e+01 0.0000000000000000e+00  2.3791075525499461e+00 1.1348120035849554e+01 0.0000000000000000e+00  2.3269334007278637e+00 1.2367730561122041e+01 0.0000000000000000e+00  2.3749504575642311e+00 1.1870919268389846e+01 0.0000000000000000e+00  2.3266753474819764e+00 1.1932756920651467e+01 0.0000000000000000e+00  2.2944509321671855e+00 1.2448688759502389e+01 0.0000000000000000e+00  2.3622664375392035e+00 1.2131874962655971e+01 0.0000000000000000e+00  2.2643201842992826e+00 1.2534755761503218e+01 0.0000000000000000e+00  2.2890965376106989e+00 1.2359883839644198e+01 0.0000000000000000e+00  2.3174005539788936e+00 1.2569056478144656e+01 0.0000000000000000e+00  2.2283579331554502e+00 1.3100370757763139e+01 0.0000000000000000e+00  2.2826694661509599e+00 1.2148079917161080e+01 0.0000000000000000e+00  2.2434831900651302e+00 1.3182024534491747e+01 0.0000000000000000e+00  2.2309373655669420e+00 1.3303101473747518e+01 0.0000000000000000e+00  2.2524747361632547e+00 1.2256748586817354e+01 0.0000000000000000e+00  2.1548101843622938e+00 1.3673265727020837e+01 0.0000000000000000e+00  2.2954064151485123e+00 1.3225651550557540e+01 0.0000000000000000e+00  2.1108762048481315e+00 1.3191766494844932e+01 0.0000000000000000e+00  2.2211175886848435e+00 1.2935333105792544e+01 0.0000000000000000e+00  2.1863633734358472e+00 1.4437110189420553e+01 0.0000000000000000e+00  2.1490805241499076e+00 1.2764281679582609e+01 0.0000000000000000e+00  2.1290255653193264e+00 1.3328069752917274e+01 0.0000000000000000e+00  2.2028098776228431e+00 1.4736411136681804e+01 0.0000000000000000e+00  2.0916468120104996e+00 1.2989068982352574e+01 0.0000000000000000e+00  2.0958198166548931e+00 1.3327321159664949e+01 0.0000000000000000e+00  2.1767298003586002e+00 1.5464390098916594e+01 0.0000000000000000e+00  2.0581997981159854e+00 1.2925043539855796e+01 0.0000000000000000e+00  2.0505162865463133e+00 1.3288140169604615e+01 0.0000000000000000e+00  2.2017276722657693e+00 1.6019310285029324e+01 0.0000000000000000e+00  2.0314521640448628e+00 1.2767032479616587e+01 0.0000000000000000e+00  2.0339517746148674e+00 1.2685661214470830e+01 0.0000000000000000e+00  2.2306247086091990e+00 1.6810064727377725e+01 0.0000000000000000e+00  2.0298398143465257e+00 1.2765675846635460e+01 0.0000000000000000e+00  1.9703344009801789e+00 1.1751543311951398e+01 0.0000000000000000e+00  2.2687439326756955e+00 1.7614127769033111e+01 0.0000000000000000e+00  2.0520854971771705e+00 1.3464654363328965e+01 0.0000000000000000e+00  1.8932199966329204e+00 1.0279459728692281e+01 0.0000000000000000e+00  2.2763550437894398e+00 1.8011694135834624e+01 0.0000000000000000e+00  2.1281440788318595e+00 1.5016817459510117e+01 0.0000000000000000e+00  1.8044176433097918e+00 8.7805933237628526e+00 0.0000000000000000e+00  2.2357912729507552e+00 1.7272977930057731e+01 0.0000000000000000e+00  2.2393816037443357e+00 1.7429385343236579e+01 0.0000000000000000e+00  1.7535773994173105e+00 7.8933409605659577e+00 0.0000000000000000e+00  2.1177119707713263e+00 1.5114713452977314e+01 0.0000000000000000e+00  2.3662736456336346e+00 2.0052557340957257e+01 0.0000000000000000e+00  1.7711874911483274e+00 8.4468844765748248e+00 0.0000000000000000e+00  1.9417778280132414e+00 1.1720203500536298e+01 0.0000000000000000e+00  2.4481998671451373e+00 2.1902450477902615e+01 0.0000000000000000e+00  1.8908900127945178e+00 1.0840722381327300e+01 0.0000000000000000e+00  1.7438645804174397e+00 8.0617054209235466e+00 0.0000000000000000e+00  2.4345388004428012e+00 2.1719644723381421e+01 0.0000000000000000e+00  2.0971300899357157e+00 1.5014942745673647e+01 0.0000000000000000e+00  1.5996250231419693e+00 5.4228577401532574e+00 0.0000000000000000e+00  2.2807895847784585e+00 1.8763914021595088e+01 0.0000000000000000e+00  2.3453232089869687e+00 2.0023664067131914e+01 0.0000000000000000e+00  1.5777759388511521e+00 5.2126675279867110e+00 0.0000000000000000e+00  2.0020975875730218e+00 1.3291155188449061e+01 0.0000000000000000e+00  2.5331519261500661e+00 2.4022656353026125e+01 0.0000000000000000e+00  1.7394850158796380e+00 8.3545647662772105e+00 0.0000000000000000e+00  1.6725393504193049e+00 7.1157438009613241e+00 0.0000000000000000e+00  2.5394997251299003e+00 2.4289459002884247e+01 0.0000000000000000e+00  2.0722367008536864e+00 1.4877170884868045e+01 0.0000000000000000e+00  1.4439005529073150e+00 3.0637758748661548e+00 0.0000000000000000e+00  2.2725758588126483e+00 1.8976529226981146e+01 0.0000000000000000e+00  2.4618774964250139e+00 2.2799825027210730e+01 0.0000000000000000e+00  1.4786458751814178e+00 3.9409649042284047e+00 0.0000000000000000e+00  1.8001596321472479e+00 9.8004184151405855e+00 0.0000000000000000e+00  2.6570194864134318e+00 2.7126257250655740e+01 0.0000000000000000e+00  1.8559451287762145e+00 1.0966142723057482e+01 0.0000000000000000e+00  1.3769040877947405e+00 2.3182031023247478e+00 0.0000000000000000e+00  2.4131962750905824e+00 2.2113903571323068e+01 0.0000000000000000e+00  2.4155347970529899e+00 2.2134092411714590e+01 0.0000000000000000e+00  1.3378068008251554e+00 1.8695359925864070e+00 0.0000000000000000e+00  1.7911881226410571e+00 9.8971333927419174e+00 0.0000000000000000e+00  2.7253244996891146e+00 2.8920058354623496e+01 0.0000000000000000e+00  1.8248827047456546e+00 1.0588709979438351e+01 0.0000000000000000e+00  1.2571887754596343e+00 6.9032819237159726e-01 0.0000000000000000e+00  2.3573408342707056e+00 2.1143660504641140e+01 0.0000000000000000e+00  2.5394855952695732e+00 2.4925431739313844e+01 0.0000000000000000e+00  1.3299821640266423e+00 2.0755456516461330e+00 0.0000000000000000e+00  1.5565649682957929e+00 5.7912936283698970e+00 0.0000000000000000e+00  2.7279511929528955e+00 2.9273274516956651e+01 0.0000000000000000e+00  2.0724680609568624e+00 1.5344936888966910e+01 0.0000000000000000e+00  1.1186314625656704e+00 -9.8931599758558486e-01 0.0000000000000000e+00  1.9945929141549088e+00 1.3877572483348867e+01 0.0000000000000000e+00  2.7770026605675233e+00 3.0510299843967275e+01 0.0000000000000000e+00  1.6124554757117566e+00 6.8854314790711912e+00 0.0000000000000000e+00  1.1597975424351588e+00 -2.4287013778880437e-01 0.0000000000000000e+00  2.3900314261098305e+00 2.1963745756013214e+01 0.0000000000000000e+00  2.5983898348175014e+00 2.6501704372722759e+01 0.0000000000000000e+00  1.2834421741157800e+00 1.6648415624982189e+00 0.0000000000000000e+00  1.3321248616342118e+00 2.3622982145621889e+00 0.0000000000000000e+00  2.6560202854671622e+00 2.7896960265786241e+01 0.0000000000000000e+00  2.3410494927205119e+00 2.0868457480661526e+01 0.0000000000000000e+00  1.0950745492440268e+00 -8.2834893449011615e-01 0.0000000000000000e+00  1.5249651318037496e+00 5.3814522069817441e+00 0.0000000000000000e+00  2.7907362366462873e+00 3.1121362861043835e+01 0.0000000000000000e+00  2.1135919957375804e+00 1.6110630979059632e+01 0.0000000000000000e+00  1.0049319909273682e+00 -1.7763475812337726e+00 0.0000000000000000e+00  1.6772643222585442e+00 7.8991502208817232e+00 0.0000000000000000e+00  2.8433615879625647e+00 3.2468666694401328e+01 0.0000000000000000e+00  1.9529284161083857e+00 1.2914979672036612e+01 0.0000000000000000e+00  9.6884002958089943e-01 -2.0683651749375973e+00 0.0000000000000000e+00  1.7879959933918463e+00 9.8323026509120304e+00 0.0000000000000000e+00  2.8564374212353960e+00 3.2809285250980167e+01 0.0000000000000000e+00  1.8397260868574199e+00 1.0805384533640600e+01 0.0000000000000000e+00  9.7798189522399681e-01 -2.0384990215763938e+00 0.0000000000000000e+00  1.9318985827898896e+00 1.2533584987308920e+01 0.0000000000000000e+00  2.8388787352760998e+00 3.2307028773283868e+01 0.0000000000000000e+00  1.6914487122501944e+00 8.1814802316269635e+00 0.0000000000000000e+00  1.0225935664457986e+00 -1.6696469086145591e+00 0.0000000000000000e+00  2.1436695685974470e+00 1.6762605736018124e+01 0.0000000000000000e+00  2.7814624688825025e+00 3.0906860607239281e+01 0.0000000000000000e+00  1.4967928990062216e+00 4.9162628899632699e+00 0.0000000000000000e+00  1.0665193423646948e+00 -1.0817026314526130e+00 0.0000000000000000e+00  2.3167746528039244e+00 2.0326441802403718e+01 0.0000000000000000e+00  2.6897790999703517e+00 2.8955562675054374e+01 0.0000000000000000e+00  1.3805127574104756e+00 2.4074291880467724e+00 0.0000000000000000e+00  9.3186092477447668e-01 -3.8950949183749822e-01 0.0000000000000000e+00  1.0130951550640745e+00 7.1183240564333963e-02 0.0000000000000000e+00  9.9800513825365544e-01 -1.3560537048301114e-02 0.0000000000000000e+00  9.9964713435962926e-01 4.0059155032818273e-03 0.0000000000000000e+00  1.0009065484204054e+00 -2.3123999851781822e-03 0.0000000000000000e+00  9.9894389904805680e-01 1.5986166914198512e-03 0.0000000000000000e+00  1.0011002006714513e+00 -8.4212749861503470e-04 0.0000000000000000e+00  9.9888963564817279e-01 0.0000000000000000e+00 0.0000000000000000e+00  </DataArray> 
</PointData> 
</Piece>
</UnstructuredGrid>
</VTKFile>