<?xml version="1.0"?>
<VTKFile type="UnstructuredGrid"  version="0.1"  >
<UnstructuredGrid>
<Piece  NumberOfPoints="201" NumberOfCells="200">
<Points>
<DataArray  type="Float64"  NumberOfComponents="3"  format="ascii">-5 0 0  -4.95 0 0  -4.9 0 0  -4.85 0 0  -4.8 0 0  -4.75 0 0  -4.7 0 0  -4.65 0 0  -4.6 0 0  -4.55 0 0  -4.5 0 0  -4.45 0 0  -4.4 0 0  -4.35 0 0  -4.3 0 0  -4.25 0 0  -4.2 0 0  -4.15 0 0  -4.1 0 0  -4.05 0 0  -4 0 0  -3.95 0 0  -3.9 0 0  -3.85 0 0  -3.8 0 0  -3.75 0 0  -3.7 0 0  -3.65 0 0  -3.6 0 0  -3.55 0 0  -3.5 0 0  -3.45 0 0  -3.4 0 0  -3.35 0 0  -3.3 0 0  -3.25 0 0  -3.2 0 0  -3.15 0 0  -3.1 0 0  -3.05 0 0  -3 0 0  -2.95 0 0  -2.9 0 0  -2.85 0 0  -2.8 0 0  -2.75 0 0  -2.7 0 0  -2.65 0 0  -2.6 0 0  -2.55 0 0  -2.5 0 0  -2.45 0 0  -2.4 0 0  -2.35 0 0  -2.3 0 0  -2.25 0 0  -2.2 0 0  -2.15 0 0  -2.1 0 0  -2.05 0 0  -2 0 0  -1.95 0 0  -1.9 0 0  -1.85 0 0  -1.8 0 0  -1.75 0 0  -1.7 0 0  -1.65 0 0  -1.6 0 0  -1.55 0 0  -1.5 0 0  -1.45 0 0  -1.4 0 0  -1.35 0 0  -1.3 0 0  -1.25 0 0  -1.2 0 0  -1.15 0 0  -1.1 0 0  -1.05 0 0  -1 0 0  -0.9500000000000002 0 0  -0.9000000000000004 0 0  -0.8499999999999996 0 0  -0.7999999999999998 0 0  -0.75 0 0  -0.7000000000000002 0 0  -0.6500000000000004 0 0  -0.5999999999999996 0 0  -0.5499999999999998 0 0  -0.5 0 0  -0.4500000000000002 0 0  -0.4000000000000004 0 0  -0.3499999999999996 0 0  -0.2999999999999998 0 0  -0.25 0 0  -0.2000000000000002 0 0  -0.1500000000000004 0 0  -0.09999999999999964 0 0  -0.04999999999999982 0 0  0 0 0  0.04999999999999982 0 0  0.09999999999999964 0 0  0.1500000000000004 0 0  0.2000000000000002 0 0  0.25 0 0  0.2999999999999998 0 0  0.3499999999999996 0 0  0.4000000000000004 0 0  0.4500000000000002 0 0  0.5 0 0  0.5499999999999998 0 0  0.5999999999999996 0 0  0.6500000000000004 0 0  0.7000000000000002 0 0  0.75 0 0  0.7999999999999998 0 0  0.8499999999999996 0 0  0.9000000000000004 0 0  0.9500000000000002 0 0  1 0 0  1.05 0 0  1.1 0 0  1.15 0 0  1.2 0 0  1.25 0 0  1.3 0 0  1.35 0 0  1.4 0 0  1.45 0 0  1.5 0 0  1.55 0 0  1.6 0 0  1.65 0 0  1.7 0 0  1.75 0 0  1.8 0 0  1.85 0 0  1.9 0 0  1.95 0 0  2 0 0  2.05 0 0  2.1 0 0  2.15 0 0  2.2 0 0  2.25 0 0  2.3 0 0  2.35 0 0  2.4 0 0  2.45 0 0  2.5 0 0  2.55 0 0  2.6 0 0  2.65 0 0  2.7 0 0  2.75 0 0  2.8 0 0  2.85 0 0  2.9 0 0  2.95 0 0  3 0 0  3.050000000000001 0 0  3.1 0 0  3.15 0 0  3.199999999999999 0 0  3.25 0 0  3.300000000000001 0 0  3.35 0 0  3.4 0 0  3.449999999999999 0 0  3.5 0 0  3.550000000000001 0 0  3.6 0 0  3.65 0 0  3.699999999999999 0 0  3.75 0 0  3.800000000000001 0 0  3.85 0 0  3.9 0 0  3.949999999999999 0 0  4 0 0  4.050000000000001 0 0  4.1 0 0  4.15 0 0  4.199999999999999 0 0  4.25 0 0  4.300000000000001 0 0  4.35 0 0  4.4 0 0  4.449999999999999 0 0  4.5 0 0  4.550000000000001 0 0  4.6 0 0  4.65 0 0  4.699999999999999 0 0  4.75 0 0  4.800000000000001 0 0  4.85 0 0  4.9 0 0  4.949999999999999 0 0  5 0 0  </DataArray>
</Points>
<Cells>
<DataArray  type="UInt32"  Name="connectivity"  format="ascii">0 1  1 2  2 3  3 4  4 5  5 6  6 7  7 8  8 9  9 10  10 11  11 12  12 13  13 14  14 15  15 16  16 17  17 18  18 19  19 20  20 21  21 22  22 23  23 24  24 25  25 26  26 27  27 28  28 29  29 30  30 31  31 32  32 33  33 34  34 35  35 36  36 37  37 38  38 39  39 40  40 41  41 42  42 43  43 44  44 45  45 46  46 47  47 48  48 49  49 50  50 51  51 52  52 53  53 54  54 55  55 56  56 57  57 58  58 59  59 60  60 61  61 62  62 63  63 64  64 65  65 66  66 67  67 68  68 69  69 70  70 71  71 72  72 73  73 74  74 75  75 76  76 77  77 78  78 79  79 80  80 81  81 82  82 83  83 84  84 85  85 86  86 87  87 88  88 89  89 90  90 91  91 92  92 93  93 94  94 95  95 96  96 97  97 98  98 99  99 100  100 101  101 102  102 103  103 104  104 105  105 106  106 107  107 108  108 109  109 110  110 111  111 112  112 113  113 114  114 115  115 116  116 117  117 118  118 119  119 120  120 121  121 122  122 123  123 124  124 125  125 126  126 127  127 128  128 129  129 130  130 131  131 132  132 133  133 134  134 135  135 136  136 137  137 138  138 139  139 140  140 141  141 142  142 143  143 144  144 145  145 146  146 147  147 148  148 149  149 150  150 151  151 152  152 153  153 154  154 155  155 156  156 157  157 158  158 159  159 160  160 161  161 162  162 163  163 164  164 165  165 166  166 167  167 168  168 169  169 170  170 171  171 172  172 173  173 174  174 175  175 176  176 177  177 178  178 179  179 180  180 181  181 182  182 183  183 184  184 185  185 186  186 187  187 188  188 189  189 190  190 191  191 192  192 193  193 194  194 195  195 196  196 197  197 198  198 199  199 200  </DataArray>
<DataArray  type="UInt32"  Name="offsets"  format="ascii">2 4 6 8 10 12 14 16 18 20 22 24 26 28 30 32 34 36 38 40 42 44 46 48 50 52 54 56 58 60 62 64 66 68 70 72 74 76 78 80 82 84 86 88 90 92 94 96 98 100 102 104 106 108 110 112 114 116 118 120 122 124 126 128 130 132 134 136 138 140 142 144 146 148 150 152 154 156 158 160 162 164 166 168 170 172 174 176 178 180 182 184 186 188 190 192 194 196 198 200 202 204 206 208 210 212 214 216 218 220 222 224 226 228 230 232 234 236 238 240 242 244 246 248 250 252 254 256 258 260 262 264 266 268 270 272 274 276 278 280 282 284 286 288 290 292 294 296 298 300 302 304 306 308 310 312 314 316 318 320 322 324 326 328 330 332 334 336 338 340 342 344 346 348 350 352 354 356 358 360 362 364 366 368 370 372 374 376 378 380 382 384 386 388 390 392 394 396 398 400 </DataArray>
<DataArray  type="UInt8"  Name="types"  format="ascii">3 3 3 3 3 3 3 3 3 3 3 3 3 3 3 3 3 3 3 3 3 3 3 3 3 3 3 3 3 3 3 3 3 3 3 3 3 3 3 3 3 3 3 3 3 3 3 3 3 3 3 3 3 3 3 3 3 3 3 3 3 3 3 3 3 3 3 3 3 3 3 3 3 3 3 3 3 3 3 3 3 3 3 3 3 3 3 3 3 3 3 3 3 3 3 3 3 3 3 3 3 3 3 3 3 3 3 3 3 3 3 3 3 3 3 3 3 3 3 3 3 3 3 3 3 3 3 3 3 3 3 3 3 3 3 3 3 3 3 3 3 3 3 3 3 3 3 3 3 3 3 3 3 3 3 3 3 3 3 3 3 3 3 3 3 3 3 3 3 3 3 3 3 3 3 3 3 3 3 3 3 3 3 3 3 3 3 3 3 3 3 3 3 3 3 3 3 3 3 3 </DataArray>
</Cells>
<PointData  Vectors="(s, w)"> 
<DataArray  type="Float64"  Name="(s, w)"  NumberOfComponents="3" format="ascii">3.1504578614799259e+00 0.0000000000000000e+00 0.0000000000000000e+00  3.1742626576388480e+00 4.3420513370783259e-02 0.0000000000000000e+00  3.1497779687431589e+00 -8.7757491068845728e-02 0.0000000000000000e+00  3.1756224016249259e+00 1.3305772210848471e-01 0.0000000000000000e+00  3.1477449618407292e+00 -1.8106513775454322e-01 0.0000000000000000e+00  3.1783254229079034e+00 2.3058572706379832e-01 0.0000000000000000e+00  3.1443922611758497e+00 -2.8447196054438573e-01 0.0000000000000000e+00  3.1823122478851187e+00 3.3954940703462227e-01 0.0000000000000000e+00  3.1398189295688206e+00 -4.0041042025279344e-01 0.0000000000000000e+00  3.1874301224481187e+00 4.6075630524554489e-01 0.0000000000000000e+00  3.1342492897835665e+00 -5.2791897253603470e-01 0.0000000000000000e+00  3.1933661484850151e+00 5.9097526967900926e-01 0.0000000000000000e+00  3.1281029762387815e+00 -6.6128993477771070e-01 0.0000000000000000e+00  3.1995778446961820e+00 7.2170572003636035e-01 0.0000000000000000e+00  3.1220570372150931e+00 -7.8892906205351387e-01 0.0000000000000000e+00  3.2052444082817018e+00 8.3840527035801526e-01 0.0000000000000000e+00  3.1170720461232704e+00 -8.9294943119856274e-01 0.0000000000000000e+00  3.2092716140604676e+00 9.2076037467583882e-01 0.0000000000000000e+00  3.1143460589963250e+00 -9.5022630861005930e-01 0.0000000000000000e+00  3.2103888927007298e+00 9.4469496957215615e-01 0.0000000000000000e+00  3.1151592336344422e+00 -9.3568389410004260e-01 0.0000000000000000e+00  3.2073716181857166e+00 8.8672340747788547e-01 0.0000000000000000e+00  3.1205857766424532e+00 -8.2828730675319606e-01 0.0000000000000000e+00  3.1993963138787582e+00 7.3082851763451195e-01 0.0000000000000000e+00  3.1310869175270377e+00 -6.1939190779237929e-01 0.0000000000000000e+00  3.1864844804383106e+00 4.7714367992293821e-01 0.0000000000000000e+00  3.1460628520221050e+00 -3.2171627871594682e-01 0.0000000000000000e+00  3.1699146037853865e+00 1.5029119625740334e-01 0.0000000000000000e+00  3.1635232877525277e+00 2.4421000985300319e-02 0.0000000000000000e+00  3.1524042685750455e+00 -1.9644631118398762e-01 0.0000000000000000e+00  3.1801011652302531e+00 3.5199315994444408e-01 0.0000000000000000e+00  3.1378327808582491e+00 -4.8597944201504611e-01 0.0000000000000000e+00  3.1916247068051615e+00 5.7902885360765355e-01 0.0000000000000000e+00  3.1303472494530395e+00 -6.3507218149476119e-01 0.0000000000000000e+00  3.1943228749682890e+00 6.3203955102566189e-01 0.0000000000000000e+00  3.1329066017514777e+00 -5.8411126442996031e-01 0.0000000000000000e+00  3.1864530690400228e+00 4.7697105842269272e-01 0.0000000000000000e+00  3.1456497973476405e+00 -3.3061953359727042e-01 0.0000000000000000e+00  3.1697669535797508e+00 1.4746806208685892e-01 0.0000000000000000e+00  3.1648296026591183e+00 4.9729773439622635e-02 0.0000000000000000e+00  3.1499378427921108e+00 -2.4551753045621771e-01 0.0000000000000000e+00  3.1832170076399975e+00 4.1298928422084585e-01 0.0000000000000000e+00  3.1351434208209095e+00 -5.3975351525219128e-01 0.0000000000000000e+00  3.1925433021713747e+00 5.9667158664943476e-01 0.0000000000000000e+00  3.1326877935380262e+00 -5.8876483864487450e-01 0.0000000000000000e+00  3.1875382141032915e+00 4.9798109292793957e-01 0.0000000000000000e+00  3.1447891687115836e+00 -3.4809572168388708e-01 0.0000000000000000e+00  3.1697474464880258e+00 1.4666021547179386e-01 0.0000000000000000e+00  3.1658893107622879e+00 7.0281270651733563e-02 0.0000000000000000e+00  3.1484214299929350e+00 -2.7606964989811972e-01 0.0000000000000000e+00  3.1840885363495670e+00 4.2972884873097067e-01 0.0000000000000000e+00  3.1364696137530976e+00 -5.1382749308922615e-01 0.0000000000000000e+00  3.1875688922519094e+00 4.9816579667646188e-01 0.0000000000000000e+00  3.1423538233778743e+00 -3.9699430107422579e-01 0.0000000000000000e+00  3.1731697993371668e+00 2.1373034563231380e-01 0.0000000000000000e+00  3.1627107263506491e+00 6.6698219415841052e-03 0.0000000000000000e+00  3.1508468516027253e+00 -2.2871019781561003e-01 0.0000000000000000e+00  3.1823611974496746e+00 3.9476070278400233e-01 0.0000000000000000e+00  3.1382959578031522e+00 -4.7852645451116316e-01 0.0000000000000000e+00  3.1848159157737341e+00 4.4273995372988995e-01 0.0000000000000000e+00  3.1467839876023116e+00 -3.1011648579787582e-01 0.0000000000000000e+00  3.1672854775725656e+00 9.6736545087314899e-02 0.0000000000000000e+00  3.1689110514261727e+00 1.3078788568010230e-01 0.0000000000000000e+00  3.1461731542602278e+00 -3.1411215452816821e-01 0.0000000000000000e+00  3.1820691002328858e+00 4.1178801948706018e-01 0.0000000000000000e+00  3.1426237021682395e+00 -3.3311433708400345e-01 0.0000000000000000e+00  3.1690733833450460e+00 2.6852226528219125e-01 0.0000000000000000e+00  3.1562777079385556e+00 1.6795816913249426e-01 0.0000000000000000e+00  3.1360573115736687e+00 3.6889488165084999e-02 0.0000000000000000e+00  3.1555034713833745e+00 8.5588463840562823e-01 0.0000000000000000e+00  3.1040301101804482e+00 4.6714401796811000e-01 0.0000000000000000e+00  3.1082739786794211e+00 1.3784574174887416e+00 0.0000000000000000e+00  3.0780082326504603e+00 1.7872970910814401e+00 0.0000000000000000e+00  3.0295677974330051e+00 1.9580586706285295e+00 0.0000000000000000e+00  3.0296529999175945e+00 3.1780366558883646e+00 0.0000000000000000e+00  2.9684848217717215e+00 3.2306117180844973e+00 0.0000000000000000e+00  2.9401984434014770e+00 3.9489372555445148e+00 0.0000000000000000e+00  2.9247320107500365e+00 4.9314400679655988e+00 0.0000000000000000e+00  2.8559888880746445e+00 4.8517105527929090e+00 0.0000000000000000e+00  2.8448745928380657e+00 5.8989940546246951e+00 0.0000000000000000e+00  2.8115439217543114e+00 6.5011251950765345e+00 0.0000000000000000e+00  2.7486828153436043e+00 6.4934016235394028e+00 0.0000000000000000e+00  2.7435981041446955e+00 7.6150962632088506e+00 0.0000000000000000e+00  2.7002182684291496e+00 7.9631200274601133e+00 0.0000000000000000e+00  2.6435913021686486e+00 8.0238463256926522e+00 0.0000000000000000e+00  2.6390616097184334e+00 9.0979290181170160e+00 0.0000000000000000e+00  2.5929946583380903e+00 9.3352060020301533e+00 0.0000000000000000e+00  2.5408173630514161e+00 9.4246170556684987e+00 0.0000000000000000e+00  2.5290546428836600e+00 1.0298239082209721e+01 0.0000000000000000e+00  2.4939105967695667e+00 1.0691814664087614e+01 0.0000000000000000e+00  2.4398025794477203e+00 1.0689769605890596e+01 0.0000000000000000e+00  2.4096334286539651e+00 1.1137808676223312e+01 0.0000000000000000e+00  2.4058917995496527e+00 1.2100112040822889e+01 0.0000000000000000e+00  2.3457095554568208e+00 1.1924197614285765e+01 0.0000000000000000e+00  2.2688402966438281e+00 1.1393650956964356e+01 0.0000000000000000e+00  2.3339961460415721e+00 1.3661202771104776e+01 0.0000000000000000e+00  2.2673200008959982e+00 1.3322075103716195e+01 0.0000000000000000e+00  2.0943031051282803e+00 1.0831062345891866e+01 0.0000000000000000e+00  2.2692570350535703e+00 1.5249747918996045e+01 0.0000000000000000e+00  2.2211165259768717e+00 1.5302962151180195e+01 0.0000000000000000e+00  1.8556404299579214e+00 9.6941213950515728e+00 0.0000000000000000e+00  2.1814258503517463e+00 1.6046835412257778e+01 0.0000000000000000e+00  2.2571444644696284e+00 1.7922601465875211e+01 0.0000000000000000e+00  1.7726488766458166e+00 8.0156227552773931e+00 0.0000000000000000e+00  2.0905168374501391e+00 1.4724618366797660e+01 0.0000000000000000e+00  2.3957182946090780e+00 2.0638422744629615e+01 0.0000000000000000e+00  1.7268808205731896e+00 7.8930289483001470e+00 0.0000000000000000e+00  1.9149252481356849e+00 1.1367367099546343e+01 0.0000000000000000e+00  2.5068178079553070e+00 2.3445836333106854e+01 0.0000000000000000e+00  1.8293062380614511e+00 1.0003761306852143e+01 0.0000000000000000e+00  1.6318818984571331e+00 6.3946589598618102e+00 0.0000000000000000e+00  2.5220080676005612e+00 2.4009850474734666e+01 0.0000000000000000e+00  2.1183654729583141e+00 1.5965258301867765e+01 0.0000000000000000e+00  1.3715158127512446e+00 1.9913389382371107e+00 0.0000000000000000e+00  2.2051733667605959e+00 1.7954315590722249e+01 0.0000000000000000e+00  2.5789974164020482e+00 2.5484876921829251e+01 0.0000000000000000e+00  1.4401835187436745e+00 3.8723957402592437e+00 0.0000000000000000e+00  1.5184894728233329e+00 4.9759227871067777e+00 0.0000000000000000e+00  2.6952904589129476e+00 2.8654261504080029e+01 0.0000000000000000e+00  2.1465267992189534e+00 1.6713027120403115e+01 0.0000000000000000e+00  1.0840518173294926e+00 -1.1662833163747008e+00 0.0000000000000000e+00  1.8299177133192774e+00 1.0692521125532545e+01 0.0000000000000000e+00  2.8361901705919417e+00 3.2212406280833193e+01 0.0000000000000000e+00  1.7945711288727406e+00 9.9181274452986266e+00 0.0000000000000000e+00  9.8094212203886055e-01 -1.9519796230798674e+00 0.0000000000000000e+00  1.9739342090082921e+00 1.3267628372065683e+01 0.0000000000000000e+00  2.8324509629280228e+00 3.2364622594578137e+01 0.0000000000000000e+00  1.6843216986523002e+00 7.4932049373940268e+00 0.0000000000000000e+00  9.3380540421079816e-01 -1.1599570063873388e+00 0.0000000000000000e+00  1.0061635014373762e+00 2.5765551036833584e-01 0.0000000000000000e+00  9.9942403737812269e-01 -4.9616545980568756e-02 0.0000000000000000e+00  1.0012908183043538e+00 1.5891159153549204e-03 0.0000000000000000e+00  9.9827459442758204e-01 9.0716016178318468e-03 0.0000000000000000e+00  1.0016726644901843e+00 -1.0153334700305877e-02 0.0000000000000000e+00  9.9858502292183338e-01 8.8099861642868781e-03 0.0000000000000000e+00  1.0011174046846698e+00 -6.9854175086674413e-03 0.0000000000000000e+00  9.9915417623092173e-01 5.2971835065211501e-03 0.0000000000000000e+00  1.0006214518771059e+00 -3.8910784165281241e-03 0.0000000000000000e+00  9.9955416613571324e-01 2.7926618577603854e-03 0.0000000000000000e+00  1.0003134774753675e+00 -1.9631326400152177e-03 0.0000000000000000e+00  9.9978349319641580e-01 1.3561002642524414e-03 0.0000000000000000e+00  1.0001471443209256e+00 -9.2153770118643232e-04 0.0000000000000000e+00  9.9990146811282465e-01 6.1713580861077252e-04 0.0000000000000000e+00  1.0000650823868009e+00 -4.0761001267529271e-04 0.0000000000000000e+00  9.9995755781914553e-01 2.6582377043890857e-04 0.0000000000000000e+00  1.0000273487304454e+00 -1.7128676131137168e-04 0.0000000000000000e+00  9.9998257444075844e-01 1.0913885736584959e-04 0.0000000000000000e+00  1.0000109856081758e+00 -6.8803886392584723e-05 0.0000000000000000e+00  9.9999314362605884e-01 4.2942343295560791e-05 0.0000000000000000e+00  1.0000042385956511e+00 -2.6546774598008259e-05 0.0000000000000000e+00  9.9999740337840570e-01 1.6262950438663239e-05 0.0000000000000000e+00  1.0000015770303701e+00 -9.8771166935004899e-06 0.0000000000000000e+00  9.9999905008273027e-01 5.9494420691097765e-06 0.0000000000000000e+00  1.0000005676784502e+00 -3.5554343824523803e-06 0.0000000000000000e+00  9.9999966330674162e-01 2.1087485530639794e-06 0.0000000000000000e+00  1.0000001982512414e+00 -1.2416701046497351e-06 0.0000000000000000e+00  9.9999988407649254e-01 7.2604219261553457e-07 0.0000000000000000e+00  1.0000000673313698e+00 -4.2170405025929600e-07 0.0000000000000000e+00  9.9999996114362033e-01 2.4336194903463513e-07 0.0000000000000000e+00  1.0000000222847589e+00 -1.3957199568494778e-07 0.0000000000000000e+00  9.9999998729572803e-01 7.9568310204686611e-08 0.0000000000000000e+00  1.0000000072007502e+00 -4.5099121866166854e-08 0.0000000000000000e+00  9.9999999594139821e-01 2.5419487105880499e-08 0.0000000000000000e+00  1.0000000022752338e+00 -1.4250041680932256e-08 0.0000000000000000e+00  9.9999999873117595e-01 7.9467871528455467e-09 0.0000000000000000e+00  1.0000000007040037e+00 -4.4092554068941363e-09 0.0000000000000000e+00  9.9999999961130071e-01 2.4344701122288647e-09 0.0000000000000000e+00  1.0000000002135907e+00 -1.3377472811267155e-09 0.0000000000000000e+00  9.9999999988317345e-01 7.3170422299048141e-10 0.0000000000000000e+00  1.0000000000636151e+00 -3.9842511300704143e-10 0.0000000000000000e+00  9.9999999996551248e-01 2.1600207370608068e-10 0.0000000000000000e+00  1.0000000000186187e+00 -1.1660855907137075e-10 0.0000000000000000e+00  9.9999999998999012e-01 6.2693681146043808e-11 0.0000000000000000e+00  1.0000000000053606e+00 -3.3568582568696587e-11 0.0000000000000000e+00  9.9999999999714118e-01 1.7905480988415864e-11 0.0000000000000000e+00  1.0000000000015190e+00 -9.5135521973053817e-12 0.0000000000000000e+00  9.9999999999919575e-01 5.0364784254955570e-12 0.0000000000000000e+00  1.0000000000004245e+00 -2.6562466302494301e-12 0.0000000000000000e+00  9.9999999999977807e-01 1.3994304468196160e-12 0.0000000000000000e+00  1.0000000000001166e+00 -7.3447466157843291e-13 0.0000000000000000e+00  9.9999999999993905e-01 3.8480503541206150e-13 0.0000000000000000e+00  1.0000000000000318e+00 -2.0113710903089528e-13 0.0000000000000000e+00  9.9999999999998357e-01 1.0441105945688605e-13 0.0000000000000000e+00  1.0000000000000093e+00 -5.5245665509735281e-14 0.0000000000000000e+00  9.9999999999999556e-01 2.7888146044359085e-14 0.0000000000000000e+00  1.0000000000000020e+00 -1.2889988720978567e-14 0.0000000000000000e+00  9.9999999999999933e-01 7.0165719097403732e-15 0.0000000000000000e+00  1.0000000000000004e+00 -4.2840526109316915e-15 0.0000000000000000e+00  1.0000000000000004e+00 2.7468825657207614e-15 0.0000000000000000e+00  9.9999999999999978e-01 -7.3752065500450024e-16 0.0000000000000000e+00  1.0000000000000000e+00 2.7602859394140117e-15 0.0000000000000000e+00  1.0000000000000000e+00 2.0715168896004952e-15 0.0000000000000000e+00  9.9999999999999978e-01 1.6714134141852385e-15 0.0000000000000000e+00  1.0000000000000000e+00 -3.5447624616875593e-16 0.0000000000000000e+00  9.9999999999999956e-01 -7.4031328679445858e-17 0.0000000000000000e+00  1.0000000000000002e+00 -8.2948309228732868e-16 0.0000000000000000e+00  1.0000000000000004e+00 1.3535273453139047e-15 0.0000000000000000e+00  1.0000000000000002e+00 4.8894477725104806e-15 0.0000000000000000e+00  1.0000000000000000e+00 -1.4167174344815726e-15 0.0000000000000000e+00  9.9999999999999989e-01 -3.0176650783817388e-16 0.0000000000000000e+00  1.0000000000000000e+00 0.0000000000000000e+00 0.0000000000000000e+00  </DataArray> 
</PointData> 
</Piece>
</UnstructuredGrid>
</VTKFile>