<?xml version="1.0"?>
<VTKFile type="UnstructuredGrid"  version="0.1"  >
<UnstructuredGrid>
<Piece  NumberOfPoints="201" NumberOfCells="200">
<Points>
<DataArray  type="Float64"  NumberOfComponents="3"  format="ascii">-5 0 0  -4.95 0 0  -4.9 0 0  -4.85 0 0  -4.8 0 0  -4.75 0 0  -4.7 0 0  -4.65 0 0  -4.6 0 0  -4.55 0 0  -4.5 0 0  -4.45 0 0  -4.4 0 0  -4.35 0 0  -4.3 0 0  -4.25 0 0  -4.2 0 0  -4.15 0 0  -4.1 0 0  -4.05 0 0  -4 0 0  -3.95 0 0  -3.9 0 0  -3.85 0 0  -3.8 0 0  -3.75 0 0  -3.7 0 0  -3.65 0 0  -3.6 0 0  -3.55 0 0  -3.5 0 0  -3.45 0 0  -3.4 0 0  -3.35 0 0  -3.3 0 0  -3.25 0 0  -3.2 0 0  -3.15 0 0  -3.1 0 0  -3.05 0 0  -3 0 0  -2.95 0 0  -2.9 0 0  -2.85 0 0  -2.8 0 0  -2.75 0 0  -2.7 0 0  -2.65 0 0  -2.6 0 0  -2.55 0 0  -2.5 0 0  -2.45 0 0  -2.4 0 0  -2.35 0 0  -2.3 0 0  -2.25 0 0  -2.2 0 0  -2.15 0 0  -2.1 0 0  -2.05 0 0  -2 0 0  -1.95 0 0  -1.9 0 0  -1.85 0 0  -1.8 0 0  -1.75 0 0  -1.7 0 0  -1.65 0 0  -1.6 0 0  -1.55 0 0  -1.5 0 0  -1.45 0 0  -1.4 0 0  -1.35 0 0  -1.3 0 0  -1.25 0 0  -1.2 0 0  -1.15 0 0  -1.1 0 0  -1.05 0 0  -1 0 0  -0.9500000000000002 0 0  -0.9000000000000004 0 0  -0.8499999999999996 0 0  -0.7999999999999998 0 0  -0.75 0 0  -0.7000000000000002 0 0  -0.6500000000000004 0 0  -0.5999999999999996 0 0  -0.5499999999999998 0 0  -0.5 0 0  -0.4500000000000002 0 0  -0.4000000000000004 0 0  -0.3499999999999996 0 0  -0.2999999999999998 0 0  -0.25 0 0  -0.2000000000000002 0 0  -0.1500000000000004 0 0  -0.09999999999999964 0 0  -0.04999999999999982 0 0  0 0 0  0.04999999999999982 0 0  0.09999999999999964 0 0  0.1500000000000004 0 0  0.2000000000000002 0 0  0.25 0 0  0.2999999999999998 0 0  0.3499999999999996 0 0  0.4000000000000004 0 0  0.4500000000000002 0 0  0.5 0 0  0.5499999999999998 0 0  0.5999999999999996 0 0  0.6500000000000004 0 0  0.7000000000000002 0 0  0.75 0 0  0.7999999999999998 0 0  0.8499999999999996 0 0  0.9000000000000004 0 0  0.9500000000000002 0 0  1 0 0  1.05 0 0  1.1 0 0  1.15 0 0  1.2 0 0  1.25 0 0  1.3 0 0  1.35 0 0  1.4 0 0  1.45 0 0  1.5 0 0  1.55 0 0  1.6 0 0  1.65 0 0  1.7 0 0  1.75 0 0  1.8 0 0  1.85 0 0  1.9 0 0  1.95 0 0  2 0 0  2.05 0 0  2.1 0 0  2.15 0 0  2.2 0 0  2.25 0 0  2.3 0 0  2.35 0 0  2.4 0 0  2.45 0 0  2.5 0 0  2.55 0 0  2.6 0 0  2.65 0 0  2.7 0 0  2.75 0 0  2.8 0 0  2.85 0 0  2.9 0 0  2.95 0 0  3 0 0  3.050000000000001 0 0  3.1 0 0  3.15 0 0  3.199999999999999 0 0  3.25 0 0  3.300000000000001 0 0  3.35 0 0  3.4 0 0  3.449999999999999 0 0  3.5 0 0  3.550000000000001 0 0  3.6 0 0  3.65 0 0  3.699999999999999 0 0  3.75 0 0  3.800000000000001 0 0  3.85 0 0  3.9 0 0  3.949999999999999 0 0  4 0 0  4.050000000000001 0 0  4.1 0 0  4.15 0 0  4.199999999999999 0 0  4.25 0 0  4.300000000000001 0 0  4.35 0 0  4.4 0 0  4.449999999999999 0 0  4.5 0 0  4.550000000000001 0 0  4.6 0 0  4.65 0 0  4.699999999999999 0 0  4.75 0 0  4.800000000000001 0 0  4.85 0 0  4.9 0 0  4.949999999999999 0 0  5 0 0  </DataArray>
</Points>
<Cells>
<DataArray  type="UInt32"  Name="connectivity"  format="ascii">0 1  1 2  2 3  3 4  4 5  5 6  6 7  7 8  8 9  9 10  10 11  11 12  12 13  13 14  14 15  15 16  16 17  17 18  18 19  19 20  20 21  21 22  22 23  23 24  24 25  25 26  26 27  27 28  28 29  29 30  30 31  31 32  32 33  33 34  34 35  35 36  36 37  37 38  38 39  39 40  40 41  41 42  42 43  43 44  44 45  45 46  46 47  47 48  48 49  49 50  50 51  51 52  52 53  53 54  54 55  55 56  56 57  57 58  58 59  59 60  60 61  61 62  62 63  63 64  64 65  65 66  66 67  67 68  68 69  69 70  70 71  71 72  72 73  73 74  74 75  75 76  76 77  77 78  78 79  79 80  80 81  81 82  82 83  83 84  84 85  85 86  86 87  87 88  88 89  89 90  90 91  91 92  92 93  93 94  94 95  95 96  96 97  97 98  98 99  99 100  100 101  101 102  102 103  103 104  104 105  105 106  106 107  107 108  108 109  109 110  110 111  111 112  112 113  113 114  114 115  115 116  116 117  117 118  118 119  119 120  120 121  121 122  122 123  123 124  124 125  125 126  126 127  127 128  128 129  129 130  130 131  131 132  132 133  133 134  134 135  135 136  136 137  137 138  138 139  139 140  140 141  141 142  142 143  143 144  144 145  145 146  146 147  147 148  148 149  149 150  150 151  151 152  152 153  153 154  154 155  155 156  156 157  157 158  158 159  159 160  160 161  161 162  162 163  163 164  164 165  165 166  166 167  167 168  168 169  169 170  170 171  171 172  172 173  173 174  174 175  175 176  176 177  177 178  178 179  179 180  180 181  181 182  182 183  183 184  184 185  185 186  186 187  187 188  188 189  189 190  190 191  191 192  192 193  193 194  194 195  195 196  196 197  197 198  198 199  199 200  </DataArray>
<DataArray  type="UInt32"  Name="offsets"  format="ascii">2 4 6 8 10 12 14 16 18 20 22 24 26 28 30 32 34 36 38 40 42 44 46 48 50 52 54 56 58 60 62 64 66 68 70 72 74 76 78 80 82 84 86 88 90 92 94 96 98 100 102 104 106 108 110 112 114 116 118 120 122 124 126 128 130 132 134 136 138 140 142 144 146 148 150 152 154 156 158 160 162 164 166 168 170 172 174 176 178 180 182 184 186 188 190 192 194 196 198 200 202 204 206 208 210 212 214 216 218 220 222 224 226 228 230 232 234 236 238 240 242 244 246 248 250 252 254 256 258 260 262 264 266 268 270 272 274 276 278 280 282 284 286 288 290 292 294 296 298 300 302 304 306 308 310 312 314 316 318 320 322 324 326 328 330 332 334 336 338 340 342 344 346 348 350 352 354 356 358 360 362 364 366 368 370 372 374 376 378 380 382 384 386 388 390 392 394 396 398 400 </DataArray>
<DataArray  type="UInt8"  Name="types"  format="ascii">3 3 3 3 3 3 3 3 3 3 3 3 3 3 3 3 3 3 3 3 3 3 3 3 3 3 3 3 3 3 3 3 3 3 3 3 3 3 3 3 3 3 3 3 3 3 3 3 3 3 3 3 3 3 3 3 3 3 3 3 3 3 3 3 3 3 3 3 3 3 3 3 3 3 3 3 3 3 3 3 3 3 3 3 3 3 3 3 3 3 3 3 3 3 3 3 3 3 3 3 3 3 3 3 3 3 3 3 3 3 3 3 3 3 3 3 3 3 3 3 3 3 3 3 3 3 3 3 3 3 3 3 3 3 3 3 3 3 3 3 3 3 3 3 3 3 3 3 3 3 3 3 3 3 3 3 3 3 3 3 3 3 3 3 3 3 3 3 3 3 3 3 3 3 3 3 3 3 3 3 3 3 3 3 3 3 3 3 3 3 3 3 3 3 3 3 3 3 3 3 </DataArray>
</Cells>
<PointData  Vectors="(s, w)"> 
<DataArray  type="Float64"  Name="(s, w)"  NumberOfComponents="3" format="ascii">3.1695225194578724e+00 0.0000000000000000e+00 0.0000000000000000e+00  3.1562241246566756e+00 1.8685450164251419e-01 0.0000000000000000e+00  3.1645387740481232e+00 -3.0347674624817716e-01 0.0000000000000000e+00  3.1650304204923025e+00 3.4852611320421978e-01 0.0000000000000000e+00  3.1549509117966048e+00 -2.6188056998597925e-01 0.0000000000000000e+00  3.1728059733982379e+00 1.1510212079098271e-01 0.0000000000000000e+00  3.1501871733786988e+00 9.6053846219972497e-02 0.0000000000000000e+00  3.1714101867411171e+00 -2.3974250411635628e-01 0.0000000000000000e+00  3.1524728411611513e+00 3.9511760829155190e-01 0.0000000000000000e+00  3.1624936268243142e+00 -2.7110469164389123e-01 0.0000000000000000e+00  3.1550865839389726e+00 3.3845442963037103e-01 0.0000000000000000e+00  3.1521865925387318e+00 1.5734803194070768e-01 0.0000000000000000e+00  3.1510256827920271e+00 8.1076899056715321e-02 0.0000000000000000e+00  3.1413690690548912e+00 7.1771870269236915e-01 0.0000000000000000e+00  3.1396076492721905e+00 1.0339203454257123e-01 0.0000000000000000e+00  3.1266949141779921e+00 9.8518905952956903e-01 0.0000000000000000e+00  3.1223633884851330e+00 6.6358733247573720e-01 0.0000000000000000e+00  3.1098177686195450e+00 9.5319511483617558e-01 0.0000000000000000e+00  3.0971535816905544e+00 1.4530507494554863e+00 0.0000000000000000e+00  3.0965877004254030e+00 1.0662074556805810e+00 0.0000000000000000e+00  3.0648397573547350e+00 1.9492150195526126e+00 0.0000000000000000e+00  3.0830219987698837e+00 1.6334796431721730e+00 0.0000000000000000e+00  3.0387272477846250e+00 2.0821980093876062e+00 0.0000000000000000e+00  3.0541592114172400e+00 2.3954696987224406e+00 0.0000000000000000e+00  3.0306602731303820e+00 2.2686924028980897e+00 0.0000000000000000e+00  3.0097637910569861e+00 2.9312605148610262e+00 0.0000000000000000e+00  3.0256659941505633e+00 2.7345661482122492e+00 0.0000000000000000e+00  2.9767105852800788e+00 3.2595967397918821e+00 0.0000000000000000e+00  2.9952737804554106e+00 3.2652653116547801e+00 0.0000000000000000e+00  2.9721037327857531e+00 3.6078982424448016e+00 0.0000000000000000e+00  2.9445649956022693e+00 3.7588902114629592e+00 0.0000000000000000e+00  2.9699507658184880e+00 3.8980132605995528e+00 0.0000000000000000e+00  2.9110183391085696e+00 4.3623407075820131e+00 0.0000000000000000e+00  2.9392412684980247e+00 4.1068333194775217e+00 0.0000000000000000e+00  2.9042779411362591e+00 4.8643960297737845e+00 0.0000000000000000e+00  2.8944757448124214e+00 4.6446842114826037e+00 0.0000000000000000e+00  2.8947046621732149e+00 4.9056308932504011e+00 0.0000000000000000e+00  2.8635014043329625e+00 5.5299162031563025e+00 0.0000000000000000e+00  2.8707226878623113e+00 4.9299091088659344e+00 0.0000000000000000e+00  2.8411415556112209e+00 5.9903489797182301e+00 0.0000000000000000e+00  2.8442858353430047e+00 5.6074180436696368e+00 0.0000000000000000e+00  2.8219708657687144e+00 5.8648261596126305e+00 0.0000000000000000e+00  2.8071918556486932e+00 6.4699139287857106e+00 0.0000000000000000e+00  2.8169949736591922e+00 6.0254869829312900e+00 0.0000000000000000e+00  2.7625268414731678e+00 6.7570797942356329e+00 0.0000000000000000e+00  2.8016257485531253e+00 6.6594673316427295e+00 0.0000000000000000e+00  2.7495744354005520e+00 6.8583587676924607e+00 0.0000000000000000e+00  2.7465658322952797e+00 7.1658515868989801e+00 0.0000000000000000e+00  2.7605939525842782e+00 7.1526463344776019e+00 0.0000000000000000e+00  2.6990007541410423e+00 7.6272620174129386e+00 0.0000000000000000e+00  2.7352369420231137e+00 7.3171395771835490e+00 0.0000000000000000e+00  2.6972942204667771e+00 8.1124681403120871e+00 0.0000000000000000e+00  2.6804012285349494e+00 7.7571909988563741e+00 0.0000000000000000e+00  2.6951728755175717e+00 8.0323230992251435e+00 0.0000000000000000e+00  2.6472144896424212e+00 8.6698961128704664e+00 0.0000000000000000e+00  2.6705245808476485e+00 7.9750861492630838e+00 0.0000000000000000e+00  2.6257843209312144e+00 8.9236962900384231e+00 0.0000000000000000e+00  2.6405331298092007e+00 8.8134888123279200e+00 0.0000000000000000e+00  2.6156611174854771e+00 8.6089125149952945e+00 0.0000000000000000e+00  2.5892995956201244e+00 9.4945533182301851e+00 0.0000000000000000e+00  2.6221866397864821e+00 8.9730250078196665e+00 0.0000000000000000e+00  2.5500350305472206e+00 9.5240874768960939e+00 0.0000000000000000e+00  2.5815772984943806e+00 9.5158462651305360e+00 0.0000000000000000e+00  2.5691952480352707e+00 9.7240206396350874e+00 0.0000000000000000e+00  2.5100036430302968e+00 9.9015733592264450e+00 0.0000000000000000e+00  2.5678594585661512e+00 9.7645243965867472e+00 0.0000000000000000e+00  2.4972101004370342e+00 1.0541536697856403e+01 0.0000000000000000e+00  2.5119903742026830e+00 9.9539344352244452e+00 0.0000000000000000e+00  2.5036568029258461e+00 1.0415448622014209e+01 0.0000000000000000e+00  2.4675504784027327e+00 1.0966370079409687e+01 0.0000000000000000e+00  2.4917212285944084e+00 1.0108349096869208e+01 0.0000000000000000e+00  2.4330396441511772e+00 1.1229894779095984e+01 0.0000000000000000e+00  2.4695060778257210e+00 1.0947780228858264e+01 0.0000000000000000e+00  2.4326939156250718e+00 1.0874712852315771e+01 0.0000000000000000e+00  2.3948005256963465e+00 1.1461769241729211e+01 0.0000000000000000e+00  2.4585105901497135e+00 1.1170456201185452e+01 0.0000000000000000e+00  2.3529765421467679e+00 1.1662497818252458e+01 0.0000000000000000e+00  2.4046835306380920e+00 1.1320459893033588e+01 0.0000000000000000e+00  2.3862084131084869e+00 1.1909577957053548e+01 0.0000000000000000e+00  2.3347925752455998e+00 1.2027632973088517e+01 0.0000000000000000e+00  2.3808800568790009e+00 1.1381911040695099e+01 0.0000000000000000e+00  2.3062104821791691e+00 1.2696146875696300e+01 0.0000000000000000e+00  2.3571125923398055e+00 1.1895973406327059e+01 0.0000000000000000e+00  2.2934141245402380e+00 1.2134809735122646e+01 0.0000000000000000e+00  2.2890063136362335e+00 1.2676364832623220e+01 0.0000000000000000e+00  2.3436437498059375e+00 1.2353862894679995e+01 0.0000000000000000e+00  2.1999289557869361e+00 1.2805298255261071e+01 0.0000000000000000e+00  2.3333561904234488e+00 1.2190015064386726e+01 0.0000000000000000e+00  2.2076567214082408e+00 1.3749396612930660e+01 0.0000000000000000e+00  2.2789428354580910e+00 1.2115220633450253e+01 0.0000000000000000e+00  2.1781293257436767e+00 1.3209291644962583e+01 0.0000000000000000e+00  2.2777762013608460e+00 1.3444416615893649e+01 0.0000000000000000e+00  2.1657426139366973e+00 1.2958271709926294e+01 0.0000000000000000e+00  2.1906694320087556e+00 1.2879157089688887e+01 0.0000000000000000e+00  2.2159473180053517e+00 1.4212204681948828e+01 0.0000000000000000e+00  2.1507675961328427e+00 1.2968531798153942e+01 0.0000000000000000e+00  2.1368372631961754e+00 1.3141050411625852e+01 0.0000000000000000e+00  2.2033814089489843e+00 1.4722825562089200e+01 0.0000000000000000e+00  2.0999071425299758e+00 1.3035527136031444e+01 0.0000000000000000e+00  2.0953243700876856e+00 1.3288628753536516e+01 0.0000000000000000e+00  2.1808148551197459e+00 1.5558661214438249e+01 0.0000000000000000e+00  2.0529467788293712e+00 1.2859359727251608e+01 0.0000000000000000e+00  2.0439425746515716e+00 1.3199052329475641e+01 0.0000000000000000e+00  2.2173722907817983e+00 1.6336678075076335e+01 0.0000000000000000e+00  2.0244677019689830e+00 1.2671252621331190e+01 0.0000000000000000e+00  2.0145066270370831e+00 1.2348889391168107e+01 0.0000000000000000e+00  2.2540192648766872e+00 1.7344196318034246e+01 0.0000000000000000e+00  2.0320489898812855e+00 1.2877490711846113e+01 0.0000000000000000e+00  1.9305513825262668e+00 1.1047139744272721e+01 0.0000000000000000e+00  2.2882957481536446e+00 1.8094458465581063e+01 0.0000000000000000e+00  2.0758257756637173e+00 1.4026685009296600e+01 0.0000000000000000e+00  1.8386399032200493e+00 9.3162894302103165e+00 0.0000000000000000e+00  2.2722007709347931e+00 1.8039536730172497e+01 0.0000000000000000e+00  2.1793808530819851e+00 1.6135693277580934e+01 0.0000000000000000e+00  1.7541231136797661e+00 7.9389439991404585e+00 0.0000000000000000e+00  2.1917806726113733e+00 1.6507659166446718e+01 0.0000000000000000e+00  2.3090841476377237e+00 1.8939222837725008e+01 0.0000000000000000e+00  1.7342376286697330e+00 7.6604426236427630e+00 0.0000000000000000e+00  2.0303046076211855e+00 1.3505627464299403e+01 0.0000000000000000e+00  2.4295565209550736e+00 2.1456218266037748e+01 0.0000000000000000e+00  1.8045313017599884e+00 9.2249020478177144e+00 0.0000000000000000e+00  1.8264414962086508e+00 9.6022896515937930e+00 0.0000000000000000e+00  2.4696801971984601e+00 2.2477631886848997e+01 0.0000000000000000e+00  1.9851096827074446e+00 1.2794094114146422e+01 0.0000000000000000e+00  1.6335403560947825e+00 6.1093496175951492e+00 0.0000000000000000e+00  2.3793969608310461e+00 2.0738939845762829e+01 0.0000000000000000e+00  2.2385585446541802e+00 1.7942006367185357e+01 0.0000000000000000e+00  1.5422416289300556e+00 4.5324686580864846e+00 0.0000000000000000e+00  2.1296490475802790e+00 1.5880545107888610e+01 0.0000000000000000e+00  2.4876985333031083e+00 2.3075145897881942e+01 0.0000000000000000e+00  1.6282076041311868e+00 6.3536292837372450e+00 0.0000000000000000e+00  1.7770068046480239e+00 9.0976417836710919e+00 0.0000000000000000e+00  2.5861313719132495e+00 2.5334392801741728e+01 0.0000000000000000e+00  1.9325816683555233e+00 1.2191467830388607e+01 0.0000000000000000e+00  1.4626367613295788e+00 3.4826346918530149e+00 0.0000000000000000e+00  2.3953509879926247e+00 2.1511588529231879e+01 0.0000000000000000e+00  2.3649010766019973e+00 2.0878740957172113e+01 0.0000000000000000e+00  1.3998024969347624e+00 2.5963112981204590e+00 0.0000000000000000e+00  1.9119736514305798e+00 1.2013660111728257e+01 0.0000000000000000e+00  2.6697613504635180e+00 2.7436734817494390e+01 0.0000000000000000e+00  1.7296383324420812e+00 8.7043432994936456e+00 0.0000000000000000e+00  1.4027067251165262e+00 2.8278327422482930e+00 0.0000000000000000e+00  2.5021791050776794e+00 2.4078813575656710e+01 0.0000000000000000e+00  2.3408223568673225e+00 2.0622112451919939e+01 0.0000000000000000e+00  1.2721996921308090e+00 9.3591154742557137e-01 0.0000000000000000e+00  1.8476096282954659e+00 1.0990485300216960e+01 0.0000000000000000e+00  2.7444638844947362e+00 2.9479780907214437e+01 0.0000000000000000e+00  1.7615716392382856e+00 9.4545939754967190e+00 0.0000000000000000e+00  1.2308685132959483e+00 4.4506320354261586e-01 0.0000000000000000e+00  2.3770334216362565e+00 2.1597284266453642e+01 0.0000000000000000e+00  2.5497550507455098e+00 2.5246349034993919e+01 0.0000000000000000e+00  1.3062880389786717e+00 1.8038301186432018e+00 0.0000000000000000e+00  1.4958935777573803e+00 4.8382950828052405e+00 0.0000000000000000e+00  2.7239720727299375e+00 2.9275693796504186e+01 0.0000000000000000e+00  2.1412645290651930e+00 1.6724165307979401e+01 0.0000000000000000e+00  1.0880425971282226e+00 -1.2317552568931796e+00 0.0000000000000000e+00  1.8535459092557105e+00 1.1193063554697739e+01 0.0000000000000000e+00  2.8208708246403487e+00 3.1654217673438271e+01 0.0000000000000000e+00  1.7504170715262497e+00 9.2878634849979349e+00 0.0000000000000000e+00  1.0550602854406737e+00 -1.4727262929768459e+00 0.0000000000000000e+00  2.1674725585818653e+00 1.7309199346654697e+01 0.0000000000000000e+00  2.7591043018285006e+00 3.0299773495850857e+01 0.0000000000000000e+00  1.4662831257357507e+00 4.4732793075908397e+00 0.0000000000000000e+00  1.1060703130497629e+00 -6.7799915790118370e-01 0.0000000000000000e+00  2.3862387552647677e+00 2.1903439473714016e+01 0.0000000000000000e+00  2.6494111418191464e+00 2.7787388127168793e+01 0.0000000000000000e+00  1.2916784782533524e+00 1.8611404332161308e+00 0.0000000000000000e+00  1.1687512743050510e+00 1.9176334942635484e-01 0.0000000000000000e+00  2.5129823929376167e+00 2.4704107219490464e+01 0.0000000000000000e+00  2.5559907326474240e+00 2.5659068897694890e+01 0.0000000000000000e+00  1.1980908429564343e+00 5.9719499624295225e-01 0.0000000000000000e+00  1.2384107002773732e+00 1.1202060652649923e+00 0.0000000000000000e+00  2.5998136126315892e+00 2.6664012363284556e+01 0.0000000000000000e+00  2.4567783953775382e+00 2.3436937817385395e+01 0.0000000000000000e+00  1.1375478939925212e+00 -2.3779651313715502e-01 0.0000000000000000e+00  1.3835437929593450e+00 3.1750094785018099e+00 0.0000000000000000e+00  2.7164899742834803e+00 2.9366278088024767e+01 0.0000000000000000e+00  2.2732457501760113e+00 1.9426244734843774e+01 0.0000000000000000e+00  1.0525328844207840e+00 -1.2539374176224580e+00 0.0000000000000000e+00  1.5448830945871053e+00 5.6778533205446022e+00 0.0000000000000000e+00  2.8022418129834379e+00 3.1459347640846222e+01 0.0000000000000000e+00  2.0982508822591113e+00 1.5748807285118543e+01 0.0000000000000000e+00  1.0082570185028492e+00 -1.5902641361759269e+00 0.0000000000000000e+00  9.7915247691156138e-01 4.1119490187080604e-01 0.0000000000000000e+00  1.0097442805444348e+00 -1.0865850656676131e-01 0.0000000000000000e+00  9.9681077751710012e-01 2.8224485124341971e-02 0.0000000000000000e+00  1.0005728944305390e+00 -5.0000051433327711e-03 0.0000000000000000e+00  1.0003275466384018e+00 -1.8000756103106268e-03 0.0000000000000000e+00  9.9941742478633711e-01 3.5941552065827105e-03 0.0000000000000000e+00  1.0006092326944591e+00 -3.7861316734648627e-03 0.0000000000000000e+00  9.9944120564153394e-01 3.4681840584427377e-03 0.0000000000000000e+00  1.0004860611816089e+00 -2.9993250663655326e-03 0.0000000000000000e+00  9.9958880313248788e-01 2.5133041663751017e-03 0.0000000000000000e+00  1.0003420941124961e+00 -2.0549129736485050e-03 0.0000000000000000e+00  9.9971824353117522e-01 1.6431325403715113e-03 0.0000000000000000e+00  1.0002312499000279e+00 -1.2800188932232887e-03 0.0000000000000000e+00  9.9980931238782245e-01 9.6343691003792189e-04 0.0000000000000000e+00  1.0001597925015231e+00 -6.8615497475933056e-04 0.0000000000000000e+00  9.9986185745371980e-01 4.3987796603682142e-04 0.0000000000000000e+00  1.0001253354132820e+00 -2.1459109395551332e-04 0.0000000000000000e+00  9.9987889882481229e-01 0.0000000000000000e+00 0.0000000000000000e+00  </DataArray> 
</PointData> 
</Piece>
</UnstructuredGrid>
</VTKFile>