<?xml version="1.0"?>
<VTKFile type="UnstructuredGrid"  version="0.1"  >
<UnstructuredGrid>
<Piece  NumberOfPoints="201" NumberOfCells="200">
<Points>
<DataArray  type="Float64"  NumberOfComponents="3"  format="ascii">-5 0 0  -4.95 0 0  -4.9 0 0  -4.85 0 0  -4.8 0 0  -4.75 0 0  -4.7 0 0  -4.65 0 0  -4.6 0 0  -4.55 0 0  -4.5 0 0  -4.45 0 0  -4.4 0 0  -4.35 0 0  -4.3 0 0  -4.25 0 0  -4.2 0 0  -4.15 0 0  -4.1 0 0  -4.05 0 0  -4 0 0  -3.95 0 0  -3.9 0 0  -3.85 0 0  -3.8 0 0  -3.75 0 0  -3.7 0 0  -3.65 0 0  -3.6 0 0  -3.55 0 0  -3.5 0 0  -3.45 0 0  -3.4 0 0  -3.35 0 0  -3.3 0 0  -3.25 0 0  -3.2 0 0  -3.15 0 0  -3.1 0 0  -3.05 0 0  -3 0 0  -2.95 0 0  -2.9 0 0  -2.85 0 0  -2.8 0 0  -2.75 0 0  -2.7 0 0  -2.65 0 0  -2.6 0 0  -2.55 0 0  -2.5 0 0  -2.45 0 0  -2.4 0 0  -2.35 0 0  -2.3 0 0  -2.25 0 0  -2.2 0 0  -2.15 0 0  -2.1 0 0  -2.05 0 0  -2 0 0  -1.95 0 0  -1.9 0 0  -1.85 0 0  -1.8 0 0  -1.75 0 0  -1.7 0 0  -1.65 0 0  -1.6 0 0  -1.55 0 0  -1.5 0 0  -1.45 0 0  -1.4 0 0  -1.35 0 0  -1.3 0 0  -1.25 0 0  -1.2 0 0  -1.15 0 0  -1.1 0 0  -1.05 0 0  -1 0 0  -0.9500000000000002 0 0  -0.9000000000000004 0 0  -0.8499999999999996 0 0  -0.7999999999999998 0 0  -0.75 0 0  -0.7000000000000002 0 0  -0.6500000000000004 0 0  -0.5999999999999996 0 0  -0.5499999999999998 0 0  -0.5 0 0  -0.4500000000000002 0 0  -0.4000000000000004 0 0  -0.3499999999999996 0 0  -0.2999999999999998 0 0  -0.25 0 0  -0.2000000000000002 0 0  -0.1500000000000004 0 0  -0.09999999999999964 0 0  -0.04999999999999982 0 0  0 0 0  0.04999999999999982 0 0  0.09999999999999964 0 0  0.1500000000000004 0 0  0.2000000000000002 0 0  0.25 0 0  0.2999999999999998 0 0  0.3499999999999996 0 0  0.4000000000000004 0 0  0.4500000000000002 0 0  0.5 0 0  0.5499999999999998 0 0  0.5999999999999996 0 0  0.6500000000000004 0 0  0.7000000000000002 0 0  0.75 0 0  0.7999999999999998 0 0  0.8499999999999996 0 0  0.9000000000000004 0 0  0.9500000000000002 0 0  1 0 0  1.05 0 0  1.1 0 0  1.15 0 0  1.2 0 0  1.25 0 0  1.3 0 0  1.35 0 0  1.4 0 0  1.45 0 0  1.5 0 0  1.55 0 0  1.6 0 0  1.65 0 0  1.7 0 0  1.75 0 0  1.8 0 0  1.85 0 0  1.9 0 0  1.95 0 0  2 0 0  2.05 0 0  2.1 0 0  2.15 0 0  2.2 0 0  2.25 0 0  2.3 0 0  2.35 0 0  2.4 0 0  2.45 0 0  2.5 0 0  2.55 0 0  2.6 0 0  2.65 0 0  2.7 0 0  2.75 0 0  2.8 0 0  2.85 0 0  2.9 0 0  2.95 0 0  3 0 0  3.050000000000001 0 0  3.1 0 0  3.15 0 0  3.199999999999999 0 0  3.25 0 0  3.300000000000001 0 0  3.35 0 0  3.4 0 0  3.449999999999999 0 0  3.5 0 0  3.550000000000001 0 0  3.6 0 0  3.65 0 0  3.699999999999999 0 0  3.75 0 0  3.800000000000001 0 0  3.85 0 0  3.9 0 0  3.949999999999999 0 0  4 0 0  4.050000000000001 0 0  4.1 0 0  4.15 0 0  4.199999999999999 0 0  4.25 0 0  4.300000000000001 0 0  4.35 0 0  4.4 0 0  4.449999999999999 0 0  4.5 0 0  4.550000000000001 0 0  4.6 0 0  4.65 0 0  4.699999999999999 0 0  4.75 0 0  4.800000000000001 0 0  4.85 0 0  4.9 0 0  4.949999999999999 0 0  5 0 0  </DataArray>
</Points>
<Cells>
<DataArray  type="UInt32"  Name="connectivity"  format="ascii">0 1  1 2  2 3  3 4  4 5  5 6  6 7  7 8  8 9  9 10  10 11  11 12  12 13  13 14  14 15  15 16  16 17  17 18  18 19  19 20  20 21  21 22  22 23  23 24  24 25  25 26  26 27  27 28  28 29  29 30  30 31  31 32  32 33  33 34  34 35  35 36  36 37  37 38  38 39  39 40  40 41  41 42  42 43  43 44  44 45  45 46  46 47  47 48  48 49  49 50  50 51  51 52  52 53  53 54  54 55  55 56  56 57  57 58  58 59  59 60  60 61  61 62  62 63  63 64  64 65  65 66  66 67  67 68  68 69  69 70  70 71  71 72  72 73  73 74  74 75  75 76  76 77  77 78  78 79  79 80  80 81  81 82  82 83  83 84  84 85  85 86  86 87  87 88  88 89  89 90  90 91  91 92  92 93  93 94  94 95  95 96  96 97  97 98  98 99  99 100  100 101  101 102  102 103  103 104  104 105  105 106  106 107  107 108  108 109  109 110  110 111  111 112  112 113  113 114  114 115  115 116  116 117  117 118  118 119  119 120  120 121  121 122  122 123  123 124  124 125  125 126  126 127  127 128  128 129  129 130  130 131  131 132  132 133  133 134  134 135  135 136  136 137  137 138  138 139  139 140  140 141  141 142  142 143  143 144  144 145  145 146  146 147  147 148  148 149  149 150  150 151  151 152  152 153  153 154  154 155  155 156  156 157  157 158  158 159  159 160  160 161  161 162  162 163  163 164  164 165  165 166  166 167  167 168  168 169  169 170  170 171  171 172  172 173  173 174  174 175  175 176  176 177  177 178  178 179  179 180  180 181  181 182  182 183  183 184  184 185  185 186  186 187  187 188  188 189  189 190  190 191  191 192  192 193  193 194  194 195  195 196  196 197  197 198  198 199  199 200  </DataArray>
<DataArray  type="UInt32"  Name="offsets"  format="ascii">2 4 6 8 10 12 14 16 18 20 22 24 26 28 30 32 34 36 38 40 42 44 46 48 50 52 54 56 58 60 62 64 66 68 70 72 74 76 78 80 82 84 86 88 90 92 94 96 98 100 102 104 106 108 110 112 114 116 118 120 122 124 126 128 130 132 134 136 138 140 142 144 146 148 150 152 154 156 158 160 162 164 166 168 170 172 174 176 178 180 182 184 186 188 190 192 194 196 198 200 202 204 206 208 210 212 214 216 218 220 222 224 226 228 230 232 234 236 238 240 242 244 246 248 250 252 254 256 258 260 262 264 266 268 270 272 274 276 278 280 282 284 286 288 290 292 294 296 298 300 302 304 306 308 310 312 314 316 318 320 322 324 326 328 330 332 334 336 338 340 342 344 346 348 350 352 354 356 358 360 362 364 366 368 370 372 374 376 378 380 382 384 386 388 390 392 394 396 398 400 </DataArray>
<DataArray  type="UInt8"  Name="types"  format="ascii">3 3 3 3 3 3 3 3 3 3 3 3 3 3 3 3 3 3 3 3 3 3 3 3 3 3 3 3 3 3 3 3 3 3 3 3 3 3 3 3 3 3 3 3 3 3 3 3 3 3 3 3 3 3 3 3 3 3 3 3 3 3 3 3 3 3 3 3 3 3 3 3 3 3 3 3 3 3 3 3 3 3 3 3 3 3 3 3 3 3 3 3 3 3 3 3 3 3 3 3 3 3 3 3 3 3 3 3 3 3 3 3 3 3 3 3 3 3 3 3 3 3 3 3 3 3 3 3 3 3 3 3 3 3 3 3 3 3 3 3 3 3 3 3 3 3 3 3 3 3 3 3 3 3 3 3 3 3 3 3 3 3 3 3 3 3 3 3 3 3 3 3 3 3 3 3 3 3 3 3 3 3 3 3 3 3 3 3 3 3 3 3 3 3 3 3 3 3 3 3 </DataArray>
</Cells>
<PointData  Vectors="(s, w)"> 
<DataArray  type="Float64"  Name="(s, w)"  NumberOfComponents="3" format="ascii">3.1743293213015007e+00 0.0000000000000000e+00 0.0000000000000000e+00  3.1508889192221168e+00 -2.9158136156168529e-01 0.0000000000000000e+00  3.1708285147909034e+00 5.3012943674582214e-01 0.0000000000000000e+00  3.1577878543413114e+00 -7.1338532410615840e-01 0.0000000000000000e+00  3.1616601469633894e+00 7.7035128505298800e-01 0.0000000000000000e+00  3.1687303547692038e+00 -7.4375935594139231e-01 0.0000000000000000e+00  3.1507703182818658e+00 5.9449534741122601e-01 0.0000000000000000e+00  3.1784043244166575e+00 -3.7713172884023655e-01 0.0000000000000000e+00  3.1440195355074172e+00 1.1280093401265098e-01 0.0000000000000000e+00  3.1807031827416594e+00 1.6704321166801192e-01 0.0000000000000000e+00  3.1468832320645856e+00 -3.9391552112713690e-01 0.0000000000000000e+00  3.1720011747177934e+00 5.7828624137927043e-01 0.0000000000000000e+00  3.1607117070361110e+00 -6.4666111606810706e-01 0.0000000000000000e+00  3.1545333186694506e+00 6.4480820698157693e-01 0.0000000000000000e+00  3.1798975243689918e+00 -5.3938786722476406e-01 0.0000000000000000e+00  3.1370421504927948e+00 3.8016534322968815e-01 0.0000000000000000e+00  3.1932104671064736e+00 -1.9258428693218943e-01 0.0000000000000000e+00  3.1308950496215466e+00 -1.0103385434555364e-03 0.0000000000000000e+00  3.1902164308068697e+00 1.4691963484579668e-01 0.0000000000000000e+00  3.1428800657774913e+00 -2.5020934594153182e-01 0.0000000000000000e+00  3.1693133153254140e+00 2.8928729458280306e-01 0.0000000000000000e+00  3.1689828224643577e+00 -2.7452219004128681e-01 0.0000000000000000e+00  3.1410662017726443e+00 2.3791758397111296e-01 0.0000000000000000e+00  3.1946629912294457e+00 -1.8986824032473693e-01 0.0000000000000000e+00  3.1224697016343903e+00 1.6564352423295334e-01 0.0000000000000000e+00  3.2038460059498028e+00 -1.8466183581939175e-01 0.0000000000000000e+00  3.1249242146596172e+00 2.2979651007579907e-01 0.0000000000000000e+00  3.1911540383772485e+00 -3.1613641881359611e-01 0.0000000000000000e+00  3.1453104277055064e+00 3.8682966723642559e-01 0.0000000000000000e+00  3.1668574221925496e+00 -4.3055751991666336e-01 0.0000000000000000e+00  3.1683200141532368e+00 4.0822045135981927e-01 0.0000000000000000e+00  3.1484969430943086e+00 -3.0027342222974635e-01 0.0000000000000000e+00  3.1793782048701242e+00 1.1735177447728376e-01 0.0000000000000000e+00  3.1451915432755886e+00 1.2282367092838829e-01 0.0000000000000000e+00  3.1773652375771717e+00 -3.7943686782694436e-01 0.0000000000000000e+00  3.1497596119807429e+00 5.9497874281306429e-01 0.0000000000000000e+00  3.1741802132999171e+00 -7.3378440849979731e-01 0.0000000000000000e+00  3.1479714591900523e+00 7.7866676605950824e-01 0.0000000000000000e+00  3.1797723468255628e+00 -6.7716856433407002e-01 0.0000000000000000e+00  3.1358200560859126e+00 5.9360710810052864e-01 0.0000000000000000e+00  3.1876436797180459e+00 -2.9250928656374897e-01 0.0000000000000000e+00  3.1245290688963934e+00 3.4662149325614355e-01 0.0000000000000000e+00  3.1787833707960118e+00 1.1107771014145973e-01 0.0000000000000000e+00  3.1251839265587966e+00 4.2923052552857360e-01 0.0000000000000000e+00  3.1434715614670061e+00 4.1389420446998371e-01 0.0000000000000000e+00  3.1305481829048207e+00 8.5432082807876530e-01 0.0000000000000000e+00  3.0960366839783431e+00 8.7716135760229275e-01 0.0000000000000000e+00  3.1197856990849027e+00 1.2400707520936631e+00 0.0000000000000000e+00  3.0580957372203756e+00 1.7794468211622025e+00 0.0000000000000000e+00  3.0866074602440543e+00 1.4016727827864994e+00 0.0000000000000000e+00  3.0266224166561768e+00 2.8840320322756896e+00 0.0000000000000000e+00  3.0527720525886699e+00 1.7210120244649723e+00 0.0000000000000000e+00  2.9797581124001735e+00 3.6440002188998544e+00 0.0000000000000000e+00  3.0345802650752032e+00 2.5035727148284401e+00 0.0000000000000000e+00  2.9219636758829419e+00 4.0849450247324510e+00 0.0000000000000000e+00  3.0103449144129728e+00 3.2994084091217211e+00 0.0000000000000000e+00  2.8845027695839729e+00 4.7924899091066253e+00 0.0000000000000000e+00  2.9600386152615403e+00 3.6927639919083530e+00 0.0000000000000000e+00  2.8637963557482968e+00 5.7004391022202778e+00 0.0000000000000000e+00  2.9115882175010173e+00 4.2222199555978417e+00 0.0000000000000000e+00  2.8235993378228850e+00 6.1219887418099130e+00 0.0000000000000000e+00  2.8848948361249422e+00 5.2485796905228899e+00 0.0000000000000000e+00  2.7758949337611094e+00 6.3204587102152043e+00 0.0000000000000000e+00  2.8431593203806820e+00 5.9962289296700231e+00 0.0000000000000000e+00  2.7571443128992983e+00 7.0440012457430585e+00 0.0000000000000000e+00  2.7799883987191163e+00 6.3108589406528042e+00 0.0000000000000000e+00  2.7351900611790145e+00 7.6886905110382440e+00 0.0000000000000000e+00  2.7435345065725025e+00 7.1248859211038331e+00 0.0000000000000000e+00  2.6835748596270816e+00 7.7543941536922434e+00 0.0000000000000000e+00  2.7146496921578103e+00 8.0332931234539036e+00 0.0000000000000000e+00  2.6542034146763025e+00 8.2774516622948724e+00 0.0000000000000000e+00  2.6529476501401841e+00 8.2298038983600641e+00 0.0000000000000000e+00  2.6382077113593088e+00 9.0845717097485945e+00 0.0000000000000000e+00  2.6123804875305234e+00 8.7871065680614908e+00 0.0000000000000000e+00  2.5837069704363089e+00 9.1486514172169251e+00 0.0000000000000000e+00  2.5923670710320281e+00 9.6929193518350463e+00 0.0000000000000000e+00  2.5474255285811109e+00 9.5871848247418114e+00 0.0000000000000000e+00  2.5326405023329719e+00 9.7630739237966520e+00 0.0000000000000000e+00  2.5320753650837213e+00 1.0441694083130241e+01 0.0000000000000000e+00  2.4949931443615889e+00 1.0233061083175697e+01 0.0000000000000000e+00  2.4721155678634146e+00 1.0409080119309174e+01 0.0000000000000000e+00  2.4782051478560936e+00 1.1080284095288624e+01 0.0000000000000000e+00  2.4392871876255486e+00 1.0906326946642514e+01 0.0000000000000000e+00  2.4141846211932219e+00 1.0964665002469104e+01 0.0000000000000000e+00  2.4219425888467132e+00 1.1692709771086257e+01 0.0000000000000000e+00  2.3858974658454075e+00 1.1535094512676558e+01 0.0000000000000000e+00  2.3558361479842800e+00 1.1496945611039701e+01 0.0000000000000000e+00  2.3659492906817641e+00 1.2244924349555513e+01 0.0000000000000000e+00  2.3307975947582302e+00 1.2096867004386052e+01 0.0000000000000000e+00  2.3014027166910047e+00 1.2050782092733606e+01 0.0000000000000000e+00  2.3096241037153877e+00 1.2748039415580996e+01 0.0000000000000000e+00  2.2703635748880413e+00 1.2498128233480696e+01 0.0000000000000000e+00  2.2542794926092018e+00 1.2699046729923872e+01 0.0000000000000000e+00  2.2568972583749947e+00 1.3265713325603443e+01 0.0000000000000000e+00  2.1964047544426202e+00 1.2577358591737912e+01 0.0000000000000000e+00  2.2170913245975834e+00 1.3484383572952883e+01 0.0000000000000000e+00  2.2162072537484758e+00 1.3965872324202291e+01 0.0000000000000000e+00  2.1007817397256190e+00 1.2172115389521588e+01 0.0000000000000000e+00  2.1817994911533374e+00 1.4285128131352165e+01 0.0000000000000000e+00  2.1979618079468062e+00 1.5159301527043610e+01 0.0000000000000000e+00  1.9659429595282767e+00 1.1446519095995724e+01 0.0000000000000000e+00  2.1301084336724077e+00 1.4606725717721208e+01 0.0000000000000000e+00  2.2224189337054181e+00 1.6927990326256829e+01 0.0000000000000000e+00  1.9107629902397374e+00 1.0398425103197741e+01 0.0000000000000000e+00  2.0644971302659356e+00 1.3714127265934025e+01 0.0000000000000000e+00  2.3215032859216027e+00 1.8719970679458363e+01 0.0000000000000000e+00  1.8806729343227540e+00 1.0325152897264198e+01 0.0000000000000000e+00  1.9528355313373811e+00 1.1624145558060867e+01 0.0000000000000000e+00  2.3859901475390410e+00 2.0464867540527418e+01 0.0000000000000000e+00  1.9392885674386193e+00 1.1560699719987802e+01 0.0000000000000000e+00  1.7928537046691442e+00 8.8662703208231441e+00 0.0000000000000000e+00  2.4047094595161376e+00 2.0948906638819093e+01 0.0000000000000000e+00  2.0746034330992509e+00 1.4508809879437976e+01 0.0000000000000000e+00  1.6502455951604860e+00 6.2334603302786036e+00 0.0000000000000000e+00  2.3102730708864683e+00 1.9334317267072695e+01 0.0000000000000000e+00  2.2856326479093347e+00 1.8758032256710170e+01 0.0000000000000000e+00  1.5743127248463735e+00 5.1268191499674272e+00 0.0000000000000000e+00  2.0868633853188392e+00 1.4956457309980834e+01 0.0000000000000000e+00  2.4959660257944649e+00 2.3276770251975744e+01 0.0000000000000000e+00  1.6600825699456687e+00 6.9102499908372703e+00 0.0000000000000000e+00  1.7454385672293331e+00 8.5641198912942205e+00 0.0000000000000000e+00  2.5855391210326037e+00 2.5329787469152279e+01 0.0000000000000000e+00  1.9582603390426678e+00 1.2794944139909367e+01 0.0000000000000000e+00  1.4285886780147763e+00 2.9189019016572741e+00 0.0000000000000000e+00  2.3660009808361542e+00 2.1065503917553450e+01 0.0000000000000000e+00  2.4186982895651776e+00 2.2029714107594618e+01 0.0000000000000000e+00  1.3790410739067966e+00 2.4857555040541568e+00 0.0000000000000000e+00  1.8091401151256108e+00 1.0130199280068343e+01 0.0000000000000000e+00  2.7126270209115315e+00 2.8623837401058008e+01 0.0000000000000000e+00  1.8176162384584051e+00 1.0414489719704630e+01 0.0000000000000000e+00  1.2571392751509771e+00 7.1926938245915850e-01 0.0000000000000000e+00  2.3651578862006168e+00 2.1326605881393025e+01 0.0000000000000000e+00  2.5463817765382113e+00 2.5126008753612325e+01 0.0000000000000000e+00  1.3141697930061866e+00 1.9276861858629821e+00 0.0000000000000000e+00  1.4956953022865520e+00 4.8267270430715623e+00 0.0000000000000000e+00  2.7255548568951147e+00 2.9350135147253685e+01 0.0000000000000000e+00  2.1469424809788822e+00 1.6830300510669648e+01 0.0000000000000000e+00  1.0728304970286111e+00 -1.3264505266978133e+00 0.0000000000000000e+00  1.8061604405622314e+00 1.0310142605192279e+01 0.0000000000000000e+00  2.8344230492573010e+00 3.2076143518112772e+01 0.0000000000000000e+00  1.8058529533231984e+00 1.0235510720552668e+01 0.0000000000000000e+00  1.0056637823357866e+00 -1.8751152409243050e+00 0.0000000000000000e+00  2.0246227047261356e+00 1.4390317735376090e+01 0.0000000000000000e+00  2.8259773058115210e+00 3.2013440008508503e+01 0.0000000000000000e+00  1.6088203193276016e+00 6.7107796439991807e+00 0.0000000000000000e+00  9.9995932892056172e-01 -1.7465287067646402e+00 0.0000000000000000e+00  2.1378492333767087e+00 1.6592962298701995e+01 0.0000000000000000e+00  2.7950197288135774e+00 3.1293788002165190e+01 0.0000000000000000e+00  1.5111563870064499e+00 5.1344461629339957e+00 0.0000000000000000e+00  1.0552493635396807e+00 -1.1998579815441031e+00 0.0000000000000000e+00  2.2922035977057580e+00 1.9796092397138139e+01 0.0000000000000000e+00  2.7021548610299702e+00 2.9231022392361780e+01 0.0000000000000000e+00  1.3981870929954421e+00 2.6853517346264391e+00 0.0000000000000000e+00  9.3153641976185464e-01 -4.4507124074575971e-01 0.0000000000000000e+00  1.0122195726852772e+00 8.9434280671345567e-02 0.0000000000000000e+00  9.9870483131673304e-01 -2.2754466013300792e-02 0.0000000000000000e+00  9.9919494206877102e-01 1.0796387811592156e-02 0.0000000000000000e+00  1.0011492902340395e+00 -8.2631353062479328e-03 0.0000000000000000e+00  9.9889157949829988e-01 7.1432776121460899e-03 0.0000000000000000e+00  1.0009738784475155e+00 -6.1341097463909495e-03 0.0000000000000000e+00  9.9918047484671868e-01 5.1410308184761683e-03 0.0000000000000000e+00  1.0006703771024421e+00 -4.1989348837448148e-03 0.0000000000000000e+00  9.9946386832795064e-01 3.3586963722106161e-03 0.0000000000000000e+00  1.0004206809946041e+00 -2.6344419473808612e-03 0.0000000000000000e+00  9.9967547519865285e-01 2.0327644231016777e-03 0.0000000000000000e+00  1.0002465560825151e+00 -1.5440836973132437e-03 0.0000000000000000e+00  9.9981529881911413e-01 1.1568754999637428e-03 0.0000000000000000e+00  1.0001365822035748e+00 -8.5539156238875736e-04 0.0000000000000000e+00  9.9990021878653002e-01 6.2496155057400441e-04 0.0000000000000000e+00  1.0000720738841398e+00 -4.5139637675592183e-04 0.0000000000000000e+00  9.9994849425076215e-01 3.2259177699165521e-04 0.0000000000000000e+00  1.0000364369768242e+00 -2.2820626525393956e-04 0.0000000000000000e+00  9.9997446968399628e-01 1.5990059732739283e-04 0.0000000000000000e+00  1.0000177256614178e+00 -1.1101721284061712e-04 0.0000000000000000e+00  9.9998779999568022e-01 7.6410317834608318e-05 0.0000000000000000e+00  1.0000083271387417e+00 -5.2153683396154669e-05 0.0000000000000000e+00  9.9999436155406085e-01 3.5314294012644276e-05 0.0000000000000000e+00  1.0000037886995761e+00 -2.3729029944960241e-05 0.0000000000000000e+00  9.9999747294268138e-01 1.5827261229887019e-05 0.0000000000000000e+00  1.0000016736039679e+00 -1.0481967355445396e-05 0.0000000000000000e+00  9.9999889918986284e-01 6.8945020070240456e-06 0.0000000000000000e+00  1.0000007192777596e+00 -4.5049177449792453e-06 0.0000000000000000e+00  9.9999953301738054e-01 2.9247658728755769e-06 0.0000000000000000e+00  1.0000003013104664e+00 -1.8871416182625581e-06 0.0000000000000000e+00  9.9999980674927658e-01 1.2103512823710798e-06 0.0000000000000000e+00  1.0000001232255038e+00 -7.7177510784590574e-07 0.0000000000000000e+00  9.9999992186829756e-01 4.8934733351265175e-07 0.0000000000000000e+00  1.0000000492687904e+00 -3.0857523530153907e-07 0.0000000000000000e+00  9.9999996909692945e-01 1.9354801421601199e-07 0.0000000000000000e+00  1.0000000192832874e+00 -1.2077088725925402e-07 0.0000000000000000e+00  9.9999998802780288e-01 7.4978799022484673e-08 0.0000000000000000e+00  1.0000000073968542e+00 -4.6319592855467486e-08 0.0000000000000000e+00  9.9999999545134655e-01 2.8475269241266666e-08 0.0000000000000000e+00  1.0000000027849165e+00 -1.7418910452496875e-08 0.0000000000000000e+00  9.9999999830133424e-01 1.0598631044285699e-08 0.0000000000000000e+00  1.0000000010338308e+00 -6.4056197823171640e-09 0.0000000000000000e+00  9.9999999936954354e-01 3.8296438679838859e-09 0.0000000000000000e+00  1.0000000003896254e+00 -2.2369506138300690e-09 0.0000000000000000e+00  9.9999999974876363e-01 1.2273465209182211e-09 0.0000000000000000e+00  1.0000000001802367e+00 -5.4161832395202733e-10 0.0000000000000000e+00  9.9999999984155752e-01 0.0000000000000000e+00 0.0000000000000000e+00  </DataArray> 
</PointData> 
</Piece>
</UnstructuredGrid>
</VTKFile>