<?xml version="1.0"?>
<VTKFile type="UnstructuredGrid"  version="0.1"  >
<UnstructuredGrid>
<Piece  NumberOfPoints="201" NumberOfCells="200">
<Points>
<DataArray  type="Float64"  NumberOfComponents="3"  format="ascii">-5 0 0  -4.95 0 0  -4.9 0 0  -4.85 0 0  -4.8 0 0  -4.75 0 0  -4.7 0 0  -4.65 0 0  -4.6 0 0  -4.55 0 0  -4.5 0 0  -4.45 0 0  -4.4 0 0  -4.35 0 0  -4.3 0 0  -4.25 0 0  -4.2 0 0  -4.15 0 0  -4.1 0 0  -4.05 0 0  -4 0 0  -3.95 0 0  -3.9 0 0  -3.85 0 0  -3.8 0 0  -3.75 0 0  -3.7 0 0  -3.65 0 0  -3.6 0 0  -3.55 0 0  -3.5 0 0  -3.45 0 0  -3.4 0 0  -3.35 0 0  -3.3 0 0  -3.25 0 0  -3.2 0 0  -3.15 0 0  -3.1 0 0  -3.05 0 0  -3 0 0  -2.95 0 0  -2.9 0 0  -2.85 0 0  -2.8 0 0  -2.75 0 0  -2.7 0 0  -2.65 0 0  -2.6 0 0  -2.55 0 0  -2.5 0 0  -2.45 0 0  -2.4 0 0  -2.35 0 0  -2.3 0 0  -2.25 0 0  -2.2 0 0  -2.15 0 0  -2.1 0 0  -2.05 0 0  -2 0 0  -1.95 0 0  -1.9 0 0  -1.85 0 0  -1.8 0 0  -1.75 0 0  -1.7 0 0  -1.65 0 0  -1.6 0 0  -1.55 0 0  -1.5 0 0  -1.45 0 0  -1.4 0 0  -1.35 0 0  -1.3 0 0  -1.25 0 0  -1.2 0 0  -1.15 0 0  -1.1 0 0  -1.05 0 0  -1 0 0  -0.9500000000000002 0 0  -0.9000000000000004 0 0  -0.8499999999999996 0 0  -0.7999999999999998 0 0  -0.75 0 0  -0.7000000000000002 0 0  -0.6500000000000004 0 0  -0.5999999999999996 0 0  -0.5499999999999998 0 0  -0.5 0 0  -0.4500000000000002 0 0  -0.4000000000000004 0 0  -0.3499999999999996 0 0  -0.2999999999999998 0 0  -0.25 0 0  -0.2000000000000002 0 0  -0.1500000000000004 0 0  -0.09999999999999964 0 0  -0.04999999999999982 0 0  0 0 0  0.04999999999999982 0 0  0.09999999999999964 0 0  0.1500000000000004 0 0  0.2000000000000002 0 0  0.25 0 0  0.2999999999999998 0 0  0.3499999999999996 0 0  0.4000000000000004 0 0  0.4500000000000002 0 0  0.5 0 0  0.5499999999999998 0 0  0.5999999999999996 0 0  0.6500000000000004 0 0  0.7000000000000002 0 0  0.75 0 0  0.7999999999999998 0 0  0.8499999999999996 0 0  0.9000000000000004 0 0  0.9500000000000002 0 0  1 0 0  1.05 0 0  1.1 0 0  1.15 0 0  1.2 0 0  1.25 0 0  1.3 0 0  1.35 0 0  1.4 0 0  1.45 0 0  1.5 0 0  1.55 0 0  1.6 0 0  1.65 0 0  1.7 0 0  1.75 0 0  1.8 0 0  1.85 0 0  1.9 0 0  1.95 0 0  2 0 0  2.05 0 0  2.1 0 0  2.15 0 0  2.2 0 0  2.25 0 0  2.3 0 0  2.35 0 0  2.4 0 0  2.45 0 0  2.5 0 0  2.55 0 0  2.6 0 0  2.65 0 0  2.7 0 0  2.75 0 0  2.8 0 0  2.85 0 0  2.9 0 0  2.95 0 0  3 0 0  3.050000000000001 0 0  3.1 0 0  3.15 0 0  3.199999999999999 0 0  3.25 0 0  3.300000000000001 0 0  3.35 0 0  3.4 0 0  3.449999999999999 0 0  3.5 0 0  3.550000000000001 0 0  3.6 0 0  3.65 0 0  3.699999999999999 0 0  3.75 0 0  3.800000000000001 0 0  3.85 0 0  3.9 0 0  3.949999999999999 0 0  4 0 0  4.050000000000001 0 0  4.1 0 0  4.15 0 0  4.199999999999999 0 0  4.25 0 0  4.300000000000001 0 0  4.35 0 0  4.4 0 0  4.449999999999999 0 0  4.5 0 0  4.550000000000001 0 0  4.6 0 0  4.65 0 0  4.699999999999999 0 0  4.75 0 0  4.800000000000001 0 0  4.85 0 0  4.9 0 0  4.949999999999999 0 0  5 0 0  </DataArray>
</Points>
<Cells>
<DataArray  type="UInt32"  Name="connectivity"  format="ascii">0 1  1 2  2 3  3 4  4 5  5 6  6 7  7 8  8 9  9 10  10 11  11 12  12 13  13 14  14 15  15 16  16 17  17 18  18 19  19 20  20 21  21 22  22 23  23 24  24 25  25 26  26 27  27 28  28 29  29 30  30 31  31 32  32 33  33 34  34 35  35 36  36 37  37 38  38 39  39 40  40 41  41 42  42 43  43 44  44 45  45 46  46 47  47 48  48 49  49 50  50 51  51 52  52 53  53 54  54 55  55 56  56 57  57 58  58 59  59 60  60 61  61 62  62 63  63 64  64 65  65 66  66 67  67 68  68 69  69 70  70 71  71 72  72 73  73 74  74 75  75 76  76 77  77 78  78 79  79 80  80 81  81 82  82 83  83 84  84 85  85 86  86 87  87 88  88 89  89 90  90 91  91 92  92 93  93 94  94 95  95 96  96 97  97 98  98 99  99 100  100 101  101 102  102 103  103 104  104 105  105 106  106 107  107 108  108 109  109 110  110 111  111 112  112 113  113 114  114 115  115 116  116 117  117 118  118 119  119 120  120 121  121 122  122 123  123 124  124 125  125 126  126 127  127 128  128 129  129 130  130 131  131 132  132 133  133 134  134 135  135 136  136 137  137 138  138 139  139 140  140 141  141 142  142 143  143 144  144 145  145 146  146 147  147 148  148 149  149 150  150 151  151 152  152 153  153 154  154 155  155 156  156 157  157 158  158 159  159 160  160 161  161 162  162 163  163 164  164 165  165 166  166 167  167 168  168 169  169 170  170 171  171 172  172 173  173 174  174 175  175 176  176 177  177 178  178 179  179 180  180 181  181 182  182 183  183 184  184 185  185 186  186 187  187 188  188 189  189 190  190 191  191 192  192 193  193 194  194 195  195 196  196 197  197 198  198 199  199 200  </DataArray>
<DataArray  type="UInt32"  Name="offsets"  format="ascii">2 4 6 8 10 12 14 16 18 20 22 24 26 28 30 32 34 36 38 40 42 44 46 48 50 52 54 56 58 60 62 64 66 68 70 72 74 76 78 80 82 84 86 88 90 92 94 96 98 100 102 104 106 108 110 112 114 116 118 120 122 124 126 128 130 132 134 136 138 140 142 144 146 148 150 152 154 156 158 160 162 164 166 168 170 172 174 176 178 180 182 184 186 188 190 192 194 196 198 200 202 204 206 208 210 212 214 216 218 220 222 224 226 228 230 232 234 236 238 240 242 244 246 248 250 252 254 256 258 260 262 264 266 268 270 272 274 276 278 280 282 284 286 288 290 292 294 296 298 300 302 304 306 308 310 312 314 316 318 320 322 324 326 328 330 332 334 336 338 340 342 344 346 348 350 352 354 356 358 360 362 364 366 368 370 372 374 376 378 380 382 384 386 388 390 392 394 396 398 400 </DataArray>
<DataArray  type="UInt8"  Name="types"  format="ascii">3 3 3 3 3 3 3 3 3 3 3 3 3 3 3 3 3 3 3 3 3 3 3 3 3 3 3 3 3 3 3 3 3 3 3 3 3 3 3 3 3 3 3 3 3 3 3 3 3 3 3 3 3 3 3 3 3 3 3 3 3 3 3 3 3 3 3 3 3 3 3 3 3 3 3 3 3 3 3 3 3 3 3 3 3 3 3 3 3 3 3 3 3 3 3 3 3 3 3 3 3 3 3 3 3 3 3 3 3 3 3 3 3 3 3 3 3 3 3 3 3 3 3 3 3 3 3 3 3 3 3 3 3 3 3 3 3 3 3 3 3 3 3 3 3 3 3 3 3 3 3 3 3 3 3 3 3 3 3 3 3 3 3 3 3 3 3 3 3 3 3 3 3 3 3 3 3 3 3 3 3 3 3 3 3 3 3 3 3 3 3 3 3 3 3 3 3 3 3 3 </DataArray>
</Cells>
<PointData  Vectors="(s, w)"> 
<DataArray  type="Float64"  Name="(s, w)"  NumberOfComponents="3" format="ascii">2.4279134799898383e+00 0.0000000000000000e+00 0.0000000000000000e+00  2.4211745162828056e+00 2.7769485758007662e-01 0.0000000000000000e+00  2.4118645975752022e+00 3.4767138125778629e-01 0.0000000000000000e+00  2.4314054066658701e+00 5.5523179931045596e-01 0.0000000000000000e+00  2.4217556114529164e+00 8.7433890911531453e-01 0.0000000000000000e+00  2.4151078359878988e+00 9.9317248110481637e-01 0.0000000000000000e+00  2.4219761885528803e+00 1.1181334536046572e+00 0.0000000000000000e+00  2.4314762363181521e+00 1.4552117448987636e+00 0.0000000000000000e+00  2.4105727503748349e+00 1.6256887306498939e+00 0.0000000000000000e+00  2.4215406499604137e+00 1.7260116931840768e+00 0.0000000000000000e+00  2.4274897007684553e+00 1.9955522412879962e+00 0.0000000000000000e+00  2.4202265421084554e+00 2.2721915623059425e+00 0.0000000000000000e+00  2.4096850735339426e+00 2.3194133616750734e+00 0.0000000000000000e+00  2.4331676650584364e+00 2.5793405444967910e+00 0.0000000000000000e+00  2.4184668867683330e+00 2.8352159267341275e+00 0.0000000000000000e+00  2.4139376277111406e+00 2.9995115795356408e+00 0.0000000000000000e+00  2.4207724705874263e+00 3.0964797628810312e+00 0.0000000000000000e+00  2.4324471965518102e+00 3.4773716913564239e+00 0.0000000000000000e+00  2.4036214490938921e+00 3.5633559066714264e+00 0.0000000000000000e+00  2.4243642578534019e+00 3.7801395977240855e+00 0.0000000000000000e+00  2.4249365268566185e+00 3.9362907823594062e+00 0.0000000000000000e+00  2.4182697391928096e+00 4.2931159718636307e+00 0.0000000000000000e+00  2.4040898120281011e+00 4.2669032898573436e+00 0.0000000000000000e+00  2.4389905274493509e+00 4.6400564885571933e+00 0.0000000000000000e+00  2.4091033103820951e+00 4.7236175776625231e+00 0.0000000000000000e+00  2.4125172620714941e+00 5.0693591538623597e+00 0.0000000000000000e+00  2.4191061755923426e+00 5.0423862231909853e+00 0.0000000000000000e+00  2.4327067395129771e+00 5.4756711874817396e+00 0.0000000000000000e+00  2.3925602238577395e+00 5.4917398755600377e+00 0.0000000000000000e+00  2.4275226078417007e+00 5.8473521691203771e+00 0.0000000000000000e+00  2.4231326605896655e+00 5.8533289070894146e+00 0.0000000000000000e+00  2.4084577780647018e+00 6.2363314769966287e+00 0.0000000000000000e+00  2.4040407240070416e+00 6.3644318319386413e+00 0.0000000000000000e+00  2.4356732060525430e+00 6.5097081485755410e+00 0.0000000000000000e+00  2.4086112230404533e+00 6.7613589508621450e+00 0.0000000000000000e+00  2.3957392717063732e+00 6.9262476141802374e+00 0.0000000000000000e+00  2.4346553900288672e+00 7.3098205176104960e+00 0.0000000000000000e+00  2.4081563313575729e+00 6.9833848172762378e+00 0.0000000000000000e+00  2.4089621111664461e+00 7.9485661991448326e+00 0.0000000000000000e+00  2.3953869030875374e+00 7.3712277313307233e+00 0.0000000000000000e+00  2.4545175730532707e+00 8.3469166269589152e+00 0.0000000000000000e+00  2.3610540267999363e+00 7.3866613153258047e+00 0.0000000000000000e+00  2.4443841139631663e+00 9.3448049086716658e+00 0.0000000000000000e+00  2.3766101881755346e+00 7.4178971143582704e+00 0.0000000000000000e+00  2.4636730072725608e+00 9.6636754974692352e+00 0.0000000000000000e+00  2.3277060319405667e+00 7.8236506124851344e+00 0.0000000000000000e+00  2.4865735113305045e+00 1.0559310881945194e+01 0.0000000000000000e+00  2.3365457766469580e+00 7.4035081148785800e+00 0.0000000000000000e+00  2.4787231216315253e+00 1.1234112396487005e+01 0.0000000000000000e+00  2.3097157718556174e+00 8.1380998493002714e+00 0.0000000000000000e+00  2.5052507232328445e+00 1.1411284696128822e+01 0.0000000000000000e+00  2.3117158763877526e+00 8.0201467172836036e+00 0.0000000000000000e+00  2.4792003114154872e+00 1.2335525225114493e+01 0.0000000000000000e+00  2.3100438086792217e+00 8.5601133639373597e+00 0.0000000000000000e+00  2.4895319104003084e+00 1.1882434465155862e+01 0.0000000000000000e+00  2.3251589338232899e+00 9.4889811170221616e+00 0.0000000000000000e+00  2.4289686785213873e+00 1.2169919592242973e+01 0.0000000000000000e+00  2.3562512184865860e+00 9.9244893160759009e+00 0.0000000000000000e+00  2.4209795116863138e+00 1.1546582428720759e+01 0.0000000000000000e+00  2.3740110189062316e+00 1.1551255608652708e+01 0.0000000000000000e+00  2.3296442157010726e+00 1.0819104036364646e+01 0.0000000000000000e+00  2.4541742225000038e+00 1.2486299605840262e+01 0.0000000000000000e+00  2.2862710419367884e+00 9.9832209287619502e+00 0.0000000000000000e+00  2.4534154196713231e+00 1.4049400622341258e+01 0.0000000000000000e+00  2.2095368915322671e+00 8.9707132785504911e+00 0.0000000000000000e+00  2.5546164675456944e+00 1.5219977990589380e+01 0.0000000000000000e+00  2.1299618778509011e+00 7.9584957558415876e+00 0.0000000000000000e+00  2.5358740100293549e+00 1.6449661019362168e+01 0.0000000000000000e+00  2.1069401056306698e+00 7.4916205898267503e+00 0.0000000000000000e+00  2.5925079585236599e+00 1.6796222999096088e+01 0.0000000000000000e+00  2.0430532062969702e+00 7.2812371128691584e+00 0.0000000000000000e+00  2.5482987038603477e+00 1.7395568736837230e+01 0.0000000000000000e+00  2.0809865419903577e+00 7.5741588074354702e+00 0.0000000000000000e+00  2.5229221846599184e+00 1.6324027094605714e+01 0.0000000000000000e+00  2.0874751115641450e+00 9.1932859073218225e+00 0.0000000000000000e+00  2.4239654140285118e+00 1.5657607114723611e+01 0.0000000000000000e+00  2.1815151185999349e+00 1.0238705128991494e+01 0.0000000000000000e+00  2.3380348047012092e+00 1.3592692116218769e+01 0.0000000000000000e+00  2.2423890184985420e+00 1.3203212457380053e+01 0.0000000000000000e+00  2.1887137175370595e+00 1.1666631388116155e+01 0.0000000000000000e+00  2.3763620153154315e+00 1.4761291054568185e+01 0.0000000000000000e+00  2.0975674823369079e+00 9.8050853784837351e+00 0.0000000000000000e+00  2.4030017371292800e+00 1.7185415021901065e+01 0.0000000000000000e+00  1.9825068832672077e+00 8.0832919615764887e+00 0.0000000000000000e+00  2.5221233183375564e+00 1.8295762915965248e+01 0.0000000000000000e+00  1.9313804440875073e+00 7.6212313453132676e+00 0.0000000000000000e+00  2.4477789483240837e+00 1.8718221221575483e+01 0.0000000000000000e+00  1.9505754337144556e+00 7.8232426436975970e+00 0.0000000000000000e+00  2.4591765454260921e+00 1.7991096463498227e+01 0.0000000000000000e+00  1.9576845922565589e+00 9.4503430700009261e+00 0.0000000000000000e+00  2.3281023018426095e+00 1.6630765063508345e+01 0.0000000000000000e+00  2.0975974867892111e+00 1.1114827692448403e+01 0.0000000000000000e+00  2.1975825931785740e+00 1.4409034986372216e+01 0.0000000000000000e+00  2.1551177060228839e+00 1.4202579938515319e+01 0.0000000000000000e+00  2.0974285648606537e+00 1.1667613360535677e+01 0.0000000000000000e+00  2.2784490286047623e+00 1.6305137439728902e+01 0.0000000000000000e+00  1.9590375899798207e+00 1.1223491434407377e+01 0.0000000000000000e+00  2.3273088534352397e+00 1.6432528376532044e+01 0.0000000000000000e+00  1.8883261754990799e+00 1.0256619463930939e+01 0.0000000000000000e+00  2.3561627233982732e+00 1.8090879739091132e+01 0.0000000000000000e+00  1.8845805340110720e+00 9.7390560423461086e+00 0.0000000000000000e+00  2.2219761401879552e+00 1.6054424240518621e+01 0.0000000000000000e+00  2.0988224321004036e+00 1.4076022269721861e+01 0.0000000000000000e+00  2.0571417286996181e+00 1.3188849020368163e+01 0.0000000000000000e+00  2.1234571986826669e+00 1.4542082658354474e+01 0.0000000000000000e+00  2.0787020071527365e+00 1.3495870575287308e+01 0.0000000000000000e+00  2.2296445647617680e+00 1.6653253335775720e+01 0.0000000000000000e+00  1.8070126034564975e+00 8.1099219258394708e+00 0.0000000000000000e+00  2.4663044490891686e+00 2.1256673040831846e+01 0.0000000000000000e+00  1.7786945746157641e+00 7.6427685812179318e+00 0.0000000000000000e+00  2.2749676488452262e+00 1.7671303524884493e+01 0.0000000000000000e+00  1.9564516317498934e+00 1.1358568454641354e+01 0.0000000000000000e+00  2.2863764221424425e+00 1.7900564479868915e+01 0.0000000000000000e+00  1.8167264401287235e+00 8.5778035799674441e+00 0.0000000000000000e+00  2.2914561228871335e+00 1.7954609093084350e+01 0.0000000000000000e+00  2.1167377438057380e+00 1.4524457477576741e+01 0.0000000000000000e+00  1.8375137795458982e+00 9.0502106682569412e+00 0.0000000000000000e+00  2.3846398017576225e+00 1.9823873686310382e+01 0.0000000000000000e+00  1.8979860406784046e+00 1.0451394081365281e+01 0.0000000000000000e+00  2.1992678290611467e+00 1.6366894677926187e+01 0.0000000000000000e+00  1.8211274771768198e+00 8.9319766812756463e+00 0.0000000000000000e+00  2.6024885565884635e+00 2.3989159243993232e+01 0.0000000000000000e+00  1.4672800874627989e+00 1.6087069368639650e+00 0.0000000000000000e+00  2.4902376651232063e+00 2.2007368987409983e+01 0.0000000000000000e+00  1.9559944342123108e+00 1.1737118332907954e+01 0.0000000000000000e+00  2.1414336347363596e+00 1.5541793382195760e+01 0.0000000000000000e+00  1.7740940471195223e+00 8.2637722508978744e+00 0.0000000000000000e+00  2.5237387892834380e+00 2.2685761680767470e+01 0.0000000000000000e+00  1.8433052879799376e+00 9.5787798798612531e+00 0.0000000000000000e+00  1.8538091855238898e+00 9.6033012810232421e+00 0.0000000000000000e+00  2.5021150189287189e+00 2.2537935208370058e+01 0.0000000000000000e+00  1.8221692471429052e+00 9.4728664698455241e+00 0.0000000000000000e+00  2.0244991799088803e+00 1.3465280545152254e+01 0.0000000000000000e+00  1.9609742974168245e+00 1.2365134379687044e+01 0.0000000000000000e+00  2.6391450276267010e+00 2.4897228010120319e+01 0.0000000000000000e+00  1.1957272825546408e+00 -3.5592873225341566e+00 0.0000000000000000e+00  2.6859383863345139e+00 2.6126192675510740e+01 0.0000000000000000e+00  1.8555423940768765e+00 1.0381887892674897e+01 0.0000000000000000e+00  2.1973089783867521e+00 1.7272236833165653e+01 0.0000000000000000e+00  1.4781774357991866e+00 2.9785547646160904e+00 0.0000000000000000e+00  2.9135844380778009e+00 2.9812259285507480e+01 0.0000000000000000e+00  1.5006073168414125e+00 3.1571659176153157e+00 0.0000000000000000e+00  1.9560121574063623e+00 1.2258155090146049e+01 0.0000000000000000e+00  2.3953245872901969e+00 2.0989237526993332e+01 0.0000000000000000e+00  1.9826056605054039e+00 1.3620596746310191e+01 0.0000000000000000e+00  1.7639404903360387e+00 8.8219452786115991e+00 0.0000000000000000e+00  2.0076384113834029e+00 1.3269681704591839e+01 0.0000000000000000e+00  2.7565651361647028e+00 2.7495746056310395e+01 0.0000000000000000e+00  1.0908202299222358e+00 -5.5977273229937996e+00 0.0000000000000000e+00  2.5637779199206427e+00 2.4198227988915516e+01 0.0000000000000000e+00  1.9797934570524784e+00 1.4022122165158745e+01 0.0000000000000000e+00  2.2459692387176755e+00 1.8067650815298713e+01 0.0000000000000000e+00  1.1810127212525388e+00 -2.0289684373258132e+00 0.0000000000000000e+00  2.9990658426098480e+00 3.1453792942903128e+01 0.0000000000000000e+00  1.6895005215147463e+00 6.9427306868920553e+00 0.0000000000000000e+00  1.6411938146563732e+00 7.8582299673669285e+00 0.0000000000000000e+00  2.2707701789068500e+00 1.8546763593074260e+01 0.0000000000000000e+00  2.3528875059123946e+00 2.0935972844135119e+01 0.0000000000000000e+00  1.6048610644439194e+00 6.7474889404402543e+00 0.0000000000000000e+00  1.7304363079909792e+00 7.1488741340331661e+00 0.0000000000000000e+00  2.9571868786248787e+00 3.2137203740442501e+01 0.0000000000000000e+00  1.3397301806428235e+00 4.5047736863871768e-01 0.0000000000000000e+00  1.9433615984753614e+00 1.2737691285290749e+01 0.0000000000000000e+00  2.1093523212807455e+00 1.8010543471202567e+01 0.0000000000000000e+00  2.5209707556574070e+00 2.2997894700981742e+01 0.0000000000000000e+00  1.1450887088073693e+00 -2.8064335982597721e+00 0.0000000000000000e+00  2.1409273887007290e+00 1.6492904947617227e+01 0.0000000000000000e+00  2.7837389167465076e+00 2.7711943216244670e+01 0.0000000000000000e+00  1.2586448506345356e+00 3.3545267503478422e-02 0.0000000000000000e+00  1.9630598577653848e+00 1.4102263912037095e+01 0.0000000000000000e+00  2.1589059359317111e+00 1.8818480627260048e+01 0.0000000000000000e+00  2.6095021488245478e+00 2.4320228709477139e+01 0.0000000000000000e+00  7.0889123986842062e-01 -8.1994515319506380e+00 0.0000000000000000e+00  3.4279277763887896e+00 1.6395573765685263e+01 0.0000000000000000e+00  3.7288713600950025e+00 -8.5612251108217876e+00 0.0000000000000000e+00  5.8403430733328754e-01 -7.2048436266789979e+00 0.0000000000000000e+00  3.0413015554491873e+00 3.6687613526991228e+01 0.0000000000000000e+00  3.1675586666555771e+00 -1.4610653253347339e+01 0.0000000000000000e+00  2.4876128405084890e+00 3.1827322165788798e+00 0.0000000000000000e+00  3.0408261401913892e+00 1.7944603793430208e+01 0.0000000000000000e+00  3.5818210857648385e+00 -1.2418472907722919e+01 0.0000000000000000e+00  2.2716156196469450e+00 1.9205229066794316e-01 0.0000000000000000e+00  2.8327467256349186e+00 1.5119882516934567e+01 0.0000000000000000e+00  4.2487965568894595e+00 -3.0092880523139335e+01 0.0000000000000000e+00  1.1889482664087356e+00 2.5084506412604984e-01 0.0000000000000000e+00  3.3046833891577436e+00 2.6511286683205046e+01 0.0000000000000000e+00  3.3080638175083976e+00 -1.6142655618277658e+01 0.0000000000000000e+00  2.2256745380500380e+00 3.7324577520024795e+00 0.0000000000000000e+00  3.3410522479901315e+00 2.6511403859256369e+01 0.0000000000000000e+00  3.1083132842241370e+00 -2.5575349593411513e+01 0.0000000000000000e+00  2.7595160295100172e+00 -9.7960337490360718e+00 0.0000000000000000e+00  3.6476249257666788e+00 2.2519698500773590e+01 0.0000000000000000e+00  2.0229702292614782e+00 -1.3789158851805460e+01 0.0000000000000000e+00  1.8099403532487457e+00 4.8776604265869707e+00 0.0000000000000000e+00  4.1549082858594311e+00 1.3588322813402931e+01 0.0000000000000000e+00  2.2739781935040351e+00 -2.0463521681503238e+01 0.0000000000000000e+00  2.8027031351991898e+00 2.7322015749250756e+01 0.0000000000000000e+00  3.2238629460753732e+00 4.8035249661013655e+00 0.0000000000000000e+00  2.6618491139763334e+00 -3.2231011842809771e+01 0.0000000000000000e+00  2.5841906266497645e+00 1.5663687923064014e+01 0.0000000000000000e+00  3.6625334248678802e+00 0.0000000000000000e+00 0.0000000000000000e+00  </DataArray> 
</PointData> 
</Piece>
</UnstructuredGrid>
</VTKFile>