<?xml version="1.0"?>
<VTKFile type="UnstructuredGrid"  version="0.1"  >
<UnstructuredGrid>
<Piece  NumberOfPoints="201" NumberOfCells="200">
<Points>
<DataArray  type="Float64"  NumberOfComponents="3"  format="ascii">-5 0 0  -4.95 0 0  -4.9 0 0  -4.85 0 0  -4.8 0 0  -4.75 0 0  -4.7 0 0  -4.65 0 0  -4.6 0 0  -4.55 0 0  -4.5 0 0  -4.45 0 0  -4.4 0 0  -4.35 0 0  -4.3 0 0  -4.25 0 0  -4.2 0 0  -4.15 0 0  -4.1 0 0  -4.05 0 0  -4 0 0  -3.95 0 0  -3.9 0 0  -3.85 0 0  -3.8 0 0  -3.75 0 0  -3.7 0 0  -3.65 0 0  -3.6 0 0  -3.55 0 0  -3.5 0 0  -3.45 0 0  -3.4 0 0  -3.35 0 0  -3.3 0 0  -3.25 0 0  -3.2 0 0  -3.15 0 0  -3.1 0 0  -3.05 0 0  -3 0 0  -2.95 0 0  -2.9 0 0  -2.85 0 0  -2.8 0 0  -2.75 0 0  -2.7 0 0  -2.65 0 0  -2.6 0 0  -2.55 0 0  -2.5 0 0  -2.45 0 0  -2.4 0 0  -2.35 0 0  -2.3 0 0  -2.25 0 0  -2.2 0 0  -2.15 0 0  -2.1 0 0  -2.05 0 0  -2 0 0  -1.95 0 0  -1.9 0 0  -1.85 0 0  -1.8 0 0  -1.75 0 0  -1.7 0 0  -1.65 0 0  -1.6 0 0  -1.55 0 0  -1.5 0 0  -1.45 0 0  -1.4 0 0  -1.35 0 0  -1.3 0 0  -1.25 0 0  -1.2 0 0  -1.15 0 0  -1.1 0 0  -1.05 0 0  -1 0 0  -0.9500000000000002 0 0  -0.9000000000000004 0 0  -0.8499999999999996 0 0  -0.7999999999999998 0 0  -0.75 0 0  -0.7000000000000002 0 0  -0.6500000000000004 0 0  -0.5999999999999996 0 0  -0.5499999999999998 0 0  -0.5 0 0  -0.4500000000000002 0 0  -0.4000000000000004 0 0  -0.3499999999999996 0 0  -0.2999999999999998 0 0  -0.25 0 0  -0.2000000000000002 0 0  -0.1500000000000004 0 0  -0.09999999999999964 0 0  -0.04999999999999982 0 0  0 0 0  0.04999999999999982 0 0  0.09999999999999964 0 0  0.1500000000000004 0 0  0.2000000000000002 0 0  0.25 0 0  0.2999999999999998 0 0  0.3499999999999996 0 0  0.4000000000000004 0 0  0.4500000000000002 0 0  0.5 0 0  0.5499999999999998 0 0  0.5999999999999996 0 0  0.6500000000000004 0 0  0.7000000000000002 0 0  0.75 0 0  0.7999999999999998 0 0  0.8499999999999996 0 0  0.9000000000000004 0 0  0.9500000000000002 0 0  1 0 0  1.05 0 0  1.1 0 0  1.15 0 0  1.2 0 0  1.25 0 0  1.3 0 0  1.35 0 0  1.4 0 0  1.45 0 0  1.5 0 0  1.55 0 0  1.6 0 0  1.65 0 0  1.7 0 0  1.75 0 0  1.8 0 0  1.85 0 0  1.9 0 0  1.95 0 0  2 0 0  2.05 0 0  2.1 0 0  2.15 0 0  2.2 0 0  2.25 0 0  2.3 0 0  2.35 0 0  2.4 0 0  2.45 0 0  2.5 0 0  2.55 0 0  2.6 0 0  2.65 0 0  2.7 0 0  2.75 0 0  2.8 0 0  2.85 0 0  2.9 0 0  2.95 0 0  3 0 0  3.050000000000001 0 0  3.1 0 0  3.15 0 0  3.199999999999999 0 0  3.25 0 0  3.300000000000001 0 0  3.35 0 0  3.4 0 0  3.449999999999999 0 0  3.5 0 0  3.550000000000001 0 0  3.6 0 0  3.65 0 0  3.699999999999999 0 0  3.75 0 0  3.800000000000001 0 0  3.85 0 0  3.9 0 0  3.949999999999999 0 0  4 0 0  4.050000000000001 0 0  4.1 0 0  4.15 0 0  4.199999999999999 0 0  4.25 0 0  4.300000000000001 0 0  4.35 0 0  4.4 0 0  4.449999999999999 0 0  4.5 0 0  4.550000000000001 0 0  4.6 0 0  4.65 0 0  4.699999999999999 0 0  4.75 0 0  4.800000000000001 0 0  4.85 0 0  4.9 0 0  4.949999999999999 0 0  5 0 0  </DataArray>
</Points>
<Cells>
<DataArray  type="UInt32"  Name="connectivity"  format="ascii">0 1  1 2  2 3  3 4  4 5  5 6  6 7  7 8  8 9  9 10  10 11  11 12  12 13  13 14  14 15  15 16  16 17  17 18  18 19  19 20  20 21  21 22  22 23  23 24  24 25  25 26  26 27  27 28  28 29  29 30  30 31  31 32  32 33  33 34  34 35  35 36  36 37  37 38  38 39  39 40  40 41  41 42  42 43  43 44  44 45  45 46  46 47  47 48  48 49  49 50  50 51  51 52  52 53  53 54  54 55  55 56  56 57  57 58  58 59  59 60  60 61  61 62  62 63  63 64  64 65  65 66  66 67  67 68  68 69  69 70  70 71  71 72  72 73  73 74  74 75  75 76  76 77  77 78  78 79  79 80  80 81  81 82  82 83  83 84  84 85  85 86  86 87  87 88  88 89  89 90  90 91  91 92  92 93  93 94  94 95  95 96  96 97  97 98  98 99  99 100  100 101  101 102  102 103  103 104  104 105  105 106  106 107  107 108  108 109  109 110  110 111  111 112  112 113  113 114  114 115  115 116  116 117  117 118  118 119  119 120  120 121  121 122  122 123  123 124  124 125  125 126  126 127  127 128  128 129  129 130  130 131  131 132  132 133  133 134  134 135  135 136  136 137  137 138  138 139  139 140  140 141  141 142  142 143  143 144  144 145  145 146  146 147  147 148  148 149  149 150  150 151  151 152  152 153  153 154  154 155  155 156  156 157  157 158  158 159  159 160  160 161  161 162  162 163  163 164  164 165  165 166  166 167  167 168  168 169  169 170  170 171  171 172  172 173  173 174  174 175  175 176  176 177  177 178  178 179  179 180  180 181  181 182  182 183  183 184  184 185  185 186  186 187  187 188  188 189  189 190  190 191  191 192  192 193  193 194  194 195  195 196  196 197  197 198  198 199  199 200  </DataArray>
<DataArray  type="UInt32"  Name="offsets"  format="ascii">2 4 6 8 10 12 14 16 18 20 22 24 26 28 30 32 34 36 38 40 42 44 46 48 50 52 54 56 58 60 62 64 66 68 70 72 74 76 78 80 82 84 86 88 90 92 94 96 98 100 102 104 106 108 110 112 114 116 118 120 122 124 126 128 130 132 134 136 138 140 142 144 146 148 150 152 154 156 158 160 162 164 166 168 170 172 174 176 178 180 182 184 186 188 190 192 194 196 198 200 202 204 206 208 210 212 214 216 218 220 222 224 226 228 230 232 234 236 238 240 242 244 246 248 250 252 254 256 258 260 262 264 266 268 270 272 274 276 278 280 282 284 286 288 290 292 294 296 298 300 302 304 306 308 310 312 314 316 318 320 322 324 326 328 330 332 334 336 338 340 342 344 346 348 350 352 354 356 358 360 362 364 366 368 370 372 374 376 378 380 382 384 386 388 390 392 394 396 398 400 </DataArray>
<DataArray  type="UInt8"  Name="types"  format="ascii">3 3 3 3 3 3 3 3 3 3 3 3 3 3 3 3 3 3 3 3 3 3 3 3 3 3 3 3 3 3 3 3 3 3 3 3 3 3 3 3 3 3 3 3 3 3 3 3 3 3 3 3 3 3 3 3 3 3 3 3 3 3 3 3 3 3 3 3 3 3 3 3 3 3 3 3 3 3 3 3 3 3 3 3 3 3 3 3 3 3 3 3 3 3 3 3 3 3 3 3 3 3 3 3 3 3 3 3 3 3 3 3 3 3 3 3 3 3 3 3 3 3 3 3 3 3 3 3 3 3 3 3 3 3 3 3 3 3 3 3 3 3 3 3 3 3 3 3 3 3 3 3 3 3 3 3 3 3 3 3 3 3 3 3 3 3 3 3 3 3 3 3 3 3 3 3 3 3 3 3 3 3 3 3 3 3 3 3 3 3 3 3 3 3 3 3 3 3 3 3 </DataArray>
</Cells>
<PointData  Vectors="(s, w)"> 
<DataArray  type="Float64"  Name="(s, w)"  NumberOfComponents="3" format="ascii">2.0982034150049542e+00 0.0000000000000000e+00 0.0000000000000000e+00  2.1041864551084801e+00 1.3169469838927697e-01 0.0000000000000000e+00  2.0981756801359266e+00 2.6511869982038577e-01 0.0000000000000000e+00  2.1041451034497851e+00 3.9506477755286218e-01 0.0000000000000000e+00  2.0980923530460283e+00 5.3021800286273280e-01 0.0000000000000000e+00  2.1040625331391820e+00 6.5837660906506179e-01 0.0000000000000000e+00  2.0979530618589584e+00 7.9527893799822447e-01 0.0000000000000000e+00  2.1039390185594926e+00 9.2159038866514786e-01 0.0000000000000000e+00  2.0977571729211317e+00 1.0602833640545877e+00 0.0000000000000000e+00  2.1037749903343061e+00 1.1846648941467630e+00 0.0000000000000000e+00  2.0975037733395134e+00 1.3252143208864295e+00 0.0000000000000000e+00  2.1035710525886051e+00 1.4475570185770583e+00 0.0000000000000000e+00  2.0971916538277813e+00 1.5900562734866328e+00 0.0000000000000000e+00  2.1033279955865045e+00 1.7102214490589771e+00 0.0000000000000000e+00  2.0968193006145781e+00 1.8547951613677798e+00 0.0000000000000000e+00  2.1030467928261265e+00 1.9726105993718051e+00 0.0000000000000000e+00  2.0963849096233922e+00 2.1194181190890462e+00 0.0000000000000000e+00  2.1027285666555620e+00 2.2346749559895089e+00 0.0000000000000000e+00  2.0958864416682434e+00 2.3839126777513360e+00 0.0000000000000000e+00  2.1023745005550900e+00 2.4963640546614481e+00 0.0000000000000000e+00  2.0953217435337610e+00 2.6482651994373527e+00 0.0000000000000000e+00  2.1019856702494377e+00 2.7576283570884321e+00 0.0000000000000000e+00  2.0946887652299448e+00 2.9124582532848140e+00 0.0000000000000000e+00  2.1015627615847245e+00 3.0184223222423956e+00 0.0000000000000000e+00  2.0939859059837165e+00 3.1764666408439326e+00 0.0000000000000000e+00  2.1011056437327040e+00 3.2787089302372814e+00 0.0000000000000000e+00  2.0932125168118900e+00 3.4402518596638898e+00 0.0000000000000000e+00  2.1006127762600015e+00 3.5384657726364037e+00 0.0000000000000000e+00  2.0923695707019561e+00 3.7037550068528562e+00 0.0000000000000000e+00  2.1000804533811039e+00 3.7976925215516517e+00 0.0000000000000000e+00  2.0914604769427285e+00 3.9668885162183196e+00 0.0000000000000000e+00  2.0995019334412870e+00 4.0564190925722521e+00 0.0000000000000000e+00  2.0904919598578480e+00 4.2295277185477094e+00 0.0000000000000000e+00  2.0988665687063826e+00 4.3147131243398835e+00 0.0000000000000000e+00  2.0894748445450744e+00 4.4915039854404091e+00 0.0000000000000000e+00  2.0981591357664677e+00 4.5726845869013140e+00 0.0000000000000000e+00  2.0884245024352848e+00 4.7526020412029641e+00 0.0000000000000000e+00  2.0973596554110410e+00 4.8304845901659190e+00 0.0000000000000000e+00  2.0873606297334324e+00 5.0125646579192411e+00 0.0000000000000000e+00  2.0964440536214433e+00 5.0882951108714769e+00 0.0000000000000000e+00  2.0863059991757607e+00 5.2711080089428046e+00 0.0000000000000000e+00  2.0953860091787049e+00 5.3463068109162872e+00 0.0000000000000000e+00  2.0852838884845872e+00 5.5279499911136467e+00 0.0000000000000000e+00  2.0941602081419637e+00 5.6046838002486812e+00 0.0000000000000000e+00  2.0843140946933887e+00 5.7828514433498226e+00 0.0000000000000000e+00  2.0927469410881008e+00 5.8635173311706872e+00 0.0000000000000000e+00  2.0834078150020079e+00 6.0356662941991575e+00 0.0000000000000000e+00  2.0911375329929296e+00 6.1227747819725336e+00 0.0000000000000000e+00  2.0825621796964837e+00 6.2863917582164959e+00 0.0000000000000000e+00  2.0893395548286078e+00 6.3822550059717562e+00 0.0000000000000000e+00  2.0817557461438492e+00 6.5352050827608732e+00 0.0000000000000000e+00  2.0873802886523714e+00 6.6415645548131401e+00 0.0000000000000000e+00  2.0809466026769599e+00 6.7824711171768195e+00 0.0000000000000000e+00  2.0853067439893000e+00 6.9001293164853763e+00 0.0000000000000000e+00  2.0800746364944209e+00 7.0287074961131379e+00 0.0000000000000000e+00  2.0831809092153795e+00 7.1572508352029240e+00 0.0000000000000000e+00  2.0790687865124293e+00 7.2745030437877212e+00 0.0000000000000000e+00  2.0810700136332221e+00 7.4122053960295657e+00 0.0000000000000000e+00  2.0778587120593901e+00 7.5203994464684758e+00 0.0000000000000000e+00  2.0790332509831915e+00 7.6643687147927979e+00 0.0000000000000000e+00  2.0763885583501183e+00 7.7667624041828773e+00 0.0000000000000000e+00  2.0771081745214941e+00 7.9133346665872093e+00 0.0000000000000000e+00  2.0746290309184894e+00 8.0136795911917424e+00 0.0000000000000000e+00  2.0753010099106337e+00 8.1589899623657551e+00 0.0000000000000000e+00  2.0725836193480980e+00 8.2609216415932121e+00 0.0000000000000000e+00  2.0735846509532627e+00 8.4015143073963721e+00 0.0000000000000000e+00  2.0702861305411173e+00 8.5079855230595154e+00 0.0000000000000000e+00  2.0719058301025268e+00 8.6412984951102825e+00 0.0000000000000000e+00  2.0677895916537956e+00 8.7542109573955660e+00 0.0000000000000000e+00  2.0701995431414386e+00 8.8788039048269081e+00 0.0000000000000000e+00  2.0651500013841475e+00 8.9989316020451113e+00 0.0000000000000000e+00  2.0684057856337801e+00 9.1144115556341081e+00 0.0000000000000000e+00  2.0624106942021090e+00 9.2416078322938304e+00 0.0000000000000000e+00  2.0664827130724310e+00 9.3483128417798476e+00 0.0000000000000000e+00  2.0595928336133382e+00 9.4818965616493287e+00 0.0000000000000000e+00  2.0644119679862700e+00 9.5804750203407814e+00 0.0000000000000000e+00  2.0566944020851450e+00 9.7196448534646578e+00 0.0000000000000000e+00  2.0621950074049953e+00 9.8106846639879102e+00 0.0000000000000000e+00  2.0536964159710491e+00 9.9548252030053952e+00 0.0000000000000000e+00  2.0598438751566279e+00 1.0038633534708781e+01 0.0000000000000000e+00  2.0505763371325418e+00 1.0187418889008839e+01 0.0000000000000000e+00  2.0573752353624242e+00 1.0263972457181408e+01 0.0000000000000000e+00  2.0473280321511775e+00 1.0417259135350246e+01 0.0000000000000000e+00  2.0547924234806469e+00 1.0486454611564788e+01 0.0000000000000000e+00  2.0439221461414689e+00 1.0644344216393042e+01 0.0000000000000000e+00  2.0519858643913520e+00 1.0706683650240000e+01 0.0000000000000000e+00  2.0403797534892392e+00 1.0868261258005635e+01 0.0000000000000000e+00  2.0492247081736275e+00 1.0922365780532045e+01 0.0000000000000000e+00  2.0374248534185364e+00 1.1083444420407560e+01 0.0000000000000000e+00  2.0459585399609441e+00 1.1137409110131298e+01 0.0000000000000000e+00  2.0326024865090067e+00 1.1307635902182282e+01 0.0000000000000000e+00  2.0409747060127845e+00 1.1360013928184173e+01 0.0000000000000000e+00  2.0351450862108309e+00 1.1474215992631704e+01 0.0000000000000000e+00  2.0415254439842023e+00 1.1538442282375957e+01 0.0000000000000000e+00  2.0240401530422605e+00 1.1732769725507882e+01 0.0000000000000000e+00  2.0207762035742269e+00 1.1859034185900342e+01 0.0000000000000000e+00  2.0420835278350773e+00 1.1783398289725563e+01 0.0000000000000000e+00  2.0326380191276212e+00 1.1950243199533107e+01 0.0000000000000000e+00  1.9815591071969441e+00 1.2357263618600957e+01 0.0000000000000000e+00  2.0436137775398802e+00 1.2043014016645257e+01 0.0000000000000000e+00  2.0027074698138465e+00 1.2383976156612919e+01 0.0000000000000000e+00  2.0191933514370635e+00 1.2365931623031614e+01 0.0000000000000000e+00  2.0113659622855127e+00 1.2486764758489089e+01 0.0000000000000000e+00  2.0106807200994274e+00 1.2576317819905663e+01 0.0000000000000000e+00  2.0071618209745896e+00 1.2666139683558640e+01 0.0000000000000000e+00  2.0052969370467255e+00 1.2759688798468892e+01 0.0000000000000000e+00  2.0018010987802701e+00 1.2845965775257046e+01 0.0000000000000000e+00  2.0000080764831214e+00 1.2935458662402892e+01 0.0000000000000000e+00  1.9963255910956532e+00 1.3019369041635874e+01 0.0000000000000000e+00  1.9942053619512761e+00 1.3107096460752224e+01 0.0000000000000000e+00  1.9908759572091750e+00 1.3185276434057689e+01 0.0000000000000000e+00  1.9880851046489976e+00 1.3273120292852056e+01 0.0000000000000000e+00  1.9849810325801123e+00 1.3346226460928026e+01 0.0000000000000000e+00  1.9820441239442572e+00 1.3431011562688543e+01 0.0000000000000000e+00  1.9785918807357936e+00 1.3502210010370039e+01 0.0000000000000000e+00  1.9757287363491047e+00 1.3582626933608454e+01 0.0000000000000000e+00  1.9721209048227371e+00 1.3650688405117204e+01 0.0000000000000000e+00  1.9690018129907521e+00 1.3728538676255758e+01 0.0000000000000000e+00  1.9653638359144947e+00 1.3792643461738216e+01 0.0000000000000000e+00  1.9621171052176352e+00 1.3867218337743534e+01 0.0000000000000000e+00  1.9582777303692709e+00 1.3928192265402856e+01 0.0000000000000000e+00  1.9549270074496663e+00 1.3999334951118314e+01 0.0000000000000000e+00  1.9509801983821846e+00 1.4056690463264321e+01 0.0000000000000000e+00  1.9474688343467281e+00 1.4124575904006168e+01 0.0000000000000000e+00  1.9433912653396155e+00 1.4178629556397693e+01 0.0000000000000000e+00  1.9397581053180943e+00 1.4242725415797022e+01 0.0000000000000000e+00  1.9355792014469073e+00 1.4293893366749749e+01 0.0000000000000000e+00  1.9317755519493449e+00 1.4353694022698930e+01 0.0000000000000000e+00  1.9275454073748002e+00 1.4402866066596028e+01 0.0000000000000000e+00  1.9235502774581672e+00 1.4457106003813388e+01 0.0000000000000000e+00  1.9193446072180846e+00 1.4505835118220807e+01 0.0000000000000000e+00  1.9150929615824646e+00 1.4552679978041402e+01 0.0000000000000000e+00  1.9110319698176528e+00 1.4603143935748443e+01 0.0000000000000000e+00  1.9064815242669826e+00 1.4640027612858583e+01 0.0000000000000000e+00  1.9027534744153471e+00 1.4694532004722431e+01 0.0000000000000000e+00  1.8978998901724291e+00 1.4718937285028581e+01 0.0000000000000000e+00  1.8948130245793071e+00 1.4778360287181139e+01 0.0000000000000000e+00  1.8905518453182608e+00 1.4786490735368359e+01 0.0000000000000000e+00  1.8888195338571325e+00 1.4846233266688326e+01 0.0000000000000000e+00  1.8883531230614177e+00 1.4832009642757953e+01 0.0000000000000000e+00  1.8976391283503873e+00 1.4842302355134864e+01 0.0000000000000000e+00  1.9113006847340492e+00 1.4782814503682951e+01 0.0000000000000000e+00  1.9205054005798097e+00 1.4754611528661639e+01 0.0000000000000000e+00  1.9285577778949359e+00 1.4775553733784728e+01 0.0000000000000000e+00  1.9251296159338389e+00 1.4702498123522748e+01 0.0000000000000000e+00  1.9359593611091606e+00 1.4854316142292108e+01 0.0000000000000000e+00  1.9222186573350741e+00 1.4619049817224905e+01 0.0000000000000000e+00  1.9446387848519215e+00 1.4996441345274770e+01 0.0000000000000000e+00  1.9152703580687127e+00 1.4464548155274162e+01 0.0000000000000000e+00  1.9562655519141194e+00 1.5213606761556598e+01 0.0000000000000000e+00  1.9050936926217814e+00 1.4226322025267363e+01 0.0000000000000000e+00  1.9691559085086812e+00 1.5502124170506047e+01 0.0000000000000000e+00  1.8958812277440593e+00 1.3926751838065316e+01 0.0000000000000000e+00  1.9781371500569049e+00 1.5797917164933269e+01 0.0000000000000000e+00  1.8881667573169318e+00 1.3712342039208947e+01 0.0000000000000000e+00  2.0343569991854751e+00 1.5597189959900117e+01 0.0000000000000000e+00  3.1164503164877204e+00 -6.6543632325854485e-01 0.0000000000000000e+00  2.9973021387518268e+00 9.6496326219293649e-01 0.0000000000000000e+00  3.0384230249082544e+00 1.8425929676069050e-01 0.0000000000000000e+00  3.0860390684642827e+00 -6.5887284788754197e-01 0.0000000000000000e+00  3.0093801779620182e+00 8.1177416999634833e-01 0.0000000000000000e+00  3.0927302665435903e+00 -7.4953906267570380e-01 0.0000000000000000e+00  3.0217411721440968e+00 5.9766053338505443e-01 0.0000000000000000e+00  3.0755818210065886e+00 -4.1070065323651733e-01 0.0000000000000000e+00  3.0404952150620450e+00 2.4544301143706840e-01 0.0000000000000000e+00  3.0603029850542711e+00 -1.1366060429227337e-01 0.0000000000000000e+00  3.0521547672661344e+00 2.7123800939475581e-02 0.0000000000000000e+00  3.0531060671248653e+00 2.8052040403485974e-02 0.0000000000000000e+00  3.0562167583581856e+00 -4.6907894380171705e-02 0.0000000000000000e+00  3.0517526544795706e+00 5.6801734050846493e-02 0.0000000000000000e+00  3.0561907641822539e+00 -4.3901478514838714e-02 0.0000000000000000e+00  3.0527480425214386e+00 3.9636158507901663e-02 0.0000000000000000e+00  3.0550437863770963e+00 -2.0291555090097491e-02 0.0000000000000000e+00  3.0539466587947515e+00 1.7872014061360752e-02 0.0000000000000000e+00  3.0541530653242668e+00 -2.1848372814414329e-03 0.0000000000000000e+00  3.0546336731738242e+00 5.3987362651705829e-03 0.0000000000000000e+00  3.0537797869538990e+00 5.6148265626095872e-03 0.0000000000000000e+00  3.0548501143758089e+00 1.5864403521217206e-03 0.0000000000000000e+00  3.0537423986441214e+00 6.6947149575582142e-03 0.0000000000000000e+00  3.0548326294936539e+00 1.9956563633025007e-03 0.0000000000000000e+00  3.0538230054504174e+00 5.2959482719771795e-03 0.0000000000000000e+00  3.0547597959953028e+00 3.2767513266603247e-03 0.0000000000000000e+00  3.0539003721139535e+00 3.7963448952052013e-03 0.0000000000000000e+00  3.0547077128712008e+00 4.0233795714436065e-03 0.0000000000000000e+00  3.0539402028408644e+00 2.8918607488987356e-03 0.0000000000000000e+00  3.0546868592481125e+00 4.0676924206392087e-03 0.0000000000000000e+00  3.0539500646171551e+00 2.4657077948203677e-03 0.0000000000000000e+00  3.0546844080615609e+00 3.6797083571974702e-03 0.0000000000000000e+00  3.0539461470009286e+00 2.2304465996779562e-03 0.0000000000000000e+00  3.0546874444374748e+00 3.1261754471388027e-03 0.0000000000000000e+00  3.0539394931340165e+00 1.9928440625642529e-03 0.0000000000000000e+00  3.0546895231976379e+00 2.5465030651646253e-03 0.0000000000000000e+00  3.0539345197505412e+00 1.6837964303064294e-03 0.0000000000000000e+00  3.0546893439821989e+00 1.9796105953645178e-03 0.0000000000000000e+00  3.0539317576336344e+00 1.3066323098644311e-03 0.0000000000000000e+00  3.0546878296061855e+00 1.4204222609316339e-03 0.0000000000000000e+00  3.0539304609717903e+00 8.8692661329632032e-04 0.0000000000000000e+00  3.0546861870000490e+00 8.5748099720024586e-04 0.0000000000000000e+00  3.0539299190404781e+00 4.4701441994064121e-04 0.0000000000000000e+00  3.0546851999194717e+00 2.8699248917407930e-04 0.0000000000000000e+00  3.0539297704997121e+00 0.0000000000000000e+00 0.0000000000000000e+00  </DataArray> 
</PointData> 
</Piece>
</UnstructuredGrid>
</VTKFile>