<?xml version="1.0"?>
<VTKFile type="UnstructuredGrid"  version="0.1"  >
<UnstructuredGrid>
<Piece  NumberOfPoints="201" NumberOfCells="200">
<Points>
<DataArray  type="Float64"  NumberOfComponents="3"  format="ascii">-5 0 0  -4.95 0 0  -4.9 0 0  -4.85 0 0  -4.8 0 0  -4.75 0 0  -4.7 0 0  -4.65 0 0  -4.6 0 0  -4.55 0 0  -4.5 0 0  -4.45 0 0  -4.4 0 0  -4.35 0 0  -4.3 0 0  -4.25 0 0  -4.2 0 0  -4.15 0 0  -4.1 0 0  -4.05 0 0  -4 0 0  -3.95 0 0  -3.9 0 0  -3.85 0 0  -3.8 0 0  -3.75 0 0  -3.7 0 0  -3.65 0 0  -3.6 0 0  -3.55 0 0  -3.5 0 0  -3.45 0 0  -3.4 0 0  -3.35 0 0  -3.3 0 0  -3.25 0 0  -3.2 0 0  -3.15 0 0  -3.1 0 0  -3.05 0 0  -3 0 0  -2.95 0 0  -2.9 0 0  -2.85 0 0  -2.8 0 0  -2.75 0 0  -2.7 0 0  -2.65 0 0  -2.6 0 0  -2.55 0 0  -2.5 0 0  -2.45 0 0  -2.4 0 0  -2.35 0 0  -2.3 0 0  -2.25 0 0  -2.2 0 0  -2.15 0 0  -2.1 0 0  -2.05 0 0  -2 0 0  -1.95 0 0  -1.9 0 0  -1.85 0 0  -1.8 0 0  -1.75 0 0  -1.7 0 0  -1.65 0 0  -1.6 0 0  -1.55 0 0  -1.5 0 0  -1.45 0 0  -1.4 0 0  -1.35 0 0  -1.3 0 0  -1.25 0 0  -1.2 0 0  -1.15 0 0  -1.1 0 0  -1.05 0 0  -1 0 0  -0.9500000000000002 0 0  -0.9000000000000004 0 0  -0.8499999999999996 0 0  -0.7999999999999998 0 0  -0.75 0 0  -0.7000000000000002 0 0  -0.6500000000000004 0 0  -0.5999999999999996 0 0  -0.5499999999999998 0 0  -0.5 0 0  -0.4500000000000002 0 0  -0.4000000000000004 0 0  -0.3499999999999996 0 0  -0.2999999999999998 0 0  -0.25 0 0  -0.2000000000000002 0 0  -0.1500000000000004 0 0  -0.09999999999999964 0 0  -0.04999999999999982 0 0  0 0 0  0.04999999999999982 0 0  0.09999999999999964 0 0  0.1500000000000004 0 0  0.2000000000000002 0 0  0.25 0 0  0.2999999999999998 0 0  0.3499999999999996 0 0  0.4000000000000004 0 0  0.4500000000000002 0 0  0.5 0 0  0.5499999999999998 0 0  0.5999999999999996 0 0  0.6500000000000004 0 0  0.7000000000000002 0 0  0.75 0 0  0.7999999999999998 0 0  0.8499999999999996 0 0  0.9000000000000004 0 0  0.9500000000000002 0 0  1 0 0  1.05 0 0  1.1 0 0  1.15 0 0  1.2 0 0  1.25 0 0  1.3 0 0  1.35 0 0  1.4 0 0  1.45 0 0  1.5 0 0  1.55 0 0  1.6 0 0  1.65 0 0  1.7 0 0  1.75 0 0  1.8 0 0  1.85 0 0  1.9 0 0  1.95 0 0  2 0 0  2.05 0 0  2.1 0 0  2.15 0 0  2.2 0 0  2.25 0 0  2.3 0 0  2.35 0 0  2.4 0 0  2.45 0 0  2.5 0 0  2.55 0 0  2.6 0 0  2.65 0 0  2.7 0 0  2.75 0 0  2.8 0 0  2.85 0 0  2.9 0 0  2.95 0 0  3 0 0  3.050000000000001 0 0  3.1 0 0  3.15 0 0  3.199999999999999 0 0  3.25 0 0  3.300000000000001 0 0  3.35 0 0  3.4 0 0  3.449999999999999 0 0  3.5 0 0  3.550000000000001 0 0  3.6 0 0  3.65 0 0  3.699999999999999 0 0  3.75 0 0  3.800000000000001 0 0  3.85 0 0  3.9 0 0  3.949999999999999 0 0  4 0 0  4.050000000000001 0 0  4.1 0 0  4.15 0 0  4.199999999999999 0 0  4.25 0 0  4.300000000000001 0 0  4.35 0 0  4.4 0 0  4.449999999999999 0 0  4.5 0 0  4.550000000000001 0 0  4.6 0 0  4.65 0 0  4.699999999999999 0 0  4.75 0 0  4.800000000000001 0 0  4.85 0 0  4.9 0 0  4.949999999999999 0 0  5 0 0  </DataArray>
</Points>
<Cells>
<DataArray  type="UInt32"  Name="connectivity"  format="ascii">0 1  1 2  2 3  3 4  4 5  5 6  6 7  7 8  8 9  9 10  10 11  11 12  12 13  13 14  14 15  15 16  16 17  17 18  18 19  19 20  20 21  21 22  22 23  23 24  24 25  25 26  26 27  27 28  28 29  29 30  30 31  31 32  32 33  33 34  34 35  35 36  36 37  37 38  38 39  39 40  40 41  41 42  42 43  43 44  44 45  45 46  46 47  47 48  48 49  49 50  50 51  51 52  52 53  53 54  54 55  55 56  56 57  57 58  58 59  59 60  60 61  61 62  62 63  63 64  64 65  65 66  66 67  67 68  68 69  69 70  70 71  71 72  72 73  73 74  74 75  75 76  76 77  77 78  78 79  79 80  80 81  81 82  82 83  83 84  84 85  85 86  86 87  87 88  88 89  89 90  90 91  91 92  92 93  93 94  94 95  95 96  96 97  97 98  98 99  99 100  100 101  101 102  102 103  103 104  104 105  105 106  106 107  107 108  108 109  109 110  110 111  111 112  112 113  113 114  114 115  115 116  116 117  117 118  118 119  119 120  120 121  121 122  122 123  123 124  124 125  125 126  126 127  127 128  128 129  129 130  130 131  131 132  132 133  133 134  134 135  135 136  136 137  137 138  138 139  139 140  140 141  141 142  142 143  143 144  144 145  145 146  146 147  147 148  148 149  149 150  150 151  151 152  152 153  153 154  154 155  155 156  156 157  157 158  158 159  159 160  160 161  161 162  162 163  163 164  164 165  165 166  166 167  167 168  168 169  169 170  170 171  171 172  172 173  173 174  174 175  175 176  176 177  177 178  178 179  179 180  180 181  181 182  182 183  183 184  184 185  185 186  186 187  187 188  188 189  189 190  190 191  191 192  192 193  193 194  194 195  195 196  196 197  197 198  198 199  199 200  </DataArray>
<DataArray  type="UInt32"  Name="offsets"  format="ascii">2 4 6 8 10 12 14 16 18 20 22 24 26 28 30 32 34 36 38 40 42 44 46 48 50 52 54 56 58 60 62 64 66 68 70 72 74 76 78 80 82 84 86 88 90 92 94 96 98 100 102 104 106 108 110 112 114 116 118 120 122 124 126 128 130 132 134 136 138 140 142 144 146 148 150 152 154 156 158 160 162 164 166 168 170 172 174 176 178 180 182 184 186 188 190 192 194 196 198 200 202 204 206 208 210 212 214 216 218 220 222 224 226 228 230 232 234 236 238 240 242 244 246 248 250 252 254 256 258 260 262 264 266 268 270 272 274 276 278 280 282 284 286 288 290 292 294 296 298 300 302 304 306 308 310 312 314 316 318 320 322 324 326 328 330 332 334 336 338 340 342 344 346 348 350 352 354 356 358 360 362 364 366 368 370 372 374 376 378 380 382 384 386 388 390 392 394 396 398 400 </DataArray>
<DataArray  type="UInt8"  Name="types"  format="ascii">3 3 3 3 3 3 3 3 3 3 3 3 3 3 3 3 3 3 3 3 3 3 3 3 3 3 3 3 3 3 3 3 3 3 3 3 3 3 3 3 3 3 3 3 3 3 3 3 3 3 3 3 3 3 3 3 3 3 3 3 3 3 3 3 3 3 3 3 3 3 3 3 3 3 3 3 3 3 3 3 3 3 3 3 3 3 3 3 3 3 3 3 3 3 3 3 3 3 3 3 3 3 3 3 3 3 3 3 3 3 3 3 3 3 3 3 3 3 3 3 3 3 3 3 3 3 3 3 3 3 3 3 3 3 3 3 3 3 3 3 3 3 3 3 3 3 3 3 3 3 3 3 3 3 3 3 3 3 3 3 3 3 3 3 3 3 3 3 3 3 3 3 3 3 3 3 3 3 3 3 3 3 3 3 3 3 3 3 3 3 3 3 3 3 3 3 3 3 3 3 </DataArray>
</Cells>
<PointData  Vectors="(s, w)"> 
<DataArray  type="Float64"  Name="(s, w)"  NumberOfComponents="3" format="ascii">2.8199981378398613e+00 0.0000000000000000e+00 0.0000000000000000e+00  2.8362143767504295e+00 1.7854221569444115e-01 0.0000000000000000e+00  2.8278013038856531e+00 7.7430879204531289e-01 0.0000000000000000e+00  2.8260398831946332e+00 8.4242231819530067e-01 0.0000000000000000e+00  2.8320194332215758e+00 1.1557034952146412e+00 0.0000000000000000e+00  2.8297111867686722e+00 1.6865216677230439e+00 0.0000000000000000e+00  2.8217897989287919e+00 1.6940768908706318e+00 0.0000000000000000e+00  2.8371054452691045e+00 2.1357802539590627e+00 0.0000000000000000e+00  2.8203467841546277e+00 2.5642083197643304e+00 0.0000000000000000e+00  2.8290647897508125e+00 2.5540103766425966e+00 0.0000000000000000e+00  2.8286502093685160e+00 3.1248299866771183e+00 0.0000000000000000e+00  2.8225397261528151e+00 3.3925680534192142e+00 0.0000000000000000e+00  2.8242525283882012e+00 3.4531930609380197e+00 0.0000000000000000e+00  2.8288411092876862e+00 4.0786967635777671e+00 0.0000000000000000e+00  2.8138822516062310e+00 4.1932228304062082e+00 0.0000000000000000e+00  2.8282801749148927e+00 4.3471652769187434e+00 0.0000000000000000e+00  2.8148356769217204e+00 4.9822369520410490e+00 0.0000000000000000e+00  2.8159700700663794e+00 4.9026879339611558e+00 0.0000000000000000e+00  2.8153040485389047e+00 5.2314456940537220e+00 0.0000000000000000e+00  2.8084741415081687e+00 5.7265545207819546e+00 0.0000000000000000e+00  2.8024737712635370e+00 5.5448401793879967e+00 0.0000000000000000e+00  2.8052374045712933e+00 6.0132940540891813e+00 0.0000000000000000e+00  2.7864959146859056e+00 6.3207913580395365e+00 0.0000000000000000e+00  2.7938676068800583e+00 6.0805042282540338e+00 0.0000000000000000e+00  2.7757942252357677e+00 6.7110010380438423e+00 0.0000000000000000e+00  2.7742734578238446e+00 6.7069287544764613e+00 0.0000000000000000e+00  2.7657802927374178e+00 6.6039920505344005e+00 0.0000000000000000e+00  2.7545211193403629e+00 7.2366293070622278e+00 0.0000000000000000e+00  2.7482017318503966e+00 7.0183477561565875e+00 0.0000000000000000e+00  2.7424879849649888e+00 7.0929890084842793e+00 0.0000000000000000e+00  2.7215513431130445e+00 7.6818305480882376e+00 0.0000000000000000e+00  2.7321386697732422e+00 7.2788223327958015e+00 0.0000000000000000e+00  2.7039194932937023e+00 7.6315982117089094e+00 0.0000000000000000e+00  2.7050172980529670e+00 7.9935810474787319e+00 0.0000000000000000e+00  2.7010866430736353e+00 7.6247319268454481e+00 0.0000000000000000e+00  2.6777187936850688e+00 8.1128309892131885e+00 0.0000000000000000e+00  2.6783330215863947e+00 8.2989745193926119e+00 0.0000000000000000e+00  2.6782560868182812e+00 7.9806719120494778e+00 0.0000000000000000e+00  2.6407371157379824e+00 8.5833995449595264e+00 0.0000000000000000e+00  2.6653568505443888e+00 8.5250239019810863e+00 0.0000000000000000e+00  2.6394694566390506e+00 8.4146362545917324e+00 0.0000000000000000e+00  2.6192939898374989e+00 8.9412281757882361e+00 0.0000000000000000e+00  2.6381171298113131e+00 8.8173955461790783e+00 0.0000000000000000e+00  2.6123128460233240e+00 8.8155673233367509e+00 0.0000000000000000e+00  2.5881929816649061e+00 9.2968215543845787e+00 0.0000000000000000e+00  2.6224762196465083e+00 9.0897491310360543e+00 0.0000000000000000e+00  2.5722446765344449e+00 9.2724620782750566e+00 0.0000000000000000e+00  2.5722094233592427e+00 9.5630793686539839e+00 0.0000000000000000e+00  2.5914552070349344e+00 9.4384110411761615e+00 0.0000000000000000e+00  2.5463787149616546e+00 9.6447675531483625e+00 0.0000000000000000e+00  2.5429588978842874e+00 9.8538184714812456e+00 0.0000000000000000e+00  2.5716339434373303e+00 9.7393378650134075e+00 0.0000000000000000e+00  2.5082472423655018e+00 1.0040318430640561e+01 0.0000000000000000e+00  2.5268159217816639e+00 1.0078307383220981e+01 0.0000000000000000e+00  2.5379724889010129e+00 1.0108421190923568e+01 0.0000000000000000e+00  2.4853235859532385e+00 1.0358698736440360e+01 0.0000000000000000e+00  2.4961658431925562e+00 1.0357249137565971e+01 0.0000000000000000e+00  2.5180474148916168e+00 1.0423507340381523e+01 0.0000000000000000e+00  2.4504289932151515e+00 1.0722943890886265e+01 0.0000000000000000e+00  2.4772509328605552e+00 1.0575045995746811e+01 0.0000000000000000e+00  2.4852162073529320e+00 1.0777316777142929e+01 0.0000000000000000e+00  2.4305481869768637e+00 1.1031667857810394e+01 0.0000000000000000e+00  2.4434845444312221e+00 1.0848255134631490e+01 0.0000000000000000e+00  2.4655556200449471e+00 1.1043793347089732e+01 0.0000000000000000e+00  2.3981773390774501e+00 1.1380562198098636e+01 0.0000000000000000e+00  2.4209995298177214e+00 1.1078070150303290e+01 0.0000000000000000e+00  2.4338644267441936e+00 1.1326102165479044e+01 0.0000000000000000e+00  2.3791505923186835e+00 1.1673801049212816e+01 0.0000000000000000e+00  2.3843919712175516e+00 1.1351164114245790e+01 0.0000000000000000e+00  2.4145095097018610e+00 1.1539284991974386e+01 0.0000000000000000e+00  2.3502405379645732e+00 1.2013424822350505e+01 0.0000000000000000e+00  2.3584348098033749e+00 1.1609881494054957e+01 0.0000000000000000e+00  2.3831033332725573e+00 1.1737339367843342e+01 0.0000000000000000e+00  2.3334519314947446e+00 1.2310411976420930e+01 0.0000000000000000e+00  2.3230626882515359e+00 1.1932966511014063e+01 0.0000000000000000e+00  2.3605012149184592e+00 1.1900268477882230e+01 0.0000000000000000e+00  2.3077397384561809e+00 1.2573119269360758e+01 0.0000000000000000e+00  2.2963692693373527e+00 1.2273576367457059e+01 0.0000000000000000e+00  2.3295913777727724e+00 1.2051087642236761e+01 0.0000000000000000e+00  2.2889689908586668e+00 1.2804866613225631e+01 0.0000000000000000e+00  2.2655239632872353e+00 1.2631951624816672e+01 0.0000000000000000e+00  2.3037945295898155e+00 1.2219568200396937e+01 0.0000000000000000e+00  2.2606893495110816e+00 1.2926463320740931e+01 0.0000000000000000e+00  2.2422512669230192e+00 1.3021324363951562e+01 0.0000000000000000e+00  2.2769065932878836e+00 1.2430185122844328e+01 0.0000000000000000e+00  2.2320970697027591e+00 1.3016694221257906e+01 0.0000000000000000e+00  2.2149253729747787e+00 1.3328484489192268e+01 0.0000000000000000e+00  2.2603049954983399e+00 1.2731962456635699e+01 0.0000000000000000e+00  2.1900030015738192e+00 1.3051069787312876e+01 0.0000000000000000e+00  2.1950758834352313e+00 1.3556353156240638e+01 0.0000000000000000e+00  2.2477994544211977e+00 1.3135979276877348e+01 0.0000000000000000e+00  2.1418783785034123e+00 1.3149200253216900e+01 0.0000000000000000e+00  2.1756653352413169e+00 1.3503242069149291e+01 0.0000000000000000e+00  2.2401372957596606e+00 1.3696347215011260e+01 0.0000000000000000e+00  2.0734722917552113e+00 1.3380696840591607e+01 0.0000000000000000e+00  2.1985256745163020e+00 1.3032287254632145e+01 0.0000000000000000e+00  2.1514170491714508e+00 1.4884651375783912e+01 0.0000000000000000e+00  2.1289717270412498e+00 1.2902229123009578e+01 0.0000000000000000e+00  2.0874123508447378e+00 1.3299734277681674e+01 0.0000000000000000e+00  2.1900050527293864e+00 1.5142844549502335e+01 0.0000000000000000e+00  2.0687319120547012e+00 1.3340974079056194e+01 0.0000000000000000e+00  2.0614239782713697e+00 1.2930603101481088e+01 0.0000000000000000e+00  2.1759124257174491e+00 1.5710826694266283e+01 0.0000000000000000e+00  2.0716743897657550e+00 1.3449979551036645e+01 0.0000000000000000e+00  2.0243790714381311e+00 1.2584911832902350e+01 0.0000000000000000e+00  2.2012101503083290e+00 1.5947478805421079e+01 0.0000000000000000e+00  2.0733888280471255e+00 1.3622980697833688e+01 0.0000000000000000e+00  1.9973519592978426e+00 1.2036940052801176e+01 0.0000000000000000e+00  2.2090106560271057e+00 1.6385358825319088e+01 0.0000000000000000e+00  2.0907535435800666e+00 1.3975259073502642e+01 0.0000000000000000e+00  1.9488575542206530e+00 1.1294907323494117e+01 0.0000000000000000e+00  2.2220070010463111e+00 1.6658156085164769e+01 0.0000000000000000e+00  2.1219023848192031e+00 1.4778085550303730e+01 0.0000000000000000e+00  1.8943954978361630e+00 1.0251493322797286e+01 0.0000000000000000e+00  2.2062011717597865e+00 1.6525666725139228e+01 0.0000000000000000e+00  2.1915792371891527e+00 1.6192758098334657e+01 0.0000000000000000e+00  1.8395426706922207e+00 9.3664353064414936e+00 0.0000000000000000e+00  2.1520221859191357e+00 1.5501562585991826e+01 0.0000000000000000e+00  2.2813364054086502e+00 1.8153360580504220e+01 0.0000000000000000e+00  1.8227318845700107e+00 9.1225711984278490e+00 0.0000000000000000e+00  2.0365752688824070e+00 1.3381379082381521e+01 0.0000000000000000e+00  2.3708948981855311e+00 2.0029023622949676e+01 0.0000000000000000e+00  1.8664912717362179e+00 1.0154617499288065e+01 0.0000000000000000e+00  1.8841852598863105e+00 1.0467372953592378e+01 0.0000000000000000e+00  2.4094788097564113e+00 2.0986629153376924e+01 0.0000000000000000e+00  1.9950070526993799e+00 1.2728598472590452e+01 0.0000000000000000e+00  1.7312571719734646e+00 7.6729719745114418e+00 0.0000000000000000e+00  2.3605861095159990e+00 2.0082321767776477e+01 0.0000000000000000e+00  2.1805810973199544e+00 1.6519237754589181e+01 0.0000000000000000e+00  1.6409375273826423e+00 6.0448449880950887e+00 0.0000000000000000e+00  2.1979904131834367e+00 1.6946773481818568e+01 0.0000000000000000e+00  2.3784953237111366e+00 2.0544021165434707e+01 0.0000000000000000e+00  1.6590772437699419e+00 6.5513544719011376e+00 0.0000000000000000e+00  1.9537752682850285e+00 1.2183105596409336e+01 0.0000000000000000e+00  2.5043167170088685e+00 2.3249109542638049e+01 0.0000000000000000e+00  1.8233615098652127e+00 9.7548234882291833e+00 0.0000000000000000e+00  1.6907955248396132e+00 7.2569002588630465e+00 0.0000000000000000e+00  2.4853818448034999e+00 2.2958717109985297e+01 0.0000000000000000e+00  2.0999025253869088e+00 1.5235994867830014e+01 0.0000000000000000e+00  1.5228602532435247e+00 4.2364405527514544e+00 0.0000000000000000e+00  2.2650013898997834e+00 1.8618299949006275e+01 0.0000000000000000e+00  2.4148673077043052e+00 2.1618701389687285e+01 0.0000000000000000e+00  1.5336117975603545e+00 4.6171614342541387e+00 0.0000000000000000e+00  1.9064608765210693e+00 1.1614689820043688e+01 0.0000000000000000e+00  2.5915334693891436e+00 2.5472529848533338e+01 0.0000000000000000e+00  1.8036178239626255e+00 9.7564291712808107e+00 0.0000000000000000e+00  1.5257241959607968e+00 4.5970222787500541e+00 0.0000000000000000e+00  2.5083204477083307e+00 2.3814778840164987e+01 0.0000000000000000e+00  2.2171834746557280e+00 1.7911830553018223e+01 0.0000000000000000e+00  1.3893551265566602e+00 2.3858248058635985e+00 0.0000000000000000e+00  2.0669447777568184e+00 1.5006999291313509e+01 0.0000000000000000e+00  2.6263175435050212e+00 2.6348951400895853e+01 0.0000000000000000e+00  1.5688692571461837e+00 5.6761098978913962e+00 0.0000000000000000e+00  1.5782597451387119e+00 5.8795623376397836e+00 0.0000000000000000e+00  2.5910849430086405e+00 2.5960493579305904e+01 0.0000000000000000e+00  2.1503686420496497e+00 1.6667200622312446e+01 0.0000000000000000e+00  1.2500751039297779e+00 2.4012128583953321e-01 0.0000000000000000e+00  2.1547764591130179e+00 1.6827097499872540e+01 0.0000000000000000e+00  2.6156488241298255e+00 2.6599262945134072e+01 0.0000000000000000e+00  1.5451866700174266e+00 5.5653468652061795e+00 0.0000000000000000e+00  1.4520653709126290e+00 3.8329010592884081e+00 0.0000000000000000e+00  2.6423193578746127e+00 2.7067784210732974e+01 0.0000000000000000e+00  2.1960983097236277e+00 1.7748362119665291e+01 0.0000000000000000e+00  1.1872314907142156e+00 -3.4413869846274586e-01 0.0000000000000000e+00  1.9906778745284046e+00 1.3845343604448194e+01 0.0000000000000000e+00  2.6932209814361512e+00 2.8727655053912894e+01 0.0000000000000000e+00  1.7246752263687173e+00 8.8290808939872338e+00 0.0000000000000000e+00  1.1536431245554841e+00 -1.2681924009130761e+00 0.0000000000000000e+00  2.6017509334926028e+00 2.5864045054674190e+01 0.0000000000000000e+00  2.3042031186387169e+00 2.0968670143681695e+01 0.0000000000000000e+00  1.4479168877819011e+00 4.9003590813205475e+00 0.0000000000000000e+00  1.3404024151973382e+00 1.6139538580969675e+00 0.0000000000000000e+00  3.0277186319672675e+00 3.4087265585058979e+01 0.0000000000000000e+00  1.7597953212081834e+00 9.8597000073604644e+00 0.0000000000000000e+00  1.3369370942190981e+00 4.0208127777231413e+00 0.0000000000000000e+00  1.7109198274987321e+00 9.0505568906146561e+00 0.0000000000000000e+00  3.0314101857098494e+00 3.4268587928784555e+01 0.0000000000000000e+00  1.4627175915436188e+00 3.8039030451665390e+00 0.0000000000000000e+00  1.2113599045075150e+00 9.9679428025288630e-01 0.0000000000000000e+00  2.3337930440580439e+00 2.1203060792828289e+01 0.0000000000000000e+00  2.5279212803282847e+00 2.6331985770423746e+01 0.0000000000000000e+00  1.5528970460639850e+00 6.3186511840586537e+00 0.0000000000000000e+00  9.8154733982864695e-01 -5.1966282390589340e+00 0.0000000000000000e+00  3.0048495524412848e+00 3.2894057736335697e+01 0.0000000000000000e+00  1.9585417046287081e+00 1.5470146493206094e+01 0.0000000000000000e+00  1.5757701949154688e+00 8.3520279952799790e+00 0.0000000000000000e+00  9.3914014245355171e-01 -4.3561062431524045e+00 0.0000000000000000e+00  3.2344595352336292e+00 3.6006085170617823e+01 0.0000000000000000e+00  1.8344219044594257e+00 1.0942230214043050e+01 0.0000000000000000e+00  1.1827115931687753e+00 2.8690286194597499e+00 0.0000000000000000e+00  1.4687612505767860e+00 5.2307461977265968e+00 0.0000000000000000e+00  2.9107920993123670e+00 3.1917443290704902e+01 0.0000000000000000e+00  2.0856000670247234e+00 1.6457579798819150e+01 0.0000000000000000e+00  2.1772165785537627e+00 -2.5993290933324186e+01 0.0000000000000000e+00  3.6914474119467178e+00 2.9078671439016515e+00 0.0000000000000000e+00  2.3040540465631096e+00 3.2839660873317570e+01 0.0000000000000000e+00  2.7410661877929270e+00 -3.6164407180543115e+01 0.0000000000000000e+00  3.5860815089212306e+00 1.0214119337393344e+01 0.0000000000000000e+00  2.6510522091312292e+00 1.9790605475632034e+01 0.0000000000000000e+00  2.2085991789173613e+00 -3.8892553016076292e+01 0.0000000000000000e+00  3.7640596576525600e+00 0.0000000000000000e+00 0.0000000000000000e+00  </DataArray> 
</PointData> 
</Piece>
</UnstructuredGrid>
</VTKFile>