<?xml version="1.0"?>
<VTKFile type="UnstructuredGrid"  version="0.1"  >
<UnstructuredGrid>
<Piece  NumberOfPoints="201" NumberOfCells="200">
<Points>
<DataArray  type="Float64"  NumberOfComponents="3"  format="ascii">-5 0 0  -4.95 0 0  -4.9 0 0  -4.85 0 0  -4.8 0 0  -4.75 0 0  -4.7 0 0  -4.65 0 0  -4.6 0 0  -4.55 0 0  -4.5 0 0  -4.45 0 0  -4.4 0 0  -4.35 0 0  -4.3 0 0  -4.25 0 0  -4.2 0 0  -4.15 0 0  -4.1 0 0  -4.05 0 0  -4 0 0  -3.95 0 0  -3.9 0 0  -3.85 0 0  -3.8 0 0  -3.75 0 0  -3.7 0 0  -3.65 0 0  -3.6 0 0  -3.55 0 0  -3.5 0 0  -3.45 0 0  -3.4 0 0  -3.35 0 0  -3.3 0 0  -3.25 0 0  -3.2 0 0  -3.15 0 0  -3.1 0 0  -3.05 0 0  -3 0 0  -2.95 0 0  -2.9 0 0  -2.85 0 0  -2.8 0 0  -2.75 0 0  -2.7 0 0  -2.65 0 0  -2.6 0 0  -2.55 0 0  -2.5 0 0  -2.45 0 0  -2.4 0 0  -2.35 0 0  -2.3 0 0  -2.25 0 0  -2.2 0 0  -2.15 0 0  -2.1 0 0  -2.05 0 0  -2 0 0  -1.95 0 0  -1.9 0 0  -1.85 0 0  -1.8 0 0  -1.75 0 0  -1.7 0 0  -1.65 0 0  -1.6 0 0  -1.55 0 0  -1.5 0 0  -1.45 0 0  -1.4 0 0  -1.35 0 0  -1.3 0 0  -1.25 0 0  -1.2 0 0  -1.15 0 0  -1.1 0 0  -1.05 0 0  -1 0 0  -0.9500000000000002 0 0  -0.9000000000000004 0 0  -0.8499999999999996 0 0  -0.7999999999999998 0 0  -0.75 0 0  -0.7000000000000002 0 0  -0.6500000000000004 0 0  -0.5999999999999996 0 0  -0.5499999999999998 0 0  -0.5 0 0  -0.4500000000000002 0 0  -0.4000000000000004 0 0  -0.3499999999999996 0 0  -0.2999999999999998 0 0  -0.25 0 0  -0.2000000000000002 0 0  -0.1500000000000004 0 0  -0.09999999999999964 0 0  -0.04999999999999982 0 0  0 0 0  0.04999999999999982 0 0  0.09999999999999964 0 0  0.1500000000000004 0 0  0.2000000000000002 0 0  0.25 0 0  0.2999999999999998 0 0  0.3499999999999996 0 0  0.4000000000000004 0 0  0.4500000000000002 0 0  0.5 0 0  0.5499999999999998 0 0  0.5999999999999996 0 0  0.6500000000000004 0 0  0.7000000000000002 0 0  0.75 0 0  0.7999999999999998 0 0  0.8499999999999996 0 0  0.9000000000000004 0 0  0.9500000000000002 0 0  1 0 0  1.05 0 0  1.1 0 0  1.15 0 0  1.2 0 0  1.25 0 0  1.3 0 0  1.35 0 0  1.4 0 0  1.45 0 0  1.5 0 0  1.55 0 0  1.6 0 0  1.65 0 0  1.7 0 0  1.75 0 0  1.8 0 0  1.85 0 0  1.9 0 0  1.95 0 0  2 0 0  2.05 0 0  2.1 0 0  2.15 0 0  2.2 0 0  2.25 0 0  2.3 0 0  2.35 0 0  2.4 0 0  2.45 0 0  2.5 0 0  2.55 0 0  2.6 0 0  2.65 0 0  2.7 0 0  2.75 0 0  2.8 0 0  2.85 0 0  2.9 0 0  2.95 0 0  3 0 0  3.050000000000001 0 0  3.1 0 0  3.15 0 0  3.199999999999999 0 0  3.25 0 0  3.300000000000001 0 0  3.35 0 0  3.4 0 0  3.449999999999999 0 0  3.5 0 0  3.550000000000001 0 0  3.6 0 0  3.65 0 0  3.699999999999999 0 0  3.75 0 0  3.800000000000001 0 0  3.85 0 0  3.9 0 0  3.949999999999999 0 0  4 0 0  4.050000000000001 0 0  4.1 0 0  4.15 0 0  4.199999999999999 0 0  4.25 0 0  4.300000000000001 0 0  4.35 0 0  4.4 0 0  4.449999999999999 0 0  4.5 0 0  4.550000000000001 0 0  4.6 0 0  4.65 0 0  4.699999999999999 0 0  4.75 0 0  4.800000000000001 0 0  4.85 0 0  4.9 0 0  4.949999999999999 0 0  5 0 0  </DataArray>
</Points>
<Cells>
<DataArray  type="UInt32"  Name="connectivity"  format="ascii">0 1  1 2  2 3  3 4  4 5  5 6  6 7  7 8  8 9  9 10  10 11  11 12  12 13  13 14  14 15  15 16  16 17  17 18  18 19  19 20  20 21  21 22  22 23  23 24  24 25  25 26  26 27  27 28  28 29  29 30  30 31  31 32  32 33  33 34  34 35  35 36  36 37  37 38  38 39  39 40  40 41  41 42  42 43  43 44  44 45  45 46  46 47  47 48  48 49  49 50  50 51  51 52  52 53  53 54  54 55  55 56  56 57  57 58  58 59  59 60  60 61  61 62  62 63  63 64  64 65  65 66  66 67  67 68  68 69  69 70  70 71  71 72  72 73  73 74  74 75  75 76  76 77  77 78  78 79  79 80  80 81  81 82  82 83  83 84  84 85  85 86  86 87  87 88  88 89  89 90  90 91  91 92  92 93  93 94  94 95  95 96  96 97  97 98  98 99  99 100  100 101  101 102  102 103  103 104  104 105  105 106  106 107  107 108  108 109  109 110  110 111  111 112  112 113  113 114  114 115  115 116  116 117  117 118  118 119  119 120  120 121  121 122  122 123  123 124  124 125  125 126  126 127  127 128  128 129  129 130  130 131  131 132  132 133  133 134  134 135  135 136  136 137  137 138  138 139  139 140  140 141  141 142  142 143  143 144  144 145  145 146  146 147  147 148  148 149  149 150  150 151  151 152  152 153  153 154  154 155  155 156  156 157  157 158  158 159  159 160  160 161  161 162  162 163  163 164  164 165  165 166  166 167  167 168  168 169  169 170  170 171  171 172  172 173  173 174  174 175  175 176  176 177  177 178  178 179  179 180  180 181  181 182  182 183  183 184  184 185  185 186  186 187  187 188  188 189  189 190  190 191  191 192  192 193  193 194  194 195  195 196  196 197  197 198  198 199  199 200  </DataArray>
<DataArray  type="UInt32"  Name="offsets"  format="ascii">2 4 6 8 10 12 14 16 18 20 22 24 26 28 30 32 34 36 38 40 42 44 46 48 50 52 54 56 58 60 62 64 66 68 70 72 74 76 78 80 82 84 86 88 90 92 94 96 98 100 102 104 106 108 110 112 114 116 118 120 122 124 126 128 130 132 134 136 138 140 142 144 146 148 150 152 154 156 158 160 162 164 166 168 170 172 174 176 178 180 182 184 186 188 190 192 194 196 198 200 202 204 206 208 210 212 214 216 218 220 222 224 226 228 230 232 234 236 238 240 242 244 246 248 250 252 254 256 258 260 262 264 266 268 270 272 274 276 278 280 282 284 286 288 290 292 294 296 298 300 302 304 306 308 310 312 314 316 318 320 322 324 326 328 330 332 334 336 338 340 342 344 346 348 350 352 354 356 358 360 362 364 366 368 370 372 374 376 378 380 382 384 386 388 390 392 394 396 398 400 </DataArray>
<DataArray  type="UInt8"  Name="types"  format="ascii">3 3 3 3 3 3 3 3 3 3 3 3 3 3 3 3 3 3 3 3 3 3 3 3 3 3 3 3 3 3 3 3 3 3 3 3 3 3 3 3 3 3 3 3 3 3 3 3 3 3 3 3 3 3 3 3 3 3 3 3 3 3 3 3 3 3 3 3 3 3 3 3 3 3 3 3 3 3 3 3 3 3 3 3 3 3 3 3 3 3 3 3 3 3 3 3 3 3 3 3 3 3 3 3 3 3 3 3 3 3 3 3 3 3 3 3 3 3 3 3 3 3 3 3 3 3 3 3 3 3 3 3 3 3 3 3 3 3 3 3 3 3 3 3 3 3 3 3 3 3 3 3 3 3 3 3 3 3 3 3 3 3 3 3 3 3 3 3 3 3 3 3 3 3 3 3 3 3 3 3 3 3 3 3 3 3 3 3 3 3 3 3 3 3 3 3 3 3 3 3 </DataArray>
</Cells>
<PointData  Vectors="(s, w)"> 
<DataArray  type="Float64"  Name="(s, w)"  NumberOfComponents="3" format="ascii">2.6792580745488346e+00 0.0000000000000000e+00 0.0000000000000000e+00  2.6717394237289294e+00 1.5802171109789154e-01 0.0000000000000000e+00  2.6671481613834258e+00 6.3367340059865795e-01 0.0000000000000000e+00  2.6840861417156905e+00 7.7973879494356202e-01 0.0000000000000000e+00  2.6656440997802555e+00 9.5134444199135793e-01 0.0000000000000000e+00  2.6723818263557786e+00 1.4239587693597258e+00 0.0000000000000000e+00  2.6784912242558931e+00 1.5622508275712661e+00 0.0000000000000000e+00  2.6696608326327596e+00 1.7402766136342647e+00 0.0000000000000000e+00  2.6674515395657390e+00 2.2195669283059969e+00 0.0000000000000000e+00  2.6832123768846392e+00 2.3337512695753793e+00 0.0000000000000000e+00  2.6634025240473940e+00 2.5366721562990162e+00 0.0000000000000000e+00  2.6727300530368083e+00 3.0045459850062688e+00 0.0000000000000000e+00  2.6773906315717046e+00 3.1122088835240826e+00 0.0000000000000000e+00  2.6669004706368056e+00 3.3237188724362241e+00 0.0000000000000000e+00  2.6671667424841528e+00 3.8026147267149097e+00 0.0000000000000000e+00  2.6813740024549357e+00 3.8722467177998769e+00 0.0000000000000000e+00  2.6593377146416946e+00 4.1266267629804965e+00 0.0000000000000000e+00  2.6718364373397678e+00 4.5757204069167239e+00 0.0000000000000000e+00  2.6747209788153818e+00 4.6381713315969542e+00 0.0000000000000000e+00  2.6619102773978986e+00 4.9053680923460883e+00 0.0000000000000000e+00  2.6659537378313778e+00 5.3574749039431353e+00 0.0000000000000000e+00  2.6782137080682702e+00 5.3740280030914702e+00 0.0000000000000000e+00  2.6528632529644778e+00 5.7102581970859845e+00 0.0000000000000000e+00  2.6702913376900899e+00 6.1054122425407300e+00 0.0000000000000000e+00  2.6699579629947143e+00 6.1286732516364806e+00 0.0000000000000000e+00  2.6535486950218514e+00 6.4795064562873721e+00 0.0000000000000000e+00  2.6634541699980869e+00 6.8510368389268494e+00 0.0000000000000000e+00  2.6712111298813284e+00 6.8259266474514471e+00 0.0000000000000000e+00  2.6414020226571613e+00 7.2458751629334444e+00 0.0000000000000000e+00  2.6657146598679535e+00 7.5085768133866040e+00 0.0000000000000000e+00  2.6572401494263658e+00 7.5102617444650326e+00 0.0000000000000000e+00  2.6365461469248772e+00 7.9050511665529344e+00 0.0000000000000000e+00  2.6527598818803222e+00 8.1098080282969693e+00 0.0000000000000000e+00  2.6495900218940203e+00 8.0667820326379882e+00 0.0000000000000000e+00  2.6160586674602171e+00 8.4928633011164081e+00 0.0000000000000000e+00  2.6464297384690911e+00 8.5667261129561521e+00 0.0000000000000000e+00  2.6246771470373886e+00 8.5768931162494155e+00 0.0000000000000000e+00  2.6026223687074381e+00 8.9297321743427052e+00 0.0000000000000000e+00  2.6233254899947971e+00 8.9736787132541007e+00 0.0000000000000000e+00  2.6078073874956882e+00 8.9441944599999115e+00 0.0000000000000000e+00  2.5734831937727729e+00 9.3207475820336310e+00 0.0000000000000000e+00  2.6082754269168551e+00 9.2730812693538898e+00 0.0000000000000000e+00  2.5770100797243676e+00 9.3069596162410058e+00 0.0000000000000000e+00  2.5549640212428835e+00 9.6153513578501340e+00 0.0000000000000000e+00  2.5794260696997222e+00 9.6053692241246065e+00 0.0000000000000000e+00  2.5592971477519404e+00 9.5931013552652935e+00 0.0000000000000000e+00  2.5229433484107782e+00 9.9500025088191446e+00 0.0000000000000000e+00  2.5622271528470115e+00 9.8801651998244342e+00 0.0000000000000000e+00  2.5302120729065427e+00 9.9189651367675484e+00 0.0000000000000000e+00  2.5033449235093568e+00 1.0214722337952120e+01 0.0000000000000000e+00  2.5306125187553565e+00 1.0212080328883207e+01 0.0000000000000000e+00  2.5155963793362899e+00 1.0160598870330906e+01 0.0000000000000000e+00  2.4698052946809330e+00 1.0522824045025819e+01 0.0000000000000000e+00  2.5102751752352881e+00 1.0479917016177904e+01 0.0000000000000000e+00  2.4890168521120817e+00 1.0446549364625806e+01 0.0000000000000000e+00  2.4505933644922435e+00 1.0750530067299705e+01 0.0000000000000000e+00  2.4743618991244163e+00 1.0829878462909383e+01 0.0000000000000000e+00  2.4779607311520828e+00 1.0666485781662223e+01 0.0000000000000000e+00  2.4193325721809571e+00 1.1025180403303176e+01 0.0000000000000000e+00  2.4498909501254169e+00 1.1125171871378218e+01 0.0000000000000000e+00  2.4533057340358813e+00 1.0963866276955724e+01 0.0000000000000000e+00  2.4053721601419866e+00 1.1189240758707006e+01 0.0000000000000000e+00  2.4079257767841842e+00 1.1475337501900524e+01 0.0000000000000000e+00  2.4405965262816314e+00 1.1209788106683938e+01 0.0000000000000000e+00  2.3815113295280579e+00 1.1385697888257001e+01 0.0000000000000000e+00  2.3791439807257877e+00 1.1724652211310749e+01 0.0000000000000000e+00  2.4085261927254025e+00 1.1559775329047321e+01 0.0000000000000000e+00  2.3772364275202449e+00 1.1498886013069983e+01 0.0000000000000000e+00  2.3386353940892008e+00 1.1997101491833691e+01 0.0000000000000000e+00  2.3837203317691862e+00 1.1884756691564556e+01 0.0000000000000000e+00  2.3605394172890839e+00 1.1690118785063055e+01 0.0000000000000000e+00  2.3194132891752872e+00 1.2128143220982409e+01 0.0000000000000000e+00  2.3388532358399905e+00 1.2299063749053980e+01 0.0000000000000000e+00  2.3550030648196350e+00 1.1885365548976635e+01 0.0000000000000000e+00  2.2946462673313412e+00 1.2229502268341317e+01 0.0000000000000000e+00  2.3050243971560169e+00 1.2614852284387299e+01 0.0000000000000000e+00  2.3284632196864834e+00 1.2228019264986075e+01 0.0000000000000000e+00  2.2911505090289537e+00 1.2256536098057941e+01 0.0000000000000000e+00  2.2613308872397053e+00 1.2855780903856347e+01 0.0000000000000000e+00  2.3026353841542453e+00 1.2592834533490752e+01 0.0000000000000000e+00  2.2793721807783074e+00 1.2359129896157697e+01 0.0000000000000000e+00  2.2375426937354193e+00 1.2972114311236789e+01 0.0000000000000000e+00  2.2590343987897334e+00 1.2959044163789832e+01 0.0000000000000000e+00  2.2734888380401035e+00 1.2559717048875051e+01 0.0000000000000000e+00  2.2139692267827402e+00 1.3007569590531917e+01 0.0000000000000000e+00  2.2207989772147547e+00 1.3259996824493694e+01 0.0000000000000000e+00  2.2553895353474416e+00 1.2840052620831285e+01 0.0000000000000000e+00  2.2044739095797308e+00 1.3133047274515109e+01 0.0000000000000000e+00  2.1744582351377670e+00 1.3338681049834683e+01 0.0000000000000000e+00  2.2399427903219391e+00 1.3180786909501403e+01 0.0000000000000000e+00  2.1907366341423233e+00 1.3364136377941072e+01 0.0000000000000000e+00  2.1380667158936419e+00 1.3378271264335742e+01 0.0000000000000000e+00  2.2156577879660317e+00 1.3299001895106004e+01 0.0000000000000000e+00  2.1816818171702610e+00 1.3929530324767269e+01 0.0000000000000000e+00  2.0957461130969057e+00 1.3203650376704083e+01 0.0000000000000000e+00  2.2053385304227291e+00 1.3315525654259273e+01 0.0000000000000000e+00  2.1249248670284433e+00 1.4780806964537234e+01 0.0000000000000000e+00  2.1371063321405415e+00 1.2823203388501298e+01 0.0000000000000000e+00  2.0845316115390453e+00 1.3534297968406287e+01 0.0000000000000000e+00  2.1933277561786531e+00 1.5124576687722255e+01 0.0000000000000000e+00  2.0549832634188614e+00 1.3093689960117143e+01 0.0000000000000000e+00  2.0779907112806923e+00 1.3233227349880801e+01 0.0000000000000000e+00  2.1695579382108452e+00 1.5557618838872214e+01 0.0000000000000000e+00  2.0711856496543701e+00 1.3445269398942600e+01 0.0000000000000000e+00  2.0246773973958176e+00 1.2580317662078555e+01 0.0000000000000000e+00  2.2082854806012042e+00 1.6068282470272877e+01 0.0000000000000000e+00  2.0601314710860388e+00 1.3335608697763579e+01 0.0000000000000000e+00  2.0188556280286987e+00 1.2441958041306492e+01 0.0000000000000000e+00  2.1921931871819518e+00 1.6025329523497103e+01 0.0000000000000000e+00  2.0968397209993861e+00 1.4064406890776297e+01 0.0000000000000000e+00  1.9564460538997823e+00 1.1402535563622815e+01 0.0000000000000000e+00  2.2268413877951914e+00 1.6703320297190931e+01 0.0000000000000000e+00  2.0942463895633221e+00 1.4182760315575207e+01 0.0000000000000000e+00  1.9374139669202288e+00 1.1044479648158257e+01 0.0000000000000000e+00  2.1985892278115244e+00 1.6316470172089996e+01 0.0000000000000000e+00  2.1680152280143332e+00 1.5658574015462596e+01 0.0000000000000000e+00  1.8653307017548399e+00 9.7827911216244949e+00 0.0000000000000000e+00  2.1827758929023107e+00 1.6027242112109278e+01 0.0000000000000000e+00  2.2320841448109494e+00 1.7082960511878120e+01 0.0000000000000000e+00  1.8330859050392267e+00 9.2215835403585888e+00 0.0000000000000000e+00  2.1072727010692862e+00 1.4695549505864543e+01 0.0000000000000000e+00  2.3035781396113233e+00 1.8601135538063993e+01 0.0000000000000000e+00  1.8765699080842249e+00 1.0259633448237491e+01 0.0000000000000000e+00  1.9311961622533345e+00 1.1257721097876979e+01 0.0000000000000000e+00  2.4376459626227276e+00 2.1369601119786498e+01 0.0000000000000000e+00  1.8675287694600782e+00 1.0124155267513022e+01 0.0000000000000000e+00  1.8898680615965329e+00 1.0708252956296500e+01 0.0000000000000000e+00  2.2994672236764440e+00 1.8862946768364964e+01 0.0000000000000000e+00  2.1860448385400355e+00 1.6466738140849809e+01 0.0000000000000000e+00  1.5748290363817832e+00 4.4803590768626211e+00 0.0000000000000000e+00  2.4221090897517144e+00 2.1177602788215093e+01 0.0000000000000000e+00  2.1299310264479954e+00 1.5623028665125609e+01 0.0000000000000000e+00  1.7980827544007432e+00 9.2977456449824363e+00 0.0000000000000000e+00  1.9394816399257675e+00 1.1845893254367729e+01 0.0000000000000000e+00  2.5984615468490797e+00 2.4660019598844841e+01 0.0000000000000000e+00  1.5728786218520323e+00 4.6550642355400909e+00 0.0000000000000000e+00  1.9923604901027685e+00 1.2994278315151348e+01 0.0000000000000000e+00  2.3777758195255529e+00 2.0942158516246000e+01 0.0000000000000000e+00  2.0362619764950707e+00 1.3960997166518979e+01 0.0000000000000000e+00  1.5486327118846337e+00 4.4667233446360761e+00 0.0000000000000000e+00  2.4530348648003879e+00 2.2104198310673585e+01 0.0000000000000000e+00  2.2303616550405723e+00 1.7704688535378846e+01 0.0000000000000000e+00  1.4661477001445284e+00 3.0363696071422259e+00 0.0000000000000000e+00  2.2522110178647821e+00 1.8344723313486263e+01 0.0000000000000000e+00  2.3209715937195705e+00 2.0185478917599671e+01 0.0000000000000000e+00  1.8359828490909729e+00 1.0464702791429282e+01 0.0000000000000000e+00  1.5198179546434418e+00 3.8798987162850849e+00 0.0000000000000000e+00  2.8992109678120612e+00 3.0616129887128835e+01 0.0000000000000000e+00  1.5757562354300636e+00 5.1955526535707692e+00 0.0000000000000000e+00  1.8299932357948774e+00 1.1073137964436848e+01 0.0000000000000000e+00  2.0415347559823251e+00 1.5127993590276864e+01 0.0000000000000000e+00  2.6951084488726518e+00 2.6415774183682387e+01 0.0000000000000000e+00  1.0830245088392949e+00 -4.0681613989688952e+00 0.0000000000000000e+00  2.2784436318099912e+00 1.8552996988378222e+01 0.0000000000000000e+00  2.4144117630244462e+00 2.2670007897625499e+01 0.0000000000000000e+00  1.7979076396152847e+00 1.0489773165038706e+01 0.0000000000000000e+00  1.4508671621016791e+00 3.5000055422191685e+00 0.0000000000000000e+00  2.5426608381192435e+00 2.4569422590407868e+01 0.0000000000000000e+00  2.3176266953353259e+00 1.9621279417420332e+01 0.0000000000000000e+00  1.1289637937949197e+00 -2.9614976092975969e+00 0.0000000000000000e+00  2.3292339651193315e+00 2.0200802535325135e+01 0.0000000000000000e+00  2.3430282854856226e+00 2.2139978164810273e+01 0.0000000000000000e+00  1.8862859488461527e+00 1.1933390268944750e+01 0.0000000000000000e+00  1.1547425095342778e+00 -1.9568167655205666e+00 0.0000000000000000e+00  2.9035019870170449e+00 3.0986419254631169e+01 0.0000000000000000e+00  1.9786891095475556e+00 1.3212318829601008e+01 0.0000000000000000e+00  1.3550753097903685e+00 3.4151988600090952e+00 0.0000000000000000e+00  1.9228402203571400e+00 1.2662752838436576e+01 0.0000000000000000e+00  2.7365392698664990e+00 2.9017005989607078e+01 0.0000000000000000e+00  1.6553590981396518e+00 8.0915130938182518e+00 0.0000000000000000e+00  1.2256624389657422e+00 -6.7175884062483093e-01 0.0000000000000000e+00  2.7160793023619036e+00 2.7629676321108171e+01 0.0000000000000000e+00  2.1588804931815395e+00 1.8369124345932686e+01 0.0000000000000000e+00  1.4161300720843786e+00 3.9736598807599779e+00 0.0000000000000000e+00  1.5444225930992728e+00 5.2338132471612644e+00 0.0000000000000000e+00  2.9254122935659095e+00 3.3109533255889829e+01 0.0000000000000000e+00  1.7726998571251198e+00 9.0729193273250424e+00 0.0000000000000000e+00  1.2134636169689772e+00 9.1179048996653445e-01 0.0000000000000000e+00  2.1230589315025918e+00 1.7486077085009569e+01 0.0000000000000000e+00  2.7085304851308942e+00 2.8219974220949414e+01 0.0000000000000000e+00  1.5471129879509280e+00 5.9145488512937110e+00 0.0000000000000000e+00  1.0889448625017053e+00 -2.2683551273072946e+00 0.0000000000000000e+00  2.8845152018503621e+00 3.0492057423510630e+01 0.0000000000000000e+00  2.0058180660299771e+00 1.6059196608465314e+01 0.0000000000000000e+00  1.5101221517506684e+00 8.5648085448649880e+00 0.0000000000000000e+00  1.1886010316359148e+00 -4.4912291882759643e+00 0.0000000000000000e+00  3.1226368462550154e+00 4.0266683661747265e+01 0.0000000000000000e+00  3.2370706767843545e+00 -2.1690900054206281e+01 0.0000000000000000e+00  2.2685771238268955e+00 -1.4843463943305693e+01 0.0000000000000000e+00  4.0522470545186007e+00 2.7100260410306220e+01 0.0000000000000000e+00  2.1768685090541000e+00 -2.9833089362592958e+01 0.0000000000000000e+00  2.4921896175443412e+00 9.3445672137572195e+00 0.0000000000000000e+00  4.0737783606323648e+00 2.2803623422256973e+00 0.0000000000000000e+00  3.2524591485936556e+00 -1.0815694619182663e+01 0.0000000000000000e+00  4.6094092746109061e-01 -3.4121584423900613e+00 0.0000000000000000e+00  2.2721080659327471e+00 2.8596431509411257e+01 0.0000000000000000e+00  4.1319329658242117e+00 -6.8136740418896489e+00 0.0000000000000000e+00  1.2572492576750436e+00 -1.5661612610887863e+01 0.0000000000000000e+00  3.9221212894435578e+00 1.9962751334854193e+01 0.0000000000000000e+00  3.3661558404021013e+00 -1.4123598238523742e+01 0.0000000000000000e+00  1.2885444665337602e+00 0.0000000000000000e+00 0.0000000000000000e+00  </DataArray> 
</PointData> 
</Piece>
</UnstructuredGrid>
</VTKFile>