<?xml version="1.0"?>
<VTKFile type="UnstructuredGrid"  version="0.1"  >
<UnstructuredGrid>
<Piece  NumberOfPoints="201" NumberOfCells="200">
<Points>
<DataArray  type="Float64"  NumberOfComponents="3"  format="ascii">-5 0 0  -4.95 0 0  -4.9 0 0  -4.85 0 0  -4.8 0 0  -4.75 0 0  -4.7 0 0  -4.65 0 0  -4.6 0 0  -4.55 0 0  -4.5 0 0  -4.45 0 0  -4.4 0 0  -4.35 0 0  -4.3 0 0  -4.25 0 0  -4.2 0 0  -4.15 0 0  -4.1 0 0  -4.05 0 0  -4 0 0  -3.95 0 0  -3.9 0 0  -3.85 0 0  -3.8 0 0  -3.75 0 0  -3.7 0 0  -3.65 0 0  -3.6 0 0  -3.55 0 0  -3.5 0 0  -3.45 0 0  -3.4 0 0  -3.35 0 0  -3.3 0 0  -3.25 0 0  -3.2 0 0  -3.15 0 0  -3.1 0 0  -3.05 0 0  -3 0 0  -2.95 0 0  -2.9 0 0  -2.85 0 0  -2.8 0 0  -2.75 0 0  -2.7 0 0  -2.65 0 0  -2.6 0 0  -2.55 0 0  -2.5 0 0  -2.45 0 0  -2.4 0 0  -2.35 0 0  -2.3 0 0  -2.25 0 0  -2.2 0 0  -2.15 0 0  -2.1 0 0  -2.05 0 0  -2 0 0  -1.95 0 0  -1.9 0 0  -1.85 0 0  -1.8 0 0  -1.75 0 0  -1.7 0 0  -1.65 0 0  -1.6 0 0  -1.55 0 0  -1.5 0 0  -1.45 0 0  -1.4 0 0  -1.35 0 0  -1.3 0 0  -1.25 0 0  -1.2 0 0  -1.15 0 0  -1.1 0 0  -1.05 0 0  -1 0 0  -0.9500000000000002 0 0  -0.9000000000000004 0 0  -0.8499999999999996 0 0  -0.7999999999999998 0 0  -0.75 0 0  -0.7000000000000002 0 0  -0.6500000000000004 0 0  -0.5999999999999996 0 0  -0.5499999999999998 0 0  -0.5 0 0  -0.4500000000000002 0 0  -0.4000000000000004 0 0  -0.3499999999999996 0 0  -0.2999999999999998 0 0  -0.25 0 0  -0.2000000000000002 0 0  -0.1500000000000004 0 0  -0.09999999999999964 0 0  -0.04999999999999982 0 0  0 0 0  0.04999999999999982 0 0  0.09999999999999964 0 0  0.1500000000000004 0 0  0.2000000000000002 0 0  0.25 0 0  0.2999999999999998 0 0  0.3499999999999996 0 0  0.4000000000000004 0 0  0.4500000000000002 0 0  0.5 0 0  0.5499999999999998 0 0  0.5999999999999996 0 0  0.6500000000000004 0 0  0.7000000000000002 0 0  0.75 0 0  0.7999999999999998 0 0  0.8499999999999996 0 0  0.9000000000000004 0 0  0.9500000000000002 0 0  1 0 0  1.05 0 0  1.1 0 0  1.15 0 0  1.2 0 0  1.25 0 0  1.3 0 0  1.35 0 0  1.4 0 0  1.45 0 0  1.5 0 0  1.55 0 0  1.6 0 0  1.65 0 0  1.7 0 0  1.75 0 0  1.8 0 0  1.85 0 0  1.9 0 0  1.95 0 0  2 0 0  2.05 0 0  2.1 0 0  2.15 0 0  2.2 0 0  2.25 0 0  2.3 0 0  2.35 0 0  2.4 0 0  2.45 0 0  2.5 0 0  2.55 0 0  2.6 0 0  2.65 0 0  2.7 0 0  2.75 0 0  2.8 0 0  2.85 0 0  2.9 0 0  2.95 0 0  3 0 0  3.050000000000001 0 0  3.1 0 0  3.15 0 0  3.199999999999999 0 0  3.25 0 0  3.300000000000001 0 0  3.35 0 0  3.4 0 0  3.449999999999999 0 0  3.5 0 0  3.550000000000001 0 0  3.6 0 0  3.65 0 0  3.699999999999999 0 0  3.75 0 0  3.800000000000001 0 0  3.85 0 0  3.9 0 0  3.949999999999999 0 0  4 0 0  4.050000000000001 0 0  4.1 0 0  4.15 0 0  4.199999999999999 0 0  4.25 0 0  4.300000000000001 0 0  4.35 0 0  4.4 0 0  4.449999999999999 0 0  4.5 0 0  4.550000000000001 0 0  4.6 0 0  4.65 0 0  4.699999999999999 0 0  4.75 0 0  4.800000000000001 0 0  4.85 0 0  4.9 0 0  4.949999999999999 0 0  5 0 0  </DataArray>
</Points>
<Cells>
<DataArray  type="UInt32"  Name="connectivity"  format="ascii">0 1  1 2  2 3  3 4  4 5  5 6  6 7  7 8  8 9  9 10  10 11  11 12  12 13  13 14  14 15  15 16  16 17  17 18  18 19  19 20  20 21  21 22  22 23  23 24  24 25  25 26  26 27  27 28  28 29  29 30  30 31  31 32  32 33  33 34  34 35  35 36  36 37  37 38  38 39  39 40  40 41  41 42  42 43  43 44  44 45  45 46  46 47  47 48  48 49  49 50  50 51  51 52  52 53  53 54  54 55  55 56  56 57  57 58  58 59  59 60  60 61  61 62  62 63  63 64  64 65  65 66  66 67  67 68  68 69  69 70  70 71  71 72  72 73  73 74  74 75  75 76  76 77  77 78  78 79  79 80  80 81  81 82  82 83  83 84  84 85  85 86  86 87  87 88  88 89  89 90  90 91  91 92  92 93  93 94  94 95  95 96  96 97  97 98  98 99  99 100  100 101  101 102  102 103  103 104  104 105  105 106  106 107  107 108  108 109  109 110  110 111  111 112  112 113  113 114  114 115  115 116  116 117  117 118  118 119  119 120  120 121  121 122  122 123  123 124  124 125  125 126  126 127  127 128  128 129  129 130  130 131  131 132  132 133  133 134  134 135  135 136  136 137  137 138  138 139  139 140  140 141  141 142  142 143  143 144  144 145  145 146  146 147  147 148  148 149  149 150  150 151  151 152  152 153  153 154  154 155  155 156  156 157  157 158  158 159  159 160  160 161  161 162  162 163  163 164  164 165  165 166  166 167  167 168  168 169  169 170  170 171  171 172  172 173  173 174  174 175  175 176  176 177  177 178  178 179  179 180  180 181  181 182  182 183  183 184  184 185  185 186  186 187  187 188  188 189  189 190  190 191  191 192  192 193  193 194  194 195  195 196  196 197  197 198  198 199  199 200  </DataArray>
<DataArray  type="UInt32"  Name="offsets"  format="ascii">2 4 6 8 10 12 14 16 18 20 22 24 26 28 30 32 34 36 38 40 42 44 46 48 50 52 54 56 58 60 62 64 66 68 70 72 74 76 78 80 82 84 86 88 90 92 94 96 98 100 102 104 106 108 110 112 114 116 118 120 122 124 126 128 130 132 134 136 138 140 142 144 146 148 150 152 154 156 158 160 162 164 166 168 170 172 174 176 178 180 182 184 186 188 190 192 194 196 198 200 202 204 206 208 210 212 214 216 218 220 222 224 226 228 230 232 234 236 238 240 242 244 246 248 250 252 254 256 258 260 262 264 266 268 270 272 274 276 278 280 282 284 286 288 290 292 294 296 298 300 302 304 306 308 310 312 314 316 318 320 322 324 326 328 330 332 334 336 338 340 342 344 346 348 350 352 354 356 358 360 362 364 366 368 370 372 374 376 378 380 382 384 386 388 390 392 394 396 398 400 </DataArray>
<DataArray  type="UInt8"  Name="types"  format="ascii">3 3 3 3 3 3 3 3 3 3 3 3 3 3 3 3 3 3 3 3 3 3 3 3 3 3 3 3 3 3 3 3 3 3 3 3 3 3 3 3 3 3 3 3 3 3 3 3 3 3 3 3 3 3 3 3 3 3 3 3 3 3 3 3 3 3 3 3 3 3 3 3 3 3 3 3 3 3 3 3 3 3 3 3 3 3 3 3 3 3 3 3 3 3 3 3 3 3 3 3 3 3 3 3 3 3 3 3 3 3 3 3 3 3 3 3 3 3 3 3 3 3 3 3 3 3 3 3 3 3 3 3 3 3 3 3 3 3 3 3 3 3 3 3 3 3 3 3 3 3 3 3 3 3 3 3 3 3 3 3 3 3 3 3 3 3 3 3 3 3 3 3 3 3 3 3 3 3 3 3 3 3 3 3 3 3 3 3 3 3 3 3 3 3 3 3 3 3 3 3 </DataArray>
</Cells>
<PointData  Vectors="(s, w)"> 
<DataArray  type="Float64"  Name="(s, w)"  NumberOfComponents="3" format="ascii">3.1290900287613863e+00 0.0000000000000000e+00 0.0000000000000000e+00  3.1934795305462869e+00 -1.4056752506408432e-01 0.0000000000000000e+00  3.1395371490649420e+00 2.6236933211956115e-01 0.0000000000000000e+00  3.1737659318751898e+00 -3.3624048400366691e-01 0.0000000000000000e+00  3.1639430658991912e+00 3.6086112407811699e-01 0.0000000000000000e+00  3.1475945446269011e+00 -3.1721927677521444e-01 0.0000000000000000e+00  3.1862427518050924e+00 2.1717989265313484e-01 0.0000000000000000e+00  3.1321275314856236e+00 -7.0422142968649890e-02 0.0000000000000000e+00  3.1923072803727388e+00 -1.0555726298006772e-01 0.0000000000000000e+00  3.1364909023474996e+00 2.7076228575858907e-01 0.0000000000000000e+00  3.1795679016441145e+00 -4.1448305232891075e-01 0.0000000000000000e+00  3.1559255544166369e+00 4.8320263756367371e-01 0.0000000000000000e+00  3.1581625611329729e+00 -4.8582434505747374e-01 0.0000000000000000e+00  3.1761241050521036e+00 3.8995448402051763e-01 0.0000000000000000e+00  3.1428304670711471e+00 -2.1773906636537019e-01 0.0000000000000000e+00  3.1843626937156952e+00 -2.3771893344637311e-03 0.0000000000000000e+00  3.1417767295301582e+00 2.6030425084091646e-01 0.0000000000000000e+00  3.1787859832455396e+00 -4.6661306584091133e-01 0.0000000000000000e+00  3.1513149602016037e+00 6.3406463408792701e-01 0.0000000000000000e+00  3.1681235424649756e+00 -6.7843361414635450e-01 0.0000000000000000e+00  3.1607968553822636e+00 6.1958100396823501e-01 0.0000000000000000e+00  3.1621015870454445e+00 -4.5269233713026569e-01 0.0000000000000000e+00  3.1634849135370242e+00 1.9514450764451535e-01 0.0000000000000000e+00  3.1618534721554417e+00 8.2557028789469300e-02 0.0000000000000000e+00  3.1629148178730189e+00 -3.5496681193598950e-01 0.0000000000000000e+00  3.1600955188633124e+00 5.5451904353026482e-01 0.0000000000000000e+00  3.1677029630765268e+00 -6.5154612002239798e-01 0.0000000000000000e+00  3.1510929145403614e+00 6.4278353778718034e-01 0.0000000000000000e+00  3.1793966441773227e+00 -5.3044205388027010e-01 0.0000000000000000e+00  3.1398454500573849e+00 3.5493579372418987e-01 0.0000000000000000e+00  3.1871925038699040e+00 -1.6899626519301034e-01 0.0000000000000000e+00  3.1392459900531398e+00 1.4036930801696029e-03 0.0000000000000000e+00  3.1780196437114605e+00 1.1418245931499781e-01 0.0000000000000000e+00  3.1558071849852447e+00 -1.3374307868952889e-01 0.0000000000000000e+00  3.1523722471673215e+00 2.0039710711518505e-01 0.0000000000000000e+00  3.1783787286466971e+00 -6.9853862481855974e-02 0.0000000000000000e+00  3.1262477471025485e+00 2.9600059892168007e-01 0.0000000000000000e+00  3.1848215913215401e+00 -1.2159676271780939e-02 0.0000000000000000e+00  3.1136631052387593e+00 6.6471418809223792e-01 0.0000000000000000e+00  3.1638057973589353e+00 2.2368300420333338e-02 0.0000000000000000e+00  3.1093278798803627e+00 1.2352845517813829e+00 0.0000000000000000e+00  3.1275451146444491e+00 3.3353139299835560e-01 0.0000000000000000e+00  3.0950068814742591e+00 1.6332608000490718e+00 0.0000000000000000e+00  3.0948524656649363e+00 1.1646612744174458e+00 0.0000000000000000e+00  3.0658003383552415e+00 1.7305566302165032e+00 0.0000000000000000e+00  3.0628421970945179e+00 2.2479213626393513e+00 0.0000000000000000e+00  3.0401552075308973e+00 1.9306238594511631e+00 0.0000000000000000e+00  3.0141903150288467e+00 3.0487491616245381e+00 0.0000000000000000e+00  3.0291466870032409e+00 2.5463628818976840e+00 0.0000000000000000e+00  2.9567045885157985e+00 3.5542289955451434e+00 0.0000000000000000e+00  3.0102691254590521e+00 3.2106528155581282e+00 0.0000000000000000e+00  2.9208786221574017e+00 4.2415667500678147e+00 0.0000000000000000e+00  2.9637888268805663e+00 3.5861678659308684e+00 0.0000000000000000e+00  2.9049261942719879e+00 5.0372430433119417e+00 0.0000000000000000e+00  2.9133390453367820e+00 4.1527295561931092e+00 0.0000000000000000e+00  2.8765871422085243e+00 5.3363700811313661e+00 0.0000000000000000e+00  2.8787929609919001e+00 5.2339689108535481e+00 0.0000000000000000e+00  2.8431263165859955e+00 5.3571116628436997e+00 0.0000000000000000e+00  2.8308368514408753e+00 6.1345576650348441e+00 0.0000000000000000e+00  2.8354363462541161e+00 5.8325734293611378e+00 0.0000000000000000e+00  2.7620260645844978e+00 6.5975957338287170e+00 0.0000000000000000e+00  2.8269494026985043e+00 6.3557387250271375e+00 0.0000000000000000e+00  2.7173920801428855e+00 7.3987447030964022e+00 0.0000000000000000e+00  2.7869979609396052e+00 6.3987169819445455e+00 0.0000000000000000e+00  2.6899869023607215e+00 8.3242326495061683e+00 0.0000000000000000e+00  2.7559152022069262e+00 6.8142283088831457e+00 0.0000000000000000e+00  2.6382540955013782e+00 8.5457734958255163e+00 0.0000000000000000e+00  2.7387514241593203e+00 7.6950837808673684e+00 0.0000000000000000e+00  2.6009015703336091e+00 8.8476057645238733e+00 0.0000000000000000e+00  2.6858457408202394e+00 7.9997128636910420e+00 0.0000000000000000e+00  2.5937961824976274e+00 9.5974134362373071e+00 0.0000000000000000e+00  2.6340789264941598e+00 8.4059930330532335e+00 0.0000000000000000e+00  2.5562825373044431e+00 9.6758603849831513e+00 0.0000000000000000e+00  2.6113986164111611e+00 9.3987644106153390e+00 0.0000000000000000e+00  2.5210977567588069e+00 9.7882226722812593e+00 0.0000000000000000e+00  2.5554480397269104e+00 9.6820440925314948e+00 0.0000000000000000e+00  2.5174068760658859e+00 1.0550486151774948e+01 0.0000000000000000e+00  2.5046937395574660e+00 9.9971180224552718e+00 0.0000000000000000e+00  2.4737673720782167e+00 1.0572090280092066e+01 0.0000000000000000e+00  2.4889969443147275e+00 1.0922128713005375e+01 0.0000000000000000e+00  2.4372090949054974e+00 1.0784171447807175e+01 0.0000000000000000e+00  2.4316593729745213e+00 1.0943781328770458e+01 0.0000000000000000e+00  2.4298806855616943e+00 1.1608883233549161e+01 0.0000000000000000e+00  2.3942436914421377e+00 1.1301908563830649e+01 0.0000000000000000e+00  2.3717282559262376e+00 1.1447001834246235e+01 0.0000000000000000e+00  2.3829695351538045e+00 1.2129265290839362e+01 0.0000000000000000e+00  2.3431529320402800e+00 1.1878331110880000e+01 0.0000000000000000e+00  2.3186330661573100e+00 1.1872401617678912e+01 0.0000000000000000e+00  2.3316922473428665e+00 1.2638875328511896e+01 0.0000000000000000e+00  2.2930125588051222e+00 1.2358476309828763e+01 0.0000000000000000e+00  2.2677232990177023e+00 1.2345888485378746e+01 0.0000000000000000e+00  2.2822113839988760e+00 1.3111343911729971e+01 0.0000000000000000e+00  2.2355530066935554e+00 1.2665098300819203e+01 0.0000000000000000e+00  2.2245582214769852e+00 1.2914240257939465e+01 0.0000000000000000e+00  2.2377883602415518e+00 1.3642650333387540e+01 0.0000000000000000e+00  2.1641422253693476e+00 1.2639481654958120e+01 0.0000000000000000e+00  2.1883230737762527e+00 1.3570563802979333e+01 0.0000000000000000e+00  2.2089433947543875e+00 1.4433723228726404e+01 0.0000000000000000e+00  2.0712153183081576e+00 1.2178896274106839e+01 0.0000000000000000e+00  2.1447920449334554e+00 1.4134457184508170e+01 0.0000000000000000e+00  2.1907072606097215e+00 1.5848161800439144e+01 0.0000000000000000e+00  1.9721542013297191e+00 1.1433941589934301e+01 0.0000000000000000e+00  2.0785658351099787e+00 1.4044553144718103e+01 0.0000000000000000e+00  2.2644929352800487e+00 1.7346237991637448e+01 0.0000000000000000e+00  1.9230041196062024e+00 1.0885288590623155e+01 0.0000000000000000e+00  2.0184696987785498e+00 1.2644246332203924e+01 0.0000000000000000e+00  2.3298155412796842e+00 1.9111232069348574e+01 0.0000000000000000e+00  1.9357816164770056e+00 1.1254956744438632e+01 0.0000000000000000e+00  1.8866890322629426e+00 1.0480818416390422e+01 0.0000000000000000e+00  2.3804497866151935e+00 2.0234976377706204e+01 0.0000000000000000e+00  2.0130077603189842e+00 1.3112045896007860e+01 0.0000000000000000e+00  1.7489245282637695e+00 7.8985488769345986e+00 0.0000000000000000e+00  2.3501013304915364e+00 1.9939110260125819e+01 0.0000000000000000e+00  2.1728630510476372e+00 1.6326479285477866e+01 0.0000000000000000e+00  1.6358010348135019e+00 6.0404264931454570e+00 0.0000000000000000e+00  2.2197779889872229e+00 1.7404951343259022e+01 0.0000000000000000e+00  2.3653845791708026e+00 2.0412496699098948e+01 0.0000000000000000e+00  1.6249161833752293e+00 5.9760669875118229e+00 0.0000000000000000e+00  1.9701305962407396e+00 1.2688393424117194e+01 0.0000000000000000e+00  2.5285646099445920e+00 2.3855688162497735e+01 0.0000000000000000e+00  1.7646119402790446e+00 8.8879916806840864e+00 0.0000000000000000e+00  1.6618621714402479e+00 6.8753716980413744e+00 0.0000000000000000e+00  2.5308643835019220e+00 2.4201067760646779e+01 0.0000000000000000e+00  2.0886915987810641e+00 1.5210410515588809e+01 0.0000000000000000e+00  1.4212788987909237e+00 2.7777346855109508e+00 0.0000000000000000e+00  2.2548742413766658e+00 1.8678739554120376e+01 0.0000000000000000e+00  2.4934338132019649e+00 2.3574165328593750e+01 0.0000000000000000e+00  1.4654521635196438e+00 3.8436900404596859e+00 0.0000000000000000e+00  1.7230914670417576e+00 8.4986744305907909e+00 0.0000000000000000e+00  2.6853950572425958e+00 2.7900504273294217e+01 0.0000000000000000e+00  1.9190182483814977e+00 1.2300927776180826e+01 0.0000000000000000e+00  1.2688636880748096e+00 7.4475381897063553e-01 0.0000000000000000e+00  2.2983183864045982e+00 1.9921242696531621e+01 0.0000000000000000e+00  2.5740414833143874e+00 2.5620257090614455e+01 0.0000000000000000e+00  1.3693561038880233e+00 2.7428446468279706e+00 0.0000000000000000e+00  1.5052127651602321e+00 4.8905844149329987e+00 0.0000000000000000e+00  2.7061730844504694e+00 2.8848947632531388e+01 0.0000000000000000e+00  2.1417115109735385e+00 1.6693470888976151e+01 0.0000000000000000e+00  1.1020770115915601e+00 -1.0786712617002978e+00 0.0000000000000000e+00  1.8802843144755226e+00 1.1679407712122453e+01 0.0000000000000000e+00  2.8144533364728517e+00 3.1514055674326276e+01 0.0000000000000000e+00  1.7268978776592931e+00 8.8409390392222242e+00 0.0000000000000000e+00  1.0577541320136463e+00 -1.4057466801080860e+00 0.0000000000000000e+00  2.1868925379186068e+00 1.7680065214875668e+01 0.0000000000000000e+00  2.7546903121330395e+00 3.0233472593398975e+01 0.0000000000000000e+00  1.4555439846797780e+00 4.2645896798891147e+00 0.0000000000000000e+00  1.0888612309625818e+00 -8.2388469437305467e-01 0.0000000000000000e+00  2.3656348168493380e+00 2.1420919859606432e+01 0.0000000000000000e+00  2.6729759641710436e+00 2.8384393582207149e+01 0.0000000000000000e+00  1.3149704675792149e+00 2.1567998430368891e+00 0.0000000000000000e+00  1.1310139223957376e+00 -2.2848381220694264e-01 0.0000000000000000e+00  2.4621311616271191e+00 2.3519368962976046e+01 0.0000000000000000e+00  2.5983160771318907e+00 2.6663549285004031e+01 0.0000000000000000e+00  1.2408882496628011e+00 1.1128070513319439e+00 0.0000000000000000e+00  1.2443842296186154e+00 1.2036705169599582e+00 0.0000000000000000e+00  2.6029033425892956e+00 2.6678840304785133e+01 0.0000000000000000e+00  2.4417854877183416e+00 2.3276356194760506e+01 0.0000000000000000e+00  1.1602466162633214e+00 -4.9804877288672206e-01 0.0000000000000000e+00  9.4960377931955453e-01 2.0055473595671094e-01 0.0000000000000000e+00  1.0167325037044572e+00 -7.8604721838698988e-02 0.0000000000000000e+00  9.9376984862742246e-01 3.3434301280971093e-02 0.0000000000000000e+00  1.0028567997834492e+00 -1.6706484931968822e-02 0.0000000000000000e+00  9.9831174409417911e-01 1.0334682591631802e-02 0.0000000000000000e+00  1.0012094487732961e+00 -7.5230182266908660e-03 0.0000000000000000e+00  9.9904928815193905e-01 5.9463247269818066e-03 0.0000000000000000e+00  1.0007688922954681e+00 -4.8124643925488058e-03 0.0000000000000000e+00  9.9937854924341052e-01 3.8926442559870291e-03 0.0000000000000000e+00  1.0004968225255235e+00 -3.1110592697849732e-03 0.0000000000000000e+00  9.9960842874000377e-01 2.4527633748578342e-03 0.0000000000000000e+00  1.0003041802804868e+00 -1.9049191837910695e-03 0.0000000000000000e+00  9.9976700647368100e-01 1.4593776215129774e-03 0.0000000000000000e+00  1.0001761295921150e+00 -1.1030553289187346e-03 0.0000000000000000e+00  9.9986850138263317e-01 8.2362651515048167e-04 0.0000000000000000e+00  1.0000970423097955e+00 -6.0776772870435895e-04 0.0000000000000000e+00  9.9992916742946658e-01 4.4364273691845562e-04 0.0000000000000000e+00  1.0000511697216714e+00 -3.2047648237308618e-04 0.0000000000000000e+00  9.9996339592749806e-01 2.2925820365426541e-04 0.0000000000000000e+00  1.0000259417733914e+00 -1.6247493153439686e-04 0.0000000000000000e+00  9.9998177739902239e-01 1.1413089934991559e-04 0.0000000000000000e+00  1.0000126922034693e+00 -7.9492397274693357e-05 0.0000000000000000e+00  9.9999123130944612e-01 5.4919463676490772e-05 0.0000000000000000e+00  1.0000060110255604e+00 -3.7647667077909513e-05 0.0000000000000000e+00  9.9999591012925926e-01 2.5615359364893367e-05 0.0000000000000000e+00  1.0000027627410728e+00 -1.7303345320818388e-05 0.0000000000000000e+00  9.9999814667007036e-01 1.1607619412180040e-05 0.0000000000000000e+00  1.0000012349585208e+00 -7.7346756821379557e-06 0.0000000000000000e+00  9.9999918240786767e-01 5.1206611285710065e-06 0.0000000000000000e+00  1.0000005378950247e+00 -3.3688749581179020e-06 0.0000000000000000e+00  9.9999964826040644e-01 2.2029471568463448e-06 0.0000000000000000e+00  1.0000002286602836e+00 -1.4320601242526924e-06 0.0000000000000000e+00  9.9999985219542653e-01 9.2560629944407011e-07 0.0000000000000000e+00  1.0000000950168177e+00 -5.9491411316671934e-07 0.0000000000000000e+00  9.9999993923700625e-01 3.8025057293431661e-07 0.0000000000000000e+00  1.0000000386706664e+00 -2.4167020772132895e-07 0.0000000000000000e+00  9.9999997548742026e-01 1.5264138477886920e-07 0.0000000000000000e+00  1.0000000155063680e+00 -9.5646324087402556e-08 0.0000000000000000e+00  9.9999999016297714e-01 5.9168455168138052e-08 0.0000000000000000e+00  1.0000000063350378e+00 -3.5641449391292795e-08 0.0000000000000000e+00  9.9999999573729448e-01 2.0055212930002959e-08 0.0000000000000000e+00  1.0000000031757270e+00 -9.0010506150006808e-09 0.0000000000000000e+00  9.9999999716198007e-01 0.0000000000000000e+00 0.0000000000000000e+00  </DataArray> 
</PointData> 
</Piece>
</UnstructuredGrid>
</VTKFile>