<?xml version="1.0"?>
<VTKFile type="UnstructuredGrid"  version="0.1"  >
<UnstructuredGrid>
<Piece  NumberOfPoints="201" NumberOfCells="200">
<Points>
<DataArray  type="Float64"  NumberOfComponents="3"  format="ascii">-5 0 0  -4.95 0 0  -4.9 0 0  -4.85 0 0  -4.8 0 0  -4.75 0 0  -4.7 0 0  -4.65 0 0  -4.6 0 0  -4.55 0 0  -4.5 0 0  -4.45 0 0  -4.4 0 0  -4.35 0 0  -4.3 0 0  -4.25 0 0  -4.2 0 0  -4.15 0 0  -4.1 0 0  -4.05 0 0  -4 0 0  -3.95 0 0  -3.9 0 0  -3.85 0 0  -3.8 0 0  -3.75 0 0  -3.7 0 0  -3.65 0 0  -3.6 0 0  -3.55 0 0  -3.5 0 0  -3.45 0 0  -3.4 0 0  -3.35 0 0  -3.3 0 0  -3.25 0 0  -3.2 0 0  -3.15 0 0  -3.1 0 0  -3.05 0 0  -3 0 0  -2.95 0 0  -2.9 0 0  -2.85 0 0  -2.8 0 0  -2.75 0 0  -2.7 0 0  -2.65 0 0  -2.6 0 0  -2.55 0 0  -2.5 0 0  -2.45 0 0  -2.4 0 0  -2.35 0 0  -2.3 0 0  -2.25 0 0  -2.2 0 0  -2.15 0 0  -2.1 0 0  -2.05 0 0  -2 0 0  -1.95 0 0  -1.9 0 0  -1.85 0 0  -1.8 0 0  -1.75 0 0  -1.7 0 0  -1.65 0 0  -1.6 0 0  -1.55 0 0  -1.5 0 0  -1.45 0 0  -1.4 0 0  -1.35 0 0  -1.3 0 0  -1.25 0 0  -1.2 0 0  -1.15 0 0  -1.1 0 0  -1.05 0 0  -1 0 0  -0.9500000000000002 0 0  -0.9000000000000004 0 0  -0.8499999999999996 0 0  -0.7999999999999998 0 0  -0.75 0 0  -0.7000000000000002 0 0  -0.6500000000000004 0 0  -0.5999999999999996 0 0  -0.5499999999999998 0 0  -0.5 0 0  -0.4500000000000002 0 0  -0.4000000000000004 0 0  -0.3499999999999996 0 0  -0.2999999999999998 0 0  -0.25 0 0  -0.2000000000000002 0 0  -0.1500000000000004 0 0  -0.09999999999999964 0 0  -0.04999999999999982 0 0  0 0 0  0.04999999999999982 0 0  0.09999999999999964 0 0  0.1500000000000004 0 0  0.2000000000000002 0 0  0.25 0 0  0.2999999999999998 0 0  0.3499999999999996 0 0  0.4000000000000004 0 0  0.4500000000000002 0 0  0.5 0 0  0.5499999999999998 0 0  0.5999999999999996 0 0  0.6500000000000004 0 0  0.7000000000000002 0 0  0.75 0 0  0.7999999999999998 0 0  0.8499999999999996 0 0  0.9000000000000004 0 0  0.9500000000000002 0 0  1 0 0  1.05 0 0  1.1 0 0  1.15 0 0  1.2 0 0  1.25 0 0  1.3 0 0  1.35 0 0  1.4 0 0  1.45 0 0  1.5 0 0  1.55 0 0  1.6 0 0  1.65 0 0  1.7 0 0  1.75 0 0  1.8 0 0  1.85 0 0  1.9 0 0  1.95 0 0  2 0 0  2.05 0 0  2.1 0 0  2.15 0 0  2.2 0 0  2.25 0 0  2.3 0 0  2.35 0 0  2.4 0 0  2.45 0 0  2.5 0 0  2.55 0 0  2.6 0 0  2.65 0 0  2.7 0 0  2.75 0 0  2.8 0 0  2.85 0 0  2.9 0 0  2.95 0 0  3 0 0  3.050000000000001 0 0  3.1 0 0  3.15 0 0  3.199999999999999 0 0  3.25 0 0  3.300000000000001 0 0  3.35 0 0  3.4 0 0  3.449999999999999 0 0  3.5 0 0  3.550000000000001 0 0  3.6 0 0  3.65 0 0  3.699999999999999 0 0  3.75 0 0  3.800000000000001 0 0  3.85 0 0  3.9 0 0  3.949999999999999 0 0  4 0 0  4.050000000000001 0 0  4.1 0 0  4.15 0 0  4.199999999999999 0 0  4.25 0 0  4.300000000000001 0 0  4.35 0 0  4.4 0 0  4.449999999999999 0 0  4.5 0 0  4.550000000000001 0 0  4.6 0 0  4.65 0 0  4.699999999999999 0 0  4.75 0 0  4.800000000000001 0 0  4.85 0 0  4.9 0 0  4.949999999999999 0 0  5 0 0  </DataArray>
</Points>
<Cells>
<DataArray  type="UInt32"  Name="connectivity"  format="ascii">0 1  1 2  2 3  3 4  4 5  5 6  6 7  7 8  8 9  9 10  10 11  11 12  12 13  13 14  14 15  15 16  16 17  17 18  18 19  19 20  20 21  21 22  22 23  23 24  24 25  25 26  26 27  27 28  28 29  29 30  30 31  31 32  32 33  33 34  34 35  35 36  36 37  37 38  38 39  39 40  40 41  41 42  42 43  43 44  44 45  45 46  46 47  47 48  48 49  49 50  50 51  51 52  52 53  53 54  54 55  55 56  56 57  57 58  58 59  59 60  60 61  61 62  62 63  63 64  64 65  65 66  66 67  67 68  68 69  69 70  70 71  71 72  72 73  73 74  74 75  75 76  76 77  77 78  78 79  79 80  80 81  81 82  82 83  83 84  84 85  85 86  86 87  87 88  88 89  89 90  90 91  91 92  92 93  93 94  94 95  95 96  96 97  97 98  98 99  99 100  100 101  101 102  102 103  103 104  104 105  105 106  106 107  107 108  108 109  109 110  110 111  111 112  112 113  113 114  114 115  115 116  116 117  117 118  118 119  119 120  120 121  121 122  122 123  123 124  124 125  125 126  126 127  127 128  128 129  129 130  130 131  131 132  132 133  133 134  134 135  135 136  136 137  137 138  138 139  139 140  140 141  141 142  142 143  143 144  144 145  145 146  146 147  147 148  148 149  149 150  150 151  151 152  152 153  153 154  154 155  155 156  156 157  157 158  158 159  159 160  160 161  161 162  162 163  163 164  164 165  165 166  166 167  167 168  168 169  169 170  170 171  171 172  172 173  173 174  174 175  175 176  176 177  177 178  178 179  179 180  180 181  181 182  182 183  183 184  184 185  185 186  186 187  187 188  188 189  189 190  190 191  191 192  192 193  193 194  194 195  195 196  196 197  197 198  198 199  199 200  </DataArray>
<DataArray  type="UInt32"  Name="offsets"  format="ascii">2 4 6 8 10 12 14 16 18 20 22 24 26 28 30 32 34 36 38 40 42 44 46 48 50 52 54 56 58 60 62 64 66 68 70 72 74 76 78 80 82 84 86 88 90 92 94 96 98 100 102 104 106 108 110 112 114 116 118 120 122 124 126 128 130 132 134 136 138 140 142 144 146 148 150 152 154 156 158 160 162 164 166 168 170 172 174 176 178 180 182 184 186 188 190 192 194 196 198 200 202 204 206 208 210 212 214 216 218 220 222 224 226 228 230 232 234 236 238 240 242 244 246 248 250 252 254 256 258 260 262 264 266 268 270 272 274 276 278 280 282 284 286 288 290 292 294 296 298 300 302 304 306 308 310 312 314 316 318 320 322 324 326 328 330 332 334 336 338 340 342 344 346 348 350 352 354 356 358 360 362 364 366 368 370 372 374 376 378 380 382 384 386 388 390 392 394 396 398 400 </DataArray>
<DataArray  type="UInt8"  Name="types"  format="ascii">3 3 3 3 3 3 3 3 3 3 3 3 3 3 3 3 3 3 3 3 3 3 3 3 3 3 3 3 3 3 3 3 3 3 3 3 3 3 3 3 3 3 3 3 3 3 3 3 3 3 3 3 3 3 3 3 3 3 3 3 3 3 3 3 3 3 3 3 3 3 3 3 3 3 3 3 3 3 3 3 3 3 3 3 3 3 3 3 3 3 3 3 3 3 3 3 3 3 3 3 3 3 3 3 3 3 3 3 3 3 3 3 3 3 3 3 3 3 3 3 3 3 3 3 3 3 3 3 3 3 3 3 3 3 3 3 3 3 3 3 3 3 3 3 3 3 3 3 3 3 3 3 3 3 3 3 3 3 3 3 3 3 3 3 3 3 3 3 3 3 3 3 3 3 3 3 3 3 3 3 3 3 3 3 3 3 3 3 3 3 3 3 3 3 3 3 3 3 3 3 </DataArray>
</Cells>
<PointData  Vectors="(s, w)"> 
<DataArray  type="Float64"  Name="(s, w)"  NumberOfComponents="3" format="ascii">3.1411145070061672e+00 0.0000000000000000e+00 0.0000000000000000e+00  3.1814223337504348e+00 1.1154283606157661e-01 0.0000000000000000e+00  3.1510494779984586e+00 -1.9938723342300782e-01 0.0000000000000000e+00  3.1635061626288468e+00 2.2572794239022123e-01 0.0000000000000000e+00  3.1706260678946427e+00 -2.0426481777415234e-01 0.0000000000000000e+00  3.1465433447159556e+00 1.3029833480549929e-01 0.0000000000000000e+00  3.1793267222922799e+00 -3.2299792965612632e-02 0.0000000000000000e+00  3.1487279632073477e+00 -5.7546288528790061e-02 0.0000000000000000e+00  3.1672802301405016e+00 1.3162431059080099e-01 0.0000000000000000e+00  3.1681703952797173e+00 -1.4908005523832071e-01 0.0000000000000000e+00  3.1459889027432584e+00 1.6098582466198005e-01 0.0000000000000000e+00  3.1838542694880054e+00 -8.6639526360397734e-02 0.0000000000000000e+00  3.1367571628847251e+00 1.0977043581953194e-01 0.0000000000000000e+00  3.1767774575625132e+00 5.2644898956746580e-02 0.0000000000000000e+00  3.1473859602105727e+00 1.0571576030797962e-01 0.0000000000000000e+00  3.1496971749136682e+00 2.2571013394121672e-01 0.0000000000000000e+00  3.1614172246803611e+00 1.9331355217444604e-01 0.0000000000000000e+00  3.1239693497924117e+00 4.9717827117091556e-01 0.0000000000000000e+00  3.1541183069539978e+00 3.5576836324798727e-01 0.0000000000000000e+00  3.1155928156348112e+00 8.8178761151709439e-01 0.0000000000000000e+00  3.1203446918327775e+00 6.6131751150082774e-01 0.0000000000000000e+00  3.1165080018222646e+00 1.2130254027428853e+00 0.0000000000000000e+00  3.0808901072563142e+00 1.2383376956190277e+00 0.0000000000000000e+00  3.1048691363058181e+00 1.3634733926924900e+00 0.0000000000000000e+00  3.0565050377797003e+00 1.9852385130078061e+00 0.0000000000000000e+00  3.0738895971667239e+00 1.5649146716464162e+00 0.0000000000000000e+00  3.0435278447406824e+00 2.4865463986230130e+00 0.0000000000000000e+00  3.0383342482037934e+00 2.1934531709362797e+00 0.0000000000000000e+00  3.0267432879936096e+00 2.5428029494953042e+00 0.0000000000000000e+00  3.0081438524677551e+00 3.1206185666771296e+00 0.0000000000000000e+00  3.0058650171054389e+00 2.6091023536069780e+00 0.0000000000000000e+00  2.9775094177910022e+00 3.7211701519826406e+00 0.0000000000000000e+00  2.9861062696181166e+00 3.2019064121151426e+00 0.0000000000000000e+00  2.9500517509647555e+00 3.8045220949210448e+00 0.0000000000000000e+00  2.9549475342867741e+00 4.0618870524279522e+00 0.0000000000000000e+00  2.9410139293354001e+00 3.9300180803637823e+00 0.0000000000000000e+00  2.9063667873125301e+00 4.6103102097263511e+00 0.0000000000000000e+00  2.9372211092666061e+00 4.4154486269265103e+00 0.0000000000000000e+00  2.8707989253047734e+00 4.9214007687045704e+00 0.0000000000000000e+00  2.9030837257887252e+00 4.9286924781185855e+00 0.0000000000000000e+00  2.8694399528024341e+00 5.2960906896875199e+00 0.0000000000000000e+00  2.8470044567711725e+00 5.4174762140432806e+00 0.0000000000000000e+00  2.8676071826118923e+00 5.5032708989635504e+00 0.0000000000000000e+00  2.8134703501585490e+00 6.1431547407753113e+00 0.0000000000000000e+00  2.8341190695461114e+00 5.5949924674218110e+00 0.0000000000000000e+00  2.8031174759357138e+00 6.6466714067485446e+00 0.0000000000000000e+00  2.7934152332789379e+00 6.2297652645356987e+00 0.0000000000000000e+00  2.7878850447932919e+00 6.5029566978779831e+00 0.0000000000000000e+00  2.7595020488817967e+00 7.1850763082850975e+00 0.0000000000000000e+00  2.7733466366652033e+00 6.5610733919481783e+00 0.0000000000000000e+00  2.7200703900968342e+00 7.4982878533071329e+00 0.0000000000000000e+00  2.7554240234346246e+00 7.3053817334833564e+00 0.0000000000000000e+00  2.7029691537854310e+00 7.4443602063686223e+00 0.0000000000000000e+00  2.7018231715408945e+00 7.9177497318578514e+00 0.0000000000000000e+00  2.7152178425460418e+00 7.7513068014878961e+00 0.0000000000000000e+00  2.6473308557846154e+00 8.2881944806476326e+00 0.0000000000000000e+00  2.6936223500420065e+00 8.0053065030846700e+00 0.0000000000000000e+00  2.6441595094615233e+00 8.7825790767141729e+00 0.0000000000000000e+00  2.6336357543693842e+00 8.3610268697011740e+00 0.0000000000000000e+00  2.6464947865689221e+00 8.7680301649648644e+00 0.0000000000000000e+00  2.5951610338711437e+00 9.3048124885851369e+00 0.0000000000000000e+00  2.6234231957680088e+00 8.5886706395503865e+00 0.0000000000000000e+00  2.5692136628622242e+00 9.6986312293995631e+00 0.0000000000000000e+00  2.5975970961954999e+00 9.3539698081536287e+00 0.0000000000000000e+00  2.5541257588421038e+00 9.3667265472342383e+00 0.0000000000000000e+00  2.5422667368090277e+00 1.0092955478963827e+01 0.0000000000000000e+00  2.5703780380534704e+00 9.6309707829649120e+00 0.0000000000000000e+00  2.4862559390120555e+00 1.0256129237194765e+01 0.0000000000000000e+00  2.5428176070440194e+00 1.0006435808153832e+01 0.0000000000000000e+00  2.4981748618031583e+00 1.0611885162480039e+01 0.0000000000000000e+00  2.4675162536532600e+00 1.0361003637951800e+01 0.0000000000000000e+00  2.5064596642674788e+00 1.0455639944451486e+01 0.0000000000000000e+00  2.4324376801515308e+00 1.1298259044100293e+01 0.0000000000000000e+00  2.4768998412853360e+00 1.0352247762733878e+01 0.0000000000000000e+00  2.4134462966345458e+00 1.1355490298267013e+01 0.0000000000000000e+00  2.4421933533253357e+00 1.1341737230549448e+01 0.0000000000000000e+00  2.4166497158666882e+00 1.0972889663169820e+01 0.0000000000000000e+00  2.3656678423848509e+00 1.1774847930838140e+01 0.0000000000000000e+00  2.4377096532331239e+00 1.1351726930753825e+01 0.0000000000000000e+00  2.3281839727440805e+00 1.1998110953485147e+01 0.0000000000000000e+00  2.3802276704117205e+00 1.1423193873520542e+01 0.0000000000000000e+00  2.3573283822435238e+00 1.2290189564420642e+01 0.0000000000000000e+00  2.3150048196903703e+00 1.2217107654137303e+01 0.0000000000000000e+00  2.3542661032310646e+00 1.1614588203317391e+01 0.0000000000000000e+00  2.2628569363036362e+00 1.3045943954484409e+01 0.0000000000000000e+00  2.3692857779032335e+00 1.1972815829165905e+01 0.0000000000000000e+00  2.1993940548981552e+00 1.2744586163279378e+01 0.0000000000000000e+00  2.3391208188997763e+00 1.2295431614060670e+01 0.0000000000000000e+00  2.2248193759731616e+00 1.3450859675070358e+01 0.0000000000000000e+00  2.2618781609396406e+00 1.2094151891485735e+01 0.0000000000000000e+00  2.2126830801705082e+00 1.3250308507844096e+01 0.0000000000000000e+00  2.2649879602115934e+00 1.3417898874607191e+01 0.0000000000000000e+00  2.1725083683053454e+00 1.2695979586566303e+01 0.0000000000000000e+00  2.2067789542204608e+00 1.3257330352082471e+01 0.0000000000000000e+00  2.2172448881615581e+00 1.4048873185873624e+01 0.0000000000000000e+00  2.1391301713282878e+00 1.2709211659106639e+01 0.0000000000000000e+00  2.1665955190783652e+00 1.3643744617485613e+01 0.0000000000000000e+00  2.1940180381393350e+00 1.4500263507327281e+01 0.0000000000000000e+00  2.0798394647411476e+00 1.2598670822435420e+01 0.0000000000000000e+00  2.1355945853413676e+00 1.4072659122196701e+01 0.0000000000000000e+00  2.1639470795379019e+00 1.5232795583564487e+01 0.0000000000000000e+00  2.0162715893998269e+00 1.2148414370000655e+01 0.0000000000000000e+00  2.1013926760273498e+00 1.4357706570051938e+01 0.0000000000000000e+00  2.2009289618818895e+00 1.6010641131582219e+01 0.0000000000000000e+00  1.9647155890084724e+00 1.1512314019084036e+01 0.0000000000000000e+00  2.0896319715711353e+00 1.3864120647179792e+01 0.0000000000000000e+00  2.2500131663666330e+00 1.7286285151450173e+01 0.0000000000000000e+00  1.9400296221363409e+00 1.1099044352578176e+01 0.0000000000000000e+00  2.0134697536455333e+00 1.2718450926455612e+01 0.0000000000000000e+00  2.3170347012459827e+00 1.8694025319838484e+01 0.0000000000000000e+00  1.9488962439022659e+00 1.1580548447540558e+01 0.0000000000000000e+00  1.9071616569013774e+00 1.0693009369016186e+01 0.0000000000000000e+00  2.3525960690301408e+00 1.9687249376520572e+01 0.0000000000000000e+00  2.0302343640110365e+00 1.3244441246469343e+01 0.0000000000000000e+00  1.7778618987471282e+00 8.4326506256135190e+00 0.0000000000000000e+00  2.3306130641378879e+00 1.9334452358457952e+01 0.0000000000000000e+00  2.1678821063874572e+00 1.6174978438766452e+01 0.0000000000000000e+00  1.6853147627094578e+00 6.7557367170428222e+00 0.0000000000000000e+00  2.2111228781932915e+00 1.7147237092537349e+01 0.0000000000000000e+00  2.3405155151344710e+00 1.9694904289045446e+01 0.0000000000000000e+00  1.6708724146664418e+00 6.7147828619895469e+00 0.0000000000000000e+00  2.0062721879113665e+00 1.3158842167885208e+01 0.0000000000000000e+00  2.4768196858173384e+00 2.2655536175560233e+01 0.0000000000000000e+00  1.7841058395508214e+00 8.9754949226602179e+00 0.0000000000000000e+00  1.7519311596733833e+00 8.4076185014607301e+00 0.0000000000000000e+00  2.5032234707141194e+00 2.3314484872198829e+01 0.0000000000000000e+00  2.0239465525134701e+00 1.3768951602620421e+01 0.0000000000000000e+00  1.5432848641422163e+00 4.5994888467968362e+00 0.0000000000000000e+00  2.3402623906384825e+00 2.0176203275497365e+01 0.0000000000000000e+00  2.3432462688488687e+00 2.0178093376718518e+01 0.0000000000000000e+00  1.4915396568341217e+00 3.9085048005737018e+00 0.0000000000000000e+00  1.9865177161820800e+00 1.3203081890148260e+01 0.0000000000000000e+00  2.5923140576902197e+00 2.5513418255165718e+01 0.0000000000000000e+00  1.7046254545441299e+00 7.9708778916179481e+00 0.0000000000000000e+00  1.5625681083695200e+00 5.3665284263084159e+00 0.0000000000000000e+00  2.5604958882782634e+00 2.5026897949515334e+01 0.0000000000000000e+00  2.1599934462386803e+00 1.6822232803164802e+01 0.0000000000000000e+00  1.3276877628594950e+00 1.4373151823015142e+00 0.0000000000000000e+00  2.1244334790507153e+00 1.6236919505265803e+01 0.0000000000000000e+00  2.6217537050915576e+00 2.6463798855467022e+01 0.0000000000000000e+00  1.5317975176394136e+00 5.2319599934855656e+00 0.0000000000000000e+00  1.5082635710327896e+00 4.7448800327024960e+00 0.0000000000000000e+00  2.6362969988930849e+00 2.7035740344822468e+01 0.0000000000000000e+00  2.1630448589447631e+00 1.7070876050874944e+01 0.0000000000000000e+00  1.2026423217750184e+00 -6.1612186526413461e-02 0.0000000000000000e+00  2.0062779597529783e+00 1.4068623941299800e+01 0.0000000000000000e+00  2.7345149797796355e+00 2.9330490411182122e+01 0.0000000000000000e+00  1.6063481532898995e+00 6.7279472336057848e+00 0.0000000000000000e+00  1.2632581852374620e+00 1.0494306195920002e+00 0.0000000000000000e+00  2.4876412875818219e+00 2.3996138070760178e+01 0.0000000000000000e+00  2.4697192232637604e+00 2.3551678486915357e+01 0.0000000000000000e+00  1.2241550723847103e+00 6.4502447923493933e-01 0.0000000000000000e+00  1.5440457658397955e+00 5.6822381197746834e+00 0.0000000000000000e+00  2.7634179939385226e+00 3.0263875892604222e+01 0.0000000000000000e+00  2.0829811908325744e+00 1.5557078385511273e+01 0.0000000000000000e+00  1.0543705666913505e+00 -1.5355759421193778e+00 0.0000000000000000e+00  1.8573707202281582e+00 1.1246016046048249e+01 0.0000000000000000e+00  2.8329846435115731e+00 3.2034431560524119e+01 0.0000000000000000e+00  1.7516900585647628e+00 9.2769495188426756e+00 0.0000000000000000e+00  1.0221257692835239e+00 -1.7374048830104016e+00 0.0000000000000000e+00  2.1061714371364801e+00 1.6035397275796683e+01 0.0000000000000000e+00  2.7956560127063286e+00 3.1246611812279482e+01 0.0000000000000000e+00  1.5267567980124013e+00 5.4018506941799052e+00 0.0000000000000000e+00  1.0424036521794846e+00 -1.3453176951474177e+00 0.0000000000000000e+00  2.2647696608616412e+00 1.9269669273428232e+01 0.0000000000000000e+00  2.7359031628051906e+00 2.9872969876403911e+01 0.0000000000000000e+00  1.3977966059687188e+00 3.3705992826713498e+00 0.0000000000000000e+00  1.0804809995229314e+00 -8.4268480583324301e-01 0.0000000000000000e+00  2.3679149655045584e+00 2.1454217304408356e+01 0.0000000000000000e+00  2.6705058763026215e+00 2.8320646376074137e+01 0.0000000000000000e+00  1.3147987926997058e+00 2.1607012370824332e+00 0.0000000000000000e+00  1.1776538564995764e+00 2.9725225966078178e-01 0.0000000000000000e+00  2.5142715474709023e+00 2.4696550154459878e+01 0.0000000000000000e+00  2.5347483022620474e+00 2.5153551960121010e+01 0.0000000000000000e+00  1.1937279308216391e+00 5.0275019370949381e-01 0.0000000000000000e+00  1.3107421275616635e+00 2.0988263723518994e+00 0.0000000000000000e+00  2.6649962496280701e+00 2.8158412146074500e+01 0.0000000000000000e+00  2.3656013674302536e+00 2.1554162557500437e+01 0.0000000000000000e+00  1.1146437264081983e+00 -9.2965772965393378e-01 0.0000000000000000e+00  9.5800470910131164e-01 2.8245277500196209e-01 0.0000000000000000e+00  1.0139155563683124e+00 -8.5867561981859949e-02 0.0000000000000000e+00  9.9596192333053690e-01 2.4313730820167179e-02 0.0000000000000000e+00  1.0007320132117017e+00 -4.2572628241026277e-03 0.0000000000000000e+00  1.0003223630582470e+00 -2.1023257999575207e-03 0.0000000000000000e+00  9.9938711751106613e-01 3.8594499679102242e-03 0.0000000000000000e+00  1.0006451063530335e+00 -4.0429157904731776e-03 0.0000000000000000e+00  9.9940856038569204e-01 3.7045992242792460e-03 0.0000000000000000e+00  1.0005126810324454e+00 -3.2084760157399623e-03 0.0000000000000000e+00  9.9956904929082702e-01 2.6963628098449874e-03 0.0000000000000000e+00  1.0003548292035871e+00 -2.2173931013263061e-03 0.0000000000000000e+00  9.9971255023508454e-01 1.7936223542985143e-03 0.0000000000000000e+00  1.0002297579162771e+00 -1.4288307726674154e-03 0.0000000000000000e+00  9.9981843984700858e-01 1.1225791893918126e-03 0.0000000000000000e+00  1.0001421698165904e+00 -8.6925829693083000e-04 0.0000000000000000e+00  9.9988935934271084e-01 6.6263004935369907e-04 0.0000000000000000e+00  1.0000859779065574e+00 -4.9514500180122714e-04 0.0000000000000000e+00  9.9993277225536714e-01 3.5958479036414764e-04 0.0000000000000000e+00  1.0000535566630802e+00 -2.4877044891043887e-04 0.0000000000000000e+00  9.9995571192842536e-01 1.5605501827501263e-04 0.0000000000000000e+00  1.0000389271457744e+00 -7.5120557016797676e-05 0.0000000000000000e+00  9.9996282606196751e-01 0.0000000000000000e+00 0.0000000000000000e+00  </DataArray> 
</PointData> 
</Piece>
</UnstructuredGrid>
</VTKFile>