<?xml version="1.0"?>
<VTKFile type="UnstructuredGrid"  version="0.1"  >
<UnstructuredGrid>
<Piece  NumberOfPoints="201" NumberOfCells="200">
<Points>
<DataArray  type="Float64"  NumberOfComponents="3"  format="ascii">-5 0 0  -4.95 0 0  -4.9 0 0  -4.85 0 0  -4.8 0 0  -4.75 0 0  -4.7 0 0  -4.65 0 0  -4.6 0 0  -4.55 0 0  -4.5 0 0  -4.45 0 0  -4.4 0 0  -4.35 0 0  -4.3 0 0  -4.25 0 0  -4.2 0 0  -4.15 0 0  -4.1 0 0  -4.05 0 0  -4 0 0  -3.95 0 0  -3.9 0 0  -3.85 0 0  -3.8 0 0  -3.75 0 0  -3.7 0 0  -3.65 0 0  -3.6 0 0  -3.55 0 0  -3.5 0 0  -3.45 0 0  -3.4 0 0  -3.35 0 0  -3.3 0 0  -3.25 0 0  -3.2 0 0  -3.15 0 0  -3.1 0 0  -3.05 0 0  -3 0 0  -2.95 0 0  -2.9 0 0  -2.85 0 0  -2.8 0 0  -2.75 0 0  -2.7 0 0  -2.65 0 0  -2.6 0 0  -2.55 0 0  -2.5 0 0  -2.45 0 0  -2.4 0 0  -2.35 0 0  -2.3 0 0  -2.25 0 0  -2.2 0 0  -2.15 0 0  -2.1 0 0  -2.05 0 0  -2 0 0  -1.95 0 0  -1.9 0 0  -1.85 0 0  -1.8 0 0  -1.75 0 0  -1.7 0 0  -1.65 0 0  -1.6 0 0  -1.55 0 0  -1.5 0 0  -1.45 0 0  -1.4 0 0  -1.35 0 0  -1.3 0 0  -1.25 0 0  -1.2 0 0  -1.15 0 0  -1.1 0 0  -1.05 0 0  -1 0 0  -0.9500000000000002 0 0  -0.9000000000000004 0 0  -0.8499999999999996 0 0  -0.7999999999999998 0 0  -0.75 0 0  -0.7000000000000002 0 0  -0.6500000000000004 0 0  -0.5999999999999996 0 0  -0.5499999999999998 0 0  -0.5 0 0  -0.4500000000000002 0 0  -0.4000000000000004 0 0  -0.3499999999999996 0 0  -0.2999999999999998 0 0  -0.25 0 0  -0.2000000000000002 0 0  -0.1500000000000004 0 0  -0.09999999999999964 0 0  -0.04999999999999982 0 0  0 0 0  0.04999999999999982 0 0  0.09999999999999964 0 0  0.1500000000000004 0 0  0.2000000000000002 0 0  0.25 0 0  0.2999999999999998 0 0  0.3499999999999996 0 0  0.4000000000000004 0 0  0.4500000000000002 0 0  0.5 0 0  0.5499999999999998 0 0  0.5999999999999996 0 0  0.6500000000000004 0 0  0.7000000000000002 0 0  0.75 0 0  0.7999999999999998 0 0  0.8499999999999996 0 0  0.9000000000000004 0 0  0.9500000000000002 0 0  1 0 0  1.05 0 0  1.1 0 0  1.15 0 0  1.2 0 0  1.25 0 0  1.3 0 0  1.35 0 0  1.4 0 0  1.45 0 0  1.5 0 0  1.55 0 0  1.6 0 0  1.65 0 0  1.7 0 0  1.75 0 0  1.8 0 0  1.85 0 0  1.9 0 0  1.95 0 0  2 0 0  2.05 0 0  2.1 0 0  2.15 0 0  2.2 0 0  2.25 0 0  2.3 0 0  2.35 0 0  2.4 0 0  2.45 0 0  2.5 0 0  2.55 0 0  2.6 0 0  2.65 0 0  2.7 0 0  2.75 0 0  2.8 0 0  2.85 0 0  2.9 0 0  2.95 0 0  3 0 0  3.050000000000001 0 0  3.1 0 0  3.15 0 0  3.199999999999999 0 0  3.25 0 0  3.300000000000001 0 0  3.35 0 0  3.4 0 0  3.449999999999999 0 0  3.5 0 0  3.550000000000001 0 0  3.6 0 0  3.65 0 0  3.699999999999999 0 0  3.75 0 0  3.800000000000001 0 0  3.85 0 0  3.9 0 0  3.949999999999999 0 0  4 0 0  4.050000000000001 0 0  4.1 0 0  4.15 0 0  4.199999999999999 0 0  4.25 0 0  4.300000000000001 0 0  4.35 0 0  4.4 0 0  4.449999999999999 0 0  4.5 0 0  4.550000000000001 0 0  4.6 0 0  4.65 0 0  4.699999999999999 0 0  4.75 0 0  4.800000000000001 0 0  4.85 0 0  4.9 0 0  4.949999999999999 0 0  5 0 0  </DataArray>
</Points>
<Cells>
<DataArray  type="UInt32"  Name="connectivity"  format="ascii">0 1  1 2  2 3  3 4  4 5  5 6  6 7  7 8  8 9  9 10  10 11  11 12  12 13  13 14  14 15  15 16  16 17  17 18  18 19  19 20  20 21  21 22  22 23  23 24  24 25  25 26  26 27  27 28  28 29  29 30  30 31  31 32  32 33  33 34  34 35  35 36  36 37  37 38  38 39  39 40  40 41  41 42  42 43  43 44  44 45  45 46  46 47  47 48  48 49  49 50  50 51  51 52  52 53  53 54  54 55  55 56  56 57  57 58  58 59  59 60  60 61  61 62  62 63  63 64  64 65  65 66  66 67  67 68  68 69  69 70  70 71  71 72  72 73  73 74  74 75  75 76  76 77  77 78  78 79  79 80  80 81  81 82  82 83  83 84  84 85  85 86  86 87  87 88  88 89  89 90  90 91  91 92  92 93  93 94  94 95  95 96  96 97  97 98  98 99  99 100  100 101  101 102  102 103  103 104  104 105  105 106  106 107  107 108  108 109  109 110  110 111  111 112  112 113  113 114  114 115  115 116  116 117  117 118  118 119  119 120  120 121  121 122  122 123  123 124  124 125  125 126  126 127  127 128  128 129  129 130  130 131  131 132  132 133  133 134  134 135  135 136  136 137  137 138  138 139  139 140  140 141  141 142  142 143  143 144  144 145  145 146  146 147  147 148  148 149  149 150  150 151  151 152  152 153  153 154  154 155  155 156  156 157  157 158  158 159  159 160  160 161  161 162  162 163  163 164  164 165  165 166  166 167  167 168  168 169  169 170  170 171  171 172  172 173  173 174  174 175  175 176  176 177  177 178  178 179  179 180  180 181  181 182  182 183  183 184  184 185  185 186  186 187  187 188  188 189  189 190  190 191  191 192  192 193  193 194  194 195  195 196  196 197  197 198  198 199  199 200  </DataArray>
<DataArray  type="UInt32"  Name="offsets"  format="ascii">2 4 6 8 10 12 14 16 18 20 22 24 26 28 30 32 34 36 38 40 42 44 46 48 50 52 54 56 58 60 62 64 66 68 70 72 74 76 78 80 82 84 86 88 90 92 94 96 98 100 102 104 106 108 110 112 114 116 118 120 122 124 126 128 130 132 134 136 138 140 142 144 146 148 150 152 154 156 158 160 162 164 166 168 170 172 174 176 178 180 182 184 186 188 190 192 194 196 198 200 202 204 206 208 210 212 214 216 218 220 222 224 226 228 230 232 234 236 238 240 242 244 246 248 250 252 254 256 258 260 262 264 266 268 270 272 274 276 278 280 282 284 286 288 290 292 294 296 298 300 302 304 306 308 310 312 314 316 318 320 322 324 326 328 330 332 334 336 338 340 342 344 346 348 350 352 354 356 358 360 362 364 366 368 370 372 374 376 378 380 382 384 386 388 390 392 394 396 398 400 </DataArray>
<DataArray  type="UInt8"  Name="types"  format="ascii">3 3 3 3 3 3 3 3 3 3 3 3 3 3 3 3 3 3 3 3 3 3 3 3 3 3 3 3 3 3 3 3 3 3 3 3 3 3 3 3 3 3 3 3 3 3 3 3 3 3 3 3 3 3 3 3 3 3 3 3 3 3 3 3 3 3 3 3 3 3 3 3 3 3 3 3 3 3 3 3 3 3 3 3 3 3 3 3 3 3 3 3 3 3 3 3 3 3 3 3 3 3 3 3 3 3 3 3 3 3 3 3 3 3 3 3 3 3 3 3 3 3 3 3 3 3 3 3 3 3 3 3 3 3 3 3 3 3 3 3 3 3 3 3 3 3 3 3 3 3 3 3 3 3 3 3 3 3 3 3 3 3 3 3 3 3 3 3 3 3 3 3 3 3 3 3 3 3 3 3 3 3 3 3 3 3 3 3 3 3 3 3 3 3 3 3 3 3 3 3 </DataArray>
</Cells>
<PointData  Vectors="(s, w)"> 
<DataArray  type="Float64"  Name="(s, w)"  NumberOfComponents="3" format="ascii">2.7466522313613733e+00 0.0000000000000000e+00 0.0000000000000000e+00  2.7393260691510730e+00 1.7105243314961338e-01 0.0000000000000000e+00  2.7357811985968530e+00 6.8468107421583002e-01 0.0000000000000000e+00  2.7517054597590236e+00 8.1012051523106643e-01 0.0000000000000000e+00  2.7323730269570006e+00 1.0355085211864656e+00 0.0000000000000000e+00  2.7428124789023647e+00 1.5335236664513261e+00 0.0000000000000000e+00  2.7454356491892220e+00 1.6276826430528122e+00 0.0000000000000000e+00  2.7358550281794995e+00 1.9030578699104954e+00 0.0000000000000000e+00  2.7388519373088696e+00 2.3825577448138784e+00 0.0000000000000000e+00  2.7488812909207194e+00 2.4381874267905204e+00 0.0000000000000000e+00  2.7284860432302245e+00 2.7816072455751129e+00 0.0000000000000000e+00  2.7453056944117491e+00 3.2053738386578345e+00 0.0000000000000000e+00  2.7408912601321549e+00 3.2560157907775102e+00 0.0000000000000000e+00  2.7318977400779798e+00 3.6423502058619119e+00 0.0000000000000000e+00  2.7408060096608069e+00 4.0229969451053496e+00 0.0000000000000000e+00  2.7427216866468607e+00 4.0588938464345681e+00 0.0000000000000000e+00  2.7242912460724695e+00 4.5175617000624504e+00 0.0000000000000000e+00  2.7464891896591634e+00 4.8055942537059604e+00 0.0000000000000000e+00  2.7321252723763099e+00 4.8884838861983049e+00 0.0000000000000000e+00  2.7273108838909246e+00 5.3589738577082890e+00 0.0000000000000000e+00  2.7402367761313156e+00 5.5822752974767837e+00 0.0000000000000000e+00  2.7306480529979540e+00 5.6848714453625853e+00 0.0000000000000000e+00  2.7187622787615511e+00 6.1787047888020394e+00 0.0000000000000000e+00  2.7427290489777230e+00 6.2778492273413526e+00 0.0000000000000000e+00  2.7141517674333162e+00 6.4705745241013153e+00 0.0000000000000000e+00  2.7189349281804929e+00 6.8780283080246090e+00 0.0000000000000000e+00  2.7282003595781523e+00 6.9269656873418208e+00 0.0000000000000000e+00  2.7033603591367603e+00 7.1429419900354878e+00 0.0000000000000000e+00  2.7039892241693888e+00 7.4777146618470107e+00 0.0000000000000000e+00  2.7183064503164651e+00 7.4454663656042142e+00 0.0000000000000000e+00  2.6764245201719765e+00 7.7367434855949639e+00 0.0000000000000000e+00  2.6968564856703132e+00 7.9055396464138283e+00 0.0000000000000000e+00  2.6894083924996277e+00 7.9286395686102473e+00 0.0000000000000000e+00  2.6576599674531955e+00 8.1808725703949943e+00 0.0000000000000000e+00  2.6735518325762926e+00 8.2795898836426023e+00 0.0000000000000000e+00  2.6674191545629218e+00 8.3127056340067025e+00 0.0000000000000000e+00  2.6263042279164073e+00 8.5771465335546733e+00 0.0000000000000000e+00  2.6598815301776053e+00 8.5648491737109396e+00 0.0000000000000000e+00  2.6312338372827884e+00 8.7287840450466199e+00 0.0000000000000000e+00  2.6077936603812941e+00 8.8900658010123177e+00 0.0000000000000000e+00  2.6323418880527552e+00 8.8993794025154465e+00 0.0000000000000000e+00  2.6079642698460854e+00 9.0837976849599915e+00 0.0000000000000000e+00  2.5776041295751999e+00 9.2268445664563448e+00 0.0000000000000000e+00  2.6158656647174436e+00 9.1844851215735588e+00 0.0000000000000000e+00  2.5723555861908327e+00 9.4795793515186464e+00 0.0000000000000000e+00  2.5602049968394813e+00 9.4889874384836155e+00 0.0000000000000000e+00  2.5853363978234141e+00 9.5157121809261938e+00 0.0000000000000000e+00  2.5506346976869296e+00 9.7976996563862500e+00 0.0000000000000000e+00  2.5288981515572804e+00 9.7997861769053891e+00 0.0000000000000000e+00  2.5672657281389979e+00 9.7810658668422175e+00 0.0000000000000000e+00  2.5171108698052072e+00 1.0163875541904806e+01 0.0000000000000000e+00  2.5106003072674135e+00 1.0059588654518874e+01 0.0000000000000000e+00  2.5360964716109922e+00 1.0107254385572672e+01 0.0000000000000000e+00  2.4988143730122760e+00 1.0458046961715160e+01 0.0000000000000000e+00  2.4775106387062200e+00 1.0387238117207600e+01 0.0000000000000000e+00  2.5182061667840760e+00 1.0354216880327835e+01 0.0000000000000000e+00  2.4679369333743835e+00 1.0793306226019977e+01 0.0000000000000000e+00  2.4563759449732228e+00 1.0645569837478313e+01 0.0000000000000000e+00  2.4858199059776003e+00 1.0643729924894000e+01 0.0000000000000000e+00  2.4529268502694705e+00 1.1045767719231259e+01 0.0000000000000000e+00  2.4201480307910113e+00 1.0978409785388628e+01 0.0000000000000000e+00  2.4659698277965729e+00 1.0852630747471480e+01 0.0000000000000000e+00  2.4263486026628476e+00 1.1344444940488129e+01 0.0000000000000000e+00  2.3980946915510835e+00 1.1267234289501854e+01 0.0000000000000000e+00  2.4303967488790272e+00 1.1123294160146566e+01 0.0000000000000000e+00  2.4156644980587907e+00 1.1543971111653162e+01 0.0000000000000000e+00  2.3629998975795030e+00 1.1628826729329052e+01 0.0000000000000000e+00  2.4058715541924816e+00 1.1347999024886215e+01 0.0000000000000000e+00  2.3928209054075484e+00 1.1771152530792156e+01 0.0000000000000000e+00  2.3436628299111235e+00 1.1915976704661793e+01 0.0000000000000000e+00  2.3643194032646258e+00 1.1642258616780683e+01 0.0000000000000000e+00  2.3829610201685529e+00 1.1917922062756395e+01 0.0000000000000000e+00  2.3156250640305451e+00 1.2234229570147603e+01 0.0000000000000000e+00  2.3318740831064386e+00 1.1900530029854218e+01 0.0000000000000000e+00  2.3573572315163394e+00 1.2078618253905963e+01 0.0000000000000000e+00  2.3052720899138679e+00 1.2476547096954791e+01 0.0000000000000000e+00  2.2883283058870427e+00 1.2237812404792818e+01 0.0000000000000000e+00  2.3370846769342659e+00 1.2204381258199163e+01 0.0000000000000000e+00  2.2880281987589073e+00 1.2684045196059827e+01 0.0000000000000000e+00  2.2576799063277178e+00 1.2576478717308550e+01 0.0000000000000000e+00  2.3027314311188913e+00 1.2371708855406313e+01 0.0000000000000000e+00  2.2800654326935192e+00 1.2838359845906538e+01 0.0000000000000000e+00  2.2255933178685914e+00 1.2920223301935097e+01 0.0000000000000000e+00  2.2704274037743830e+00 1.2566130667830633e+01 0.0000000000000000e+00  2.2618091448773074e+00 1.2909247963709140e+01 0.0000000000000000e+00  2.2059033977221620e+00 1.3296130131713888e+01 0.0000000000000000e+00  2.2359147783477091e+00 1.2806353436674650e+01 0.0000000000000000e+00  2.2400448698827655e+00 1.2918042012614427e+01 0.0000000000000000e+00  2.1815569942824791e+00 1.3607850245194216e+01 0.0000000000000000e+00  2.2162144524038618e+00 1.3131598522311204e+01 0.0000000000000000e+00  2.2042584269559988e+00 1.2862018229294955e+01 0.0000000000000000e+00  2.1578374930135089e+00 1.3895547043782209e+01 0.0000000000000000e+00  2.2102811841327838e+00 1.3493712875426288e+01 0.0000000000000000e+00  2.1592566162577365e+00 1.2841648733033454e+01 0.0000000000000000e+00  2.1185554594286686e+00 1.4017274153680527e+01 0.0000000000000000e+00  2.2392777999439408e+00 1.3863070923268571e+01 0.0000000000000000e+00  2.0543309156226304e+00 1.3243363333671091e+01 0.0000000000000000e+00  2.1616907055726706e+00 1.3410627979901999e+01 0.0000000000000000e+00  2.1652533778535106e+00 1.4998679698331689e+01 0.0000000000000000e+00  2.0782547273861076e+00 1.2885827342393538e+01 0.0000000000000000e+00  2.0754821067916884e+00 1.3482017606862499e+01 0.0000000000000000e+00  2.1890508644457887e+00 1.5449373001966231e+01 0.0000000000000000e+00  2.0443046283856221e+00 1.3091146702593912e+01 0.0000000000000000e+00  2.0534147893759611e+00 1.3090194984228177e+01 0.0000000000000000e+00  2.1922467181151375e+00 1.5903891120361475e+01 0.0000000000000000e+00  2.0579482874067923e+00 1.3100451554136612e+01 0.0000000000000000e+00  2.0246116418472226e+00 1.2640312563694762e+01 0.0000000000000000e+00  2.2122631920968741e+00 1.6282756983417013e+01 0.0000000000000000e+00  2.0544987821566583e+00 1.3307345021411869e+01 0.0000000000000000e+00  1.9953715452153125e+00 1.2066126459250253e+01 0.0000000000000000e+00  2.2236696139415759e+00 1.6716240451057931e+01 0.0000000000000000e+00  2.0749425376649562e+00 1.3714136295074278e+01 0.0000000000000000e+00  1.9401273602240836e+00 1.1155407152298247e+01 0.0000000000000000e+00  2.2393785192709221e+00 1.7045481272325755e+01 0.0000000000000000e+00  2.1094331303131955e+00 1.4560943291525849e+01 0.0000000000000000e+00  1.8854481776342482e+00 1.0115619927246177e+01 0.0000000000000000e+00  2.2188497131328653e+00 1.6808123817531953e+01 0.0000000000000000e+00  2.1906555647483508e+00 1.6208300456091976e+01 0.0000000000000000e+00  1.8216550710869619e+00 9.0444211678582711e+00 0.0000000000000000e+00  2.1648446862511372e+00 1.5787539577456945e+01 0.0000000000000000e+00  2.2780615572249654e+00 1.8118095152008138e+01 0.0000000000000000e+00  1.8149159103232830e+00 9.0095206676996842e+00 0.0000000000000000e+00  2.0317328214642938e+00 1.3309482970599589e+01 0.0000000000000000e+00  2.3856588958140441e+00 2.0343957915749339e+01 0.0000000000000000e+00  1.8504332542822073e+00 9.8572172910711160e+00 0.0000000000000000e+00  1.8908243659507566e+00 1.0625329645023212e+01 0.0000000000000000e+00  2.4049881772847286e+00 2.0933296218137723e+01 0.0000000000000000e+00  2.0053931635875712e+00 1.2948848610847003e+01 0.0000000000000000e+00  1.7098883152282638e+00 7.2633269967510232e+00 0.0000000000000000e+00  2.3761066566258902e+00 2.0382482882503403e+01 0.0000000000000000e+00  2.1689120821166172e+00 1.6307266266756091e+01 0.0000000000000000e+00  1.6508120641586637e+00 6.2736855517826795e+00 0.0000000000000000e+00  2.1766604598211035e+00 1.6541859793960288e+01 0.0000000000000000e+00  2.4024793594012306e+00 2.1008901610116265e+01 0.0000000000000000e+00  1.6458300621822100e+00 6.2763098899768552e+00 0.0000000000000000e+00  1.9597484925465991e+00 1.2300551105765866e+01 0.0000000000000000e+00  2.4977579772097811e+00 2.3154925522231419e+01 0.0000000000000000e+00  1.8374480769315600e+00 1.0041234146845019e+01 0.0000000000000000e+00  1.6809002258357633e+00 7.0828912787055858e+00 0.0000000000000000e+00  2.4750937999126656e+00 2.2749704945918108e+01 0.0000000000000000e+00  2.1260875450184873e+00 1.5724079625447612e+01 0.0000000000000000e+00  1.4930684459901107e+00 3.6396494222564919e+00 0.0000000000000000e+00  2.2886752797965606e+00 1.9066974413215945e+01 0.0000000000000000e+00  2.3697703168062039e+00 2.0844661181031690e+01 0.0000000000000000e+00  1.6118278503961458e+00 6.1859242017536289e+00 0.0000000000000000e+00  1.8020770105899742e+00 9.5253506102201229e+00 0.0000000000000000e+00  2.7014991485784665e+00 2.7367662786593318e+01 0.0000000000000000e+00  1.6874375281252809e+00 7.4826644327057457e+00 0.0000000000000000e+00  1.6664661854808047e+00 7.5210434827177473e+00 0.0000000000000000e+00  2.3281190311458291e+00 2.0555435057900109e+01 0.0000000000000000e+00  2.4207672812523273e+00 2.1528846942521060e+01 0.0000000000000000e+00  1.1949695084628869e+00 -1.6738498446503476e+00 0.0000000000000000e+00  2.2726334060255313e+00 1.8798815988750444e+01 0.0000000000000000e+00  2.4134959118897727e+00 2.2667393515100223e+01 0.0000000000000000e+00  1.7776739456543325e+00 9.8649547166607352e+00 0.0000000000000000e+00  1.3915987628054798e+00 2.1796029248027002e+00 0.0000000000000000e+00  2.7613100246864168e+00 2.8603045118831144e+01 0.0000000000000000e+00  2.0160386646292383e+00 1.4110612499407260e+01 0.0000000000000000e+00  1.3360652431328846e+00 1.9265336643076856e+00 0.0000000000000000e+00  2.1442004058096549e+00 1.6890110654734830e+01 0.0000000000000000e+00  2.5515343952114184e+00 2.5557923335098351e+01 0.0000000000000000e+00  1.6639221134318318e+00 7.7411917173871192e+00 0.0000000000000000e+00  1.2988160800471480e+00 2.3562149744247129e-01 0.0000000000000000e+00  2.9253844102079025e+00 3.1909546808999117e+01 0.0000000000000000e+00  1.8100571020818239e+00 1.0830587695745383e+01 0.0000000000000000e+00  1.5742896256989993e+00 7.5769770645667220e+00 0.0000000000000000e+00  1.6047020427647778e+00 6.9871551432788666e+00 0.0000000000000000e+00  3.1608781345344346e+00 3.5219911161553377e+01 0.0000000000000000e+00  1.1619480644324185e+00 -1.9991324398614079e+00 0.0000000000000000e+00  1.6614141611259943e+00 9.0778163964784913e+00 0.0000000000000000e+00  2.2623681601572154e+00 2.0603458534017644e+01 0.0000000000000000e+00  2.5817310507856854e+00 2.5193325794940549e+01 0.0000000000000000e+00  1.0758909400205390e+00 -2.1884490653937205e+00 0.0000000000000000e+00  1.7723099232759378e+00 8.5131106961343139e+00 0.0000000000000000e+00  2.8791451864648576e+00 3.2182946777148636e+01 0.0000000000000000e+00  1.6714053657539660e+00 8.5791865458682057e+00 0.0000000000000000e+00  1.3457588867443346e+00 3.5718032716361465e+00 0.0000000000000000e+00  1.8638870272270902e+00 1.2289334026233128e+01 0.0000000000000000e+00  3.0140936962320084e+00 3.3660016710561422e+01 0.0000000000000000e+00  1.2301212658138145e+00 -1.3033725645402385e+00 0.0000000000000000e+00  1.4612385642743260e+00 5.6957276438318054e+00 0.0000000000000000e+00  2.3313337721364911e+00 2.2281844960331348e+01 0.0000000000000000e+00  2.6382142219449065e+00 2.5868715450442110e+01 0.0000000000000000e+00  1.0589945476656708e+00 -1.6051255974208740e+00 0.0000000000000000e+00  1.5043112748295733e+00 5.4106380446990032e+00 0.0000000000000000e+00  2.8063070432700759e+00 3.0126861745270308e+01 0.0000000000000000e+00  2.0350510146998646e+00 1.5766529560762514e+01 0.0000000000000000e+00  1.1834325829323351e+00 1.6240385046140189e+00 0.0000000000000000e+00  1.5807572056350727e+00 2.8693711506327144e+00 0.0000000000000000e+00  3.1041813352550638e+00 3.8451532630526309e+01 0.0000000000000000e+00  3.1669747679372402e+00 -2.0920178357333036e+01 0.0000000000000000e+00  1.7312612727907783e+00 -1.2501493429880400e+01 0.0000000000000000e+00  4.2664437364579921e+00 2.1096597655935629e+01 0.0000000000000000e+00  2.7981541317510636e+00 -2.7935426677385504e+01 0.0000000000000000e+00  1.1118337220515373e+00 1.2798385732968843e+01 0.0000000000000000e+00  4.6807159322112506e+00 3.2565114811303237e+00 0.0000000000000000e+00  2.8622168934527998e+00 -1.3363186402284889e+01 0.0000000000000000e+00  4.4117006676830928e-01 -9.0905180806552355e-01 0.0000000000000000e+00  2.9656866103335884e+00 2.7663250021860105e+01 0.0000000000000000e+00  3.9644155541490229e+00 -1.5102728181411331e+01 0.0000000000000000e+00  1.6243442077560433e+00 0.0000000000000000e+00 0.0000000000000000e+00  </DataArray> 
</PointData> 
</Piece>
</UnstructuredGrid>
</VTKFile>