<?xml version="1.0"?>
<VTKFile type="UnstructuredGrid"  version="0.1"  >
<UnstructuredGrid>
<Piece  NumberOfPoints="201" NumberOfCells="200">
<Points>
<DataArray  type="Float64"  NumberOfComponents="3"  format="ascii">-5 0 0  -4.95 0 0  -4.9 0 0  -4.85 0 0  -4.8 0 0  -4.75 0 0  -4.7 0 0  -4.65 0 0  -4.6 0 0  -4.55 0 0  -4.5 0 0  -4.45 0 0  -4.4 0 0  -4.35 0 0  -4.3 0 0  -4.25 0 0  -4.2 0 0  -4.15 0 0  -4.1 0 0  -4.05 0 0  -4 0 0  -3.95 0 0  -3.9 0 0  -3.85 0 0  -3.8 0 0  -3.75 0 0  -3.7 0 0  -3.65 0 0  -3.6 0 0  -3.55 0 0  -3.5 0 0  -3.45 0 0  -3.4 0 0  -3.35 0 0  -3.3 0 0  -3.25 0 0  -3.2 0 0  -3.15 0 0  -3.1 0 0  -3.05 0 0  -3 0 0  -2.95 0 0  -2.9 0 0  -2.85 0 0  -2.8 0 0  -2.75 0 0  -2.7 0 0  -2.65 0 0  -2.6 0 0  -2.55 0 0  -2.5 0 0  -2.45 0 0  -2.4 0 0  -2.35 0 0  -2.3 0 0  -2.25 0 0  -2.2 0 0  -2.15 0 0  -2.1 0 0  -2.05 0 0  -2 0 0  -1.95 0 0  -1.9 0 0  -1.85 0 0  -1.8 0 0  -1.75 0 0  -1.7 0 0  -1.65 0 0  -1.6 0 0  -1.55 0 0  -1.5 0 0  -1.45 0 0  -1.4 0 0  -1.35 0 0  -1.3 0 0  -1.25 0 0  -1.2 0 0  -1.15 0 0  -1.1 0 0  -1.05 0 0  -1 0 0  -0.9500000000000002 0 0  -0.9000000000000004 0 0  -0.8499999999999996 0 0  -0.7999999999999998 0 0  -0.75 0 0  -0.7000000000000002 0 0  -0.6500000000000004 0 0  -0.5999999999999996 0 0  -0.5499999999999998 0 0  -0.5 0 0  -0.4500000000000002 0 0  -0.4000000000000004 0 0  -0.3499999999999996 0 0  -0.2999999999999998 0 0  -0.25 0 0  -0.2000000000000002 0 0  -0.1500000000000004 0 0  -0.09999999999999964 0 0  -0.04999999999999982 0 0  0 0 0  0.04999999999999982 0 0  0.09999999999999964 0 0  0.1500000000000004 0 0  0.2000000000000002 0 0  0.25 0 0  0.2999999999999998 0 0  0.3499999999999996 0 0  0.4000000000000004 0 0  0.4500000000000002 0 0  0.5 0 0  0.5499999999999998 0 0  0.5999999999999996 0 0  0.6500000000000004 0 0  0.7000000000000002 0 0  0.75 0 0  0.7999999999999998 0 0  0.8499999999999996 0 0  0.9000000000000004 0 0  0.9500000000000002 0 0  1 0 0  1.05 0 0  1.1 0 0  1.15 0 0  1.2 0 0  1.25 0 0  1.3 0 0  1.35 0 0  1.4 0 0  1.45 0 0  1.5 0 0  1.55 0 0  1.6 0 0  1.65 0 0  1.7 0 0  1.75 0 0  1.8 0 0  1.85 0 0  1.9 0 0  1.95 0 0  2 0 0  2.05 0 0  2.1 0 0  2.15 0 0  2.2 0 0  2.25 0 0  2.3 0 0  2.35 0 0  2.4 0 0  2.45 0 0  2.5 0 0  2.55 0 0  2.6 0 0  2.65 0 0  2.7 0 0  2.75 0 0  2.8 0 0  2.85 0 0  2.9 0 0  2.95 0 0  3 0 0  3.050000000000001 0 0  3.1 0 0  3.15 0 0  3.199999999999999 0 0  3.25 0 0  3.300000000000001 0 0  3.35 0 0  3.4 0 0  3.449999999999999 0 0  3.5 0 0  3.550000000000001 0 0  3.6 0 0  3.65 0 0  3.699999999999999 0 0  3.75 0 0  3.800000000000001 0 0  3.85 0 0  3.9 0 0  3.949999999999999 0 0  4 0 0  4.050000000000001 0 0  4.1 0 0  4.15 0 0  4.199999999999999 0 0  4.25 0 0  4.300000000000001 0 0  4.35 0 0  4.4 0 0  4.449999999999999 0 0  4.5 0 0  4.550000000000001 0 0  4.6 0 0  4.65 0 0  4.699999999999999 0 0  4.75 0 0  4.800000000000001 0 0  4.85 0 0  4.9 0 0  4.949999999999999 0 0  5 0 0  </DataArray>
</Points>
<Cells>
<DataArray  type="UInt32"  Name="connectivity"  format="ascii">0 1  1 2  2 3  3 4  4 5  5 6  6 7  7 8  8 9  9 10  10 11  11 12  12 13  13 14  14 15  15 16  16 17  17 18  18 19  19 20  20 21  21 22  22 23  23 24  24 25  25 26  26 27  27 28  28 29  29 30  30 31  31 32  32 33  33 34  34 35  35 36  36 37  37 38  38 39  39 40  40 41  41 42  42 43  43 44  44 45  45 46  46 47  47 48  48 49  49 50  50 51  51 52  52 53  53 54  54 55  55 56  56 57  57 58  58 59  59 60  60 61  61 62  62 63  63 64  64 65  65 66  66 67  67 68  68 69  69 70  70 71  71 72  72 73  73 74  74 75  75 76  76 77  77 78  78 79  79 80  80 81  81 82  82 83  83 84  84 85  85 86  86 87  87 88  88 89  89 90  90 91  91 92  92 93  93 94  94 95  95 96  96 97  97 98  98 99  99 100  100 101  101 102  102 103  103 104  104 105  105 106  106 107  107 108  108 109  109 110  110 111  111 112  112 113  113 114  114 115  115 116  116 117  117 118  118 119  119 120  120 121  121 122  122 123  123 124  124 125  125 126  126 127  127 128  128 129  129 130  130 131  131 132  132 133  133 134  134 135  135 136  136 137  137 138  138 139  139 140  140 141  141 142  142 143  143 144  144 145  145 146  146 147  147 148  148 149  149 150  150 151  151 152  152 153  153 154  154 155  155 156  156 157  157 158  158 159  159 160  160 161  161 162  162 163  163 164  164 165  165 166  166 167  167 168  168 169  169 170  170 171  171 172  172 173  173 174  174 175  175 176  176 177  177 178  178 179  179 180  180 181  181 182  182 183  183 184  184 185  185 186  186 187  187 188  188 189  189 190  190 191  191 192  192 193  193 194  194 195  195 196  196 197  197 198  198 199  199 200  </DataArray>
<DataArray  type="UInt32"  Name="offsets"  format="ascii">2 4 6 8 10 12 14 16 18 20 22 24 26 28 30 32 34 36 38 40 42 44 46 48 50 52 54 56 58 60 62 64 66 68 70 72 74 76 78 80 82 84 86 88 90 92 94 96 98 100 102 104 106 108 110 112 114 116 118 120 122 124 126 128 130 132 134 136 138 140 142 144 146 148 150 152 154 156 158 160 162 164 166 168 170 172 174 176 178 180 182 184 186 188 190 192 194 196 198 200 202 204 206 208 210 212 214 216 218 220 222 224 226 228 230 232 234 236 238 240 242 244 246 248 250 252 254 256 258 260 262 264 266 268 270 272 274 276 278 280 282 284 286 288 290 292 294 296 298 300 302 304 306 308 310 312 314 316 318 320 322 324 326 328 330 332 334 336 338 340 342 344 346 348 350 352 354 356 358 360 362 364 366 368 370 372 374 376 378 380 382 384 386 388 390 392 394 396 398 400 </DataArray>
<DataArray  type="UInt8"  Name="types"  format="ascii">3 3 3 3 3 3 3 3 3 3 3 3 3 3 3 3 3 3 3 3 3 3 3 3 3 3 3 3 3 3 3 3 3 3 3 3 3 3 3 3 3 3 3 3 3 3 3 3 3 3 3 3 3 3 3 3 3 3 3 3 3 3 3 3 3 3 3 3 3 3 3 3 3 3 3 3 3 3 3 3 3 3 3 3 3 3 3 3 3 3 3 3 3 3 3 3 3 3 3 3 3 3 3 3 3 3 3 3 3 3 3 3 3 3 3 3 3 3 3 3 3 3 3 3 3 3 3 3 3 3 3 3 3 3 3 3 3 3 3 3 3 3 3 3 3 3 3 3 3 3 3 3 3 3 3 3 3 3 3 3 3 3 3 3 3 3 3 3 3 3 3 3 3 3 3 3 3 3 3 3 3 3 3 3 3 3 3 3 3 3 3 3 3 3 3 3 3 3 3 3 </DataArray>
</Cells>
<PointData  Vectors="(s, w)"> 
<DataArray  type="Float64"  Name="(s, w)"  NumberOfComponents="3" format="ascii">2.3221630593669746e+00 0.0000000000000000e+00 0.0000000000000000e+00  2.3325877974665468e+00 1.7585000455241304e-01 0.0000000000000000e+00  2.3221559061222918e+00 3.4202405206041447e-01 0.0000000000000000e+00  2.3323965080596434e+00 5.2748162250802266e-01 0.0000000000000000e+00  2.3221320447666156e+00 6.8399081551750107e-01 0.0000000000000000e+00  2.3320181567569427e+00 8.7890402027886083e-01 0.0000000000000000e+00  2.3220843790650481e+00 1.0258498228216137e+00 0.0000000000000000e+00  2.3314609743785475e+00 1.2299649170364835e+00 0.0000000000000000e+00  2.3220014441280221e+00 1.3675628629393195e+00 0.0000000000000000e+00  2.3307367471717830e+00 1.5804951473357904e+00 0.0000000000000000e+00  2.3218679483746532e+00 1.7091068369886946e+00 0.0000000000000000e+00  2.3298601492297362e+00 1.9303062150570005e+00 0.0000000000000000e+00  2.3216655245632896e+00 2.0504732008160054e+00 0.0000000000000000e+00  2.3288478677983631e+00 2.2791914320741182e+00 0.0000000000000000e+00  2.3213736714711581e+00 2.3916636498695323e+00 0.0000000000000000e+00  2.3277175487112789e+00 2.6269307224978400e+00 0.0000000000000000e+00  2.3209708503641133e+00 2.7326822584330288e+00 0.0000000000000000e+00  2.3264866090693208e+00 2.9732986174688252e+00 0.0000000000000000e+00  2.3204356786946643e+00 3.0735248382243321e+00 0.0000000000000000e+00  2.3251709867884633e+00 3.3180744429620077e+00 0.0000000000000000e+00  2.3197481408963143e+00 3.4141667534879536e+00 0.0000000000000000e+00  2.3237839176766388e+00 3.6610532893075307e+00 0.0000000000000000e+00  2.3188907173385722e+00 3.7545507481599061e+00 0.0000000000000000e+00  2.3223348453150399e+00 4.0020561153668295e+00 0.0000000000000000e+00  2.3178493225502113e+00 4.0945764475314492e+00 0.0000000000000000e+00  2.3208285723485238e+00 4.3409373343550541e+00 0.0000000000000000e+00  2.3166139472011400e+00 4.4340930597666013e+00 0.0000000000000000e+00  2.3192647501603960e+00 4.6775884751740877e+00 0.0000000000000000e+00  2.3151789178434998e+00 4.7728964236073450e+00 0.0000000000000000e+00  2.3176377759016549e+00 5.0119369977262629e+00 0.0000000000000000e+00  2.3135427241547171e+00 5.1107309684767666e+00 0.0000000000000000e+00  2.3159371230818833e+00 5.3439400056482294e+00 0.0000000000000000e+00  2.3117074122257808e+00 5.4472964503127930e+00 0.0000000000000000e+00  2.3141480793268259e+00 5.6735733490372997e+00 0.0000000000000000e+00  2.3096775978647797e+00 5.7822586082293297e+00 0.0000000000000000e+00  2.3122528102601589e+00 6.0008173204957194e+00 0.0000000000000000e+00  2.3074592070199063e+00 6.1152622744760041e+00 0.0000000000000000e+00  2.3102316212798653e+00 6.3256406921101238e+00 0.0000000000000000e+00  2.3050580913802259e+00 6.4459450767292310e+00 0.0000000000000000e+00  2.3080642587015650e+00 6.6479851111169470e+00 0.0000000000000000e+00  2.3024786871889673e+00 6.7739497804014430e+00 0.0000000000000000e+00  2.3057310855686146e+00 6.9677518062598836e+00 0.0000000000000000e+00  2.2997228787910933e+00 7.0989335607063353e+00 0.0000000000000000e+00  2.3032139884405138e+00 7.2847921581549233e+00 0.0000000000000000e+00  2.2967891949889161e+00 7.4205730363370535e+00 0.0000000000000000e+00  2.3004969172395451e+00 7.5989030285511214e+00 0.0000000000000000e+00  2.2936724113042337e+00 7.7385646409418527e+00 0.0000000000000000e+00  2.2975660227195656e+00 7.9098269575592699e+00 0.0000000000000000e+00  2.2903635653609626e+00 8.0526207090283801e+00 0.0000000000000000e+00  2.2944094230145633e+00 8.2172565886183495e+00 0.0000000000000000e+00  2.2868503294687201e+00 8.3624623465766490e+00 0.0000000000000000e+00  2.2910166881805223e+00 8.5208421249498283e+00 0.0000000000000000e+00  2.2831176375057329e+00 8.6678106036589266e+00 0.0000000000000000e+00  2.2873781677631042e+00 8.8202003683078143e+00 0.0000000000000000e+00  2.2791484419682346e+00 8.9683775869150892e+00 0.0000000000000000e+00  2.2834842944607452e+00 9.1149239751699724e+00 0.0000000000000000e+00  2.2749244847658128e+00 9.2638589449077511e+00 0.0000000000000000e+00  2.2793249770973407e+00 9.4045899385873195e+00 0.0000000000000000e+00  2.2704269980732970e+00 9.5539287077290087e+00 0.0000000000000000e+00  2.2748891551841099e+00 9.6887668514701062e+00 0.0000000000000000e+00  2.2656372996338989e+00 9.8382368934829305e+00 0.0000000000000000e+00  2.2701645366381733e+00 9.9670210828340728e+00 0.0000000000000000e+00  2.2605372976784897e+00 1.0116409751825472e+01 0.0000000000000000e+00  2.2651374925113785e+00 1.0238922461396962e+01 0.0000000000000000e+00  2.2551099615765136e+00 1.0388052119309947e+01 0.0000000000000000e+00  2.2597930489006330e+00 1.0504050308064206e+01 0.0000000000000000e+00  2.2493398365312522e+00 1.0652751178822152e+01 0.0000000000000000e+00  2.2541149021686646e+00 1.0762000656923687e+01 0.0000000000000000e+00  2.2432136827487685e+00 1.0910080926756287e+01 0.0000000000000000e+00  2.2480853847909792e+00 1.1012395322198355e+01 0.0000000000000000e+00  2.2367213118789553e+00 1.1159606730714247e+01 0.0000000000000000e+00  2.2416853085645676e+00 1.1254893282644929e+01 0.0000000000000000e+00  2.2298567016244459e+00 1.1400889266175000e+01 0.0000000000000000e+00  2.2348935876740081e+00 1.1489204858929044e+01 0.0000000000000000e+00  2.2226195207009751e+00 1.1633486640930666e+01 0.0000000000000000e+00  2.2276864628686588e+00 1.1715109613017445e+01 0.0000000000000000e+00  2.2150172430358785e+00 1.1856953132428018e+01 0.0000000000000000e+00  2.2200360298660544e+00 1.1932479546799282e+01 0.0000000000000000e+00  2.2070681493505622e+00 1.2070832024993024e+01 0.0000000000000000e+00  2.2119081804816201e+00 1.2141305295395815e+01 0.0000000000000000e+00  2.1988055491093905e+00 1.2274639997128761e+01 0.0000000000000000e+00  2.2032598136115751e+00 1.2341725125416433e+01 0.0000000000000000e+00  2.1902799857419373e+00 1.2467869605765753e+01 0.0000000000000000e+00  2.1940355713623614e+00 1.2534052900245644e+01 0.0000000000000000e+00  2.1815604767151622e+00 1.2649998311951579e+01 0.0000000000000000e+00  2.1841870171496853e+00 1.2718623633676172e+01 0.0000000000000000e+00  2.1727451947437140e+00 1.2820422902643829e+01 0.0000000000000000e+00  2.1736905438672416e+00 1.2895664855760991e+01 0.0000000000000000e+00  2.1637006980360147e+00 1.2980460531666919e+01 0.0000000000000000e+00  2.1624743116543752e+00 1.3065847489560207e+01 0.0000000000000000e+00  2.1550333068792873e+00 1.3125946971930011e+01 0.0000000000000000e+00  2.1522223198881290e+00 1.3217036708706239e+01 0.0000000000000000e+00  2.1428448164248812e+00 1.3286013348572926e+01 0.0000000000000000e+00  2.1389756519482819e+00 1.3378490655641208e+01 0.0000000000000000e+00  2.1430487971642540e+00 1.3346264538993781e+01 0.0000000000000000e+00  2.1290391991075643e+00 1.3506135906663079e+01 0.0000000000000000e+00  2.0983032629297629e+00 1.3709285800916737e+01 0.0000000000000000e+00  2.1549920535014180e+00 1.3373926531861965e+01 0.0000000000000000e+00  2.0686923505485244e+00 1.3953056254205920e+01 0.0000000000000000e+00  2.1196976332240829e+00 1.3654814111536739e+01 0.0000000000000000e+00  2.0930251698803635e+00 1.3832587746501563e+01 0.0000000000000000e+00  2.0928591359263380e+00 1.3866917069418875e+01 0.0000000000000000e+00  2.0860442682846028e+00 1.3909651008048147e+01 0.0000000000000000e+00  2.0803016515522814e+00 1.3976122296749368e+01 0.0000000000000000e+00  2.0733813046298608e+00 1.4016055827159514e+01 0.0000000000000000e+00  2.0678160875431928e+00 1.4077604660534194e+01 0.0000000000000000e+00  2.0607476830689295e+00 1.4115347531004337e+01 0.0000000000000000e+00  2.0552862712320774e+00 1.4172830089586620e+01 0.0000000000000000e+00  2.0479411914405294e+00 1.4209446117365486e+01 0.0000000000000000e+00  2.0426771867852018e+00 1.4262654603515470e+01 0.0000000000000000e+00  2.0350601759433764e+00 1.4298359514300412e+01 0.0000000000000000e+00  2.0298645703220672e+00 1.4348365022257129e+01 0.0000000000000000e+00  2.0222836111653284e+00 1.4381633677622993e+01 0.0000000000000000e+00  2.0167624925698244e+00 1.4430907752100390e+01 0.0000000000000000e+00  2.0095973030880203e+00 1.4459896883029815e+01 0.0000000000000000e+00  2.0035844460208496e+00 1.4509510806830958e+01 0.0000000000000000e+00  1.9967293201675866e+00 1.4535068408738450e+01 0.0000000000000000e+00  1.9905915810629147e+00 1.4583201403192151e+01 0.0000000000000000e+00  1.9836381133862857e+00 1.4607682334318708e+01 0.0000000000000000e+00  1.9776499908668168e+00 1.4653075236837589e+01 0.0000000000000000e+00  1.9705979097983346e+00 1.4676623143299780e+01 0.0000000000000000e+00  1.9645961762737498e+00 1.4720249371654383e+01 0.0000000000000000e+00  1.9576388655586530e+00 1.4742033600714441e+01 0.0000000000000000e+00  1.9515816230995160e+00 1.4784220272485548e+01 0.0000000000000000e+00  1.9446676140683079e+00 1.4804599520955852e+01 0.0000000000000000e+00  1.9386631135744969e+00 1.4844951468413665e+01 0.0000000000000000e+00  1.9318003818553571e+00 1.4863980335115366e+01 0.0000000000000000e+00  1.9258478148632350e+00 1.4902625873078266e+01 0.0000000000000000e+00  1.9191469586556735e+00 1.4919891085629443e+01 0.0000000000000000e+00  1.9133606280331412e+00 1.4956494754206636e+01 0.0000000000000000e+00  1.9069210269823307e+00 1.4971660065957977e+01 0.0000000000000000e+00  1.9019711838676727e+00 1.5003722845552689e+01 0.0000000000000000e+00  1.8968116347692527e+00 1.5012871899488685e+01 0.0000000000000000e+00  1.8940964371422953e+00 1.5035440734913406e+01 0.0000000000000000e+00  1.8979712340421662e+00 1.5008520460508617e+01 0.0000000000000000e+00  1.9113865929871590e+00 1.4966358237824950e+01 0.0000000000000000e+00  1.9236348635145524e+00 1.4902201350175494e+01 0.0000000000000000e+00  1.9308396117745532e+00 1.4883442200963144e+01 0.0000000000000000e+00  1.9329486740683155e+00 1.4861371052585655e+01 0.0000000000000000e+00  1.9345430317895571e+00 1.4867375560887499e+01 0.0000000000000000e+00  1.9347182501460629e+00 1.4853318668966851e+01 0.0000000000000000e+00  1.9357423160532059e+00 1.4862158574346820e+01 0.0000000000000000e+00  1.9356326632812817e+00 1.4849216611576516e+01 0.0000000000000000e+00  1.9364601419497116e+00 1.4858597975092190e+01 0.0000000000000000e+00  1.9362416117775985e+00 1.4847118162799019e+01 0.0000000000000000e+00  1.9368848950031550e+00 1.4855266383659748e+01 0.0000000000000000e+00  1.9367112049770194e+00 1.4847092948989628e+01 0.0000000000000000e+00  1.9370772818927500e+00 1.4850922155329785e+01 0.0000000000000000e+00  1.9371570858798342e+00 1.4849807893780396e+01 0.0000000000000000e+00  1.9370427029504436e+00 1.4844217173376826e+01 0.0000000000000000e+00  1.9376707405716251e+00 1.4856275762905829e+01 0.0000000000000000e+00  1.9367680717462079e+00 1.4833843807866469e+01 0.0000000000000000e+00  1.9383095251604727e+00 1.4867346910307351e+01 0.0000000000000000e+00  1.9362701908012998e+00 1.4819209067697482e+01 0.0000000000000000e+00  1.9390472217853731e+00 1.4882602374975422e+01 0.0000000000000000e+00  1.9356791330987135e+00 1.4801950743657065e+01 0.0000000000000000e+00  1.9396729329728046e+00 1.4898246557778936e+01 0.0000000000000000e+00  1.9353758117924920e+00 1.4788679205362662e+01 0.0000000000000000e+00  1.9396278003260381e+00 1.4903626837202253e+01 0.0000000000000000e+00  1.9361893755132489e+00 1.4795190210442012e+01 0.0000000000000000e+00  1.9377957969086783e+00 1.4876264544180303e+01 0.0000000000000000e+00  1.9396058180216340e+00 1.4851863182825442e+01 0.0000000000000000e+00  1.9323820171200545e+00 1.4775800137168362e+01 0.0000000000000000e+00  1.9476850040006175e+00 1.5009258228886587e+01 0.0000000000000000e+00  1.9216114544900988e+00 1.4536774849530579e+01 0.0000000000000000e+00  1.9609289339751939e+00 1.5346093658458006e+01 0.0000000000000000e+00  1.9094891065261514e+00 1.4048654425354183e+01 0.0000000000000000e+00  1.9637637423199954e+00 1.6015520911537347e+01 0.0000000000000000e+00  1.9417461167939443e+00 1.3020205659960736e+01 0.0000000000000000e+00  1.8466534528562297e+00 1.7514795962931100e+01 0.0000000000000000e+00  2.8612920015395047e+00 3.9295797605065736e+00 0.0000000000000000e+00  3.1181244903662741e+00 -1.4844981799459969e+00 0.0000000000000000e+00  2.9491080066427759e+00 1.9500852292564392e+00 0.0000000000000000e+00  3.1374559101793014e+00 -1.5753919638372744e+00 0.0000000000000000e+00  2.9873861942988156e+00 1.2680180349920254e+00 0.0000000000000000e+00  3.0965585992105429e+00 -7.9114949774447285e-01 0.0000000000000000e+00  3.0289654865620168e+00 4.6921635056965838e-01 0.0000000000000000e+00  3.0641240117086150e+00 -1.7675054398639126e-01 0.0000000000000000e+00  3.0523241818297624e+00 2.0788470558790878e-02 0.0000000000000000e+00  3.0501589097329478e+00 9.0345648738123799e-02 0.0000000000000000e+00  3.0593614698842480e+00 -1.1279515299508105e-01 0.0000000000000000e+00  3.0482710855612813e+00 1.2660209654203425e-01 0.0000000000000000e+00  3.0583784682996651e+00 -9.3898664990484160e-02 0.0000000000000000e+00  3.0507517828121919e+00 7.8625628227941197e-02 0.0000000000000000e+00  3.0556187145238609e+00 -4.1257915308028727e-02 0.0000000000000000e+00  3.0532897720074703e+00 2.9570114782692149e-02 0.0000000000000000e+00  3.0537096330171765e+00 -4.8479023023458214e-03 0.0000000000000000e+00  3.0546251913286762e+00 3.5351982286579565e-03 0.0000000000000000e+00  3.0529809853264656e+00 8.9822413152042153e-03 0.0000000000000000e+00  3.0549831024395351e+00 -3.7611516174740796e-03 0.0000000000000000e+00  3.0529532571165170e+00 9.4285549458908088e-03 0.0000000000000000e+00  3.0549005254446278e+00 -2.5855641264329963e-03 0.0000000000000000e+00  3.0531479675318547e+00 5.6170381311340684e-03 0.0000000000000000e+00  3.0547413251791982e+00 5.2142732581457177e-05 0.0000000000000000e+00  3.0533197630663667e+00 2.2426094403398744e-03 0.0000000000000000e+00  3.0546430480172564e+00 1.4557961397988464e-03 0.0000000000000000e+00  3.0534095003290505e+00 4.8435007504683879e-04 0.0000000000000000e+00  3.0546104064933925e+00 1.4276965561497088e-03 0.0000000000000000e+00  3.0534401606980288e+00 -4.0315371303900118e-05 0.0000000000000000e+00  3.0546074083520018e+00 5.5981690081789953e-04 0.0000000000000000e+00  3.0534457579074790e+00 0.0000000000000000e+00 0.0000000000000000e+00  </DataArray> 
</PointData> 
</Piece>
</UnstructuredGrid>
</VTKFile>