<?xml version="1.0"?>
<VTKFile type="UnstructuredGrid"  version="0.1"  >
<UnstructuredGrid>
<Piece  NumberOfPoints="201" NumberOfCells="200">
<Points>
<DataArray  type="Float64"  NumberOfComponents="3"  format="ascii">-5 0 0  -4.95 0 0  -4.9 0 0  -4.85 0 0  -4.8 0 0  -4.75 0 0  -4.7 0 0  -4.65 0 0  -4.6 0 0  -4.55 0 0  -4.5 0 0  -4.45 0 0  -4.4 0 0  -4.35 0 0  -4.3 0 0  -4.25 0 0  -4.2 0 0  -4.15 0 0  -4.1 0 0  -4.05 0 0  -4 0 0  -3.95 0 0  -3.9 0 0  -3.85 0 0  -3.8 0 0  -3.75 0 0  -3.7 0 0  -3.65 0 0  -3.6 0 0  -3.55 0 0  -3.5 0 0  -3.45 0 0  -3.4 0 0  -3.35 0 0  -3.3 0 0  -3.25 0 0  -3.2 0 0  -3.15 0 0  -3.1 0 0  -3.05 0 0  -3 0 0  -2.95 0 0  -2.9 0 0  -2.85 0 0  -2.8 0 0  -2.75 0 0  -2.7 0 0  -2.65 0 0  -2.6 0 0  -2.55 0 0  -2.5 0 0  -2.45 0 0  -2.4 0 0  -2.35 0 0  -2.3 0 0  -2.25 0 0  -2.2 0 0  -2.15 0 0  -2.1 0 0  -2.05 0 0  -2 0 0  -1.95 0 0  -1.9 0 0  -1.85 0 0  -1.8 0 0  -1.75 0 0  -1.7 0 0  -1.65 0 0  -1.6 0 0  -1.55 0 0  -1.5 0 0  -1.45 0 0  -1.4 0 0  -1.35 0 0  -1.3 0 0  -1.25 0 0  -1.2 0 0  -1.15 0 0  -1.1 0 0  -1.05 0 0  -1 0 0  -0.9500000000000002 0 0  -0.9000000000000004 0 0  -0.8499999999999996 0 0  -0.7999999999999998 0 0  -0.75 0 0  -0.7000000000000002 0 0  -0.6500000000000004 0 0  -0.5999999999999996 0 0  -0.5499999999999998 0 0  -0.5 0 0  -0.4500000000000002 0 0  -0.4000000000000004 0 0  -0.3499999999999996 0 0  -0.2999999999999998 0 0  -0.25 0 0  -0.2000000000000002 0 0  -0.1500000000000004 0 0  -0.09999999999999964 0 0  -0.04999999999999982 0 0  0 0 0  0.04999999999999982 0 0  0.09999999999999964 0 0  0.1500000000000004 0 0  0.2000000000000002 0 0  0.25 0 0  0.2999999999999998 0 0  0.3499999999999996 0 0  0.4000000000000004 0 0  0.4500000000000002 0 0  0.5 0 0  0.5499999999999998 0 0  0.5999999999999996 0 0  0.6500000000000004 0 0  0.7000000000000002 0 0  0.75 0 0  0.7999999999999998 0 0  0.8499999999999996 0 0  0.9000000000000004 0 0  0.9500000000000002 0 0  1 0 0  1.05 0 0  1.1 0 0  1.15 0 0  1.2 0 0  1.25 0 0  1.3 0 0  1.35 0 0  1.4 0 0  1.45 0 0  1.5 0 0  1.55 0 0  1.6 0 0  1.65 0 0  1.7 0 0  1.75 0 0  1.8 0 0  1.85 0 0  1.9 0 0  1.95 0 0  2 0 0  2.05 0 0  2.1 0 0  2.15 0 0  2.2 0 0  2.25 0 0  2.3 0 0  2.35 0 0  2.4 0 0  2.45 0 0  2.5 0 0  2.55 0 0  2.6 0 0  2.65 0 0  2.7 0 0  2.75 0 0  2.8 0 0  2.85 0 0  2.9 0 0  2.95 0 0  3 0 0  3.050000000000001 0 0  3.1 0 0  3.15 0 0  3.199999999999999 0 0  3.25 0 0  3.300000000000001 0 0  3.35 0 0  3.4 0 0  3.449999999999999 0 0  3.5 0 0  3.550000000000001 0 0  3.6 0 0  3.65 0 0  3.699999999999999 0 0  3.75 0 0  3.800000000000001 0 0  3.85 0 0  3.9 0 0  3.949999999999999 0 0  4 0 0  4.050000000000001 0 0  4.1 0 0  4.15 0 0  4.199999999999999 0 0  4.25 0 0  4.300000000000001 0 0  4.35 0 0  4.4 0 0  4.449999999999999 0 0  4.5 0 0  4.550000000000001 0 0  4.6 0 0  4.65 0 0  4.699999999999999 0 0  4.75 0 0  4.800000000000001 0 0  4.85 0 0  4.9 0 0  4.949999999999999 0 0  5 0 0  </DataArray>
</Points>
<Cells>
<DataArray  type="UInt32"  Name="connectivity"  format="ascii">0 1  1 2  2 3  3 4  4 5  5 6  6 7  7 8  8 9  9 10  10 11  11 12  12 13  13 14  14 15  15 16  16 17  17 18  18 19  19 20  20 21  21 22  22 23  23 24  24 25  25 26  26 27  27 28  28 29  29 30  30 31  31 32  32 33  33 34  34 35  35 36  36 37  37 38  38 39  39 40  40 41  41 42  42 43  43 44  44 45  45 46  46 47  47 48  48 49  49 50  50 51  51 52  52 53  53 54  54 55  55 56  56 57  57 58  58 59  59 60  60 61  61 62  62 63  63 64  64 65  65 66  66 67  67 68  68 69  69 70  70 71  71 72  72 73  73 74  74 75  75 76  76 77  77 78  78 79  79 80  80 81  81 82  82 83  83 84  84 85  85 86  86 87  87 88  88 89  89 90  90 91  91 92  92 93  93 94  94 95  95 96  96 97  97 98  98 99  99 100  100 101  101 102  102 103  103 104  104 105  105 106  106 107  107 108  108 109  109 110  110 111  111 112  112 113  113 114  114 115  115 116  116 117  117 118  118 119  119 120  120 121  121 122  122 123  123 124  124 125  125 126  126 127  127 128  128 129  129 130  130 131  131 132  132 133  133 134  134 135  135 136  136 137  137 138  138 139  139 140  140 141  141 142  142 143  143 144  144 145  145 146  146 147  147 148  148 149  149 150  150 151  151 152  152 153  153 154  154 155  155 156  156 157  157 158  158 159  159 160  160 161  161 162  162 163  163 164  164 165  165 166  166 167  167 168  168 169  169 170  170 171  171 172  172 173  173 174  174 175  175 176  176 177  177 178  178 179  179 180  180 181  181 182  182 183  183 184  184 185  185 186  186 187  187 188  188 189  189 190  190 191  191 192  192 193  193 194  194 195  195 196  196 197  197 198  198 199  199 200  </DataArray>
<DataArray  type="UInt32"  Name="offsets"  format="ascii">2 4 6 8 10 12 14 16 18 20 22 24 26 28 30 32 34 36 38 40 42 44 46 48 50 52 54 56 58 60 62 64 66 68 70 72 74 76 78 80 82 84 86 88 90 92 94 96 98 100 102 104 106 108 110 112 114 116 118 120 122 124 126 128 130 132 134 136 138 140 142 144 146 148 150 152 154 156 158 160 162 164 166 168 170 172 174 176 178 180 182 184 186 188 190 192 194 196 198 200 202 204 206 208 210 212 214 216 218 220 222 224 226 228 230 232 234 236 238 240 242 244 246 248 250 252 254 256 258 260 262 264 266 268 270 272 274 276 278 280 282 284 286 288 290 292 294 296 298 300 302 304 306 308 310 312 314 316 318 320 322 324 326 328 330 332 334 336 338 340 342 344 346 348 350 352 354 356 358 360 362 364 366 368 370 372 374 376 378 380 382 384 386 388 390 392 394 396 398 400 </DataArray>
<DataArray  type="UInt8"  Name="types"  format="ascii">3 3 3 3 3 3 3 3 3 3 3 3 3 3 3 3 3 3 3 3 3 3 3 3 3 3 3 3 3 3 3 3 3 3 3 3 3 3 3 3 3 3 3 3 3 3 3 3 3 3 3 3 3 3 3 3 3 3 3 3 3 3 3 3 3 3 3 3 3 3 3 3 3 3 3 3 3 3 3 3 3 3 3 3 3 3 3 3 3 3 3 3 3 3 3 3 3 3 3 3 3 3 3 3 3 3 3 3 3 3 3 3 3 3 3 3 3 3 3 3 3 3 3 3 3 3 3 3 3 3 3 3 3 3 3 3 3 3 3 3 3 3 3 3 3 3 3 3 3 3 3 3 3 3 3 3 3 3 3 3 3 3 3 3 3 3 3 3 3 3 3 3 3 3 3 3 3 3 3 3 3 3 3 3 3 3 3 3 3 3 3 3 3 3 3 3 3 3 3 3 </DataArray>
</Cells>
<PointData  Vectors="(s, w)"> 
<DataArray  type="Float64"  Name="(s, w)"  NumberOfComponents="3" format="ascii">2.0916960455051661e+00 0.0000000000000000e+00 0.0000000000000000e+00  2.0975934457129370e+00 1.3059575996269429e-01 0.0000000000000000e+00  2.0916690456908049e+00 2.6282251930124106e-01 0.0000000000000000e+00  2.0975526178869157e+00 3.9176903666239277e-01 0.0000000000000000e+00  2.0915879388001555e+00 5.2562542965757530e-01 0.0000000000000000e+00  2.0974710704735013e+00 6.5288731418125168e-01 0.0000000000000000e+00  2.0914523975594967e+00 7.8838950656179207e-01 0.0000000000000000e+00  2.0973490293897505e+00 9.1391303041551719e-01 0.0000000000000000e+00  2.0912618606977116e+00 1.0510962889692939e+00 0.0000000000000000e+00  2.0971868558031987e+00 1.1748072918989032e+00 0.0000000000000000e+00  2.0910155115599127e+00 1.3137284384793959e+00 0.0000000000000000e+00  2.0969850689023732e+00 1.4355293826037760e+00 0.0000000000000000e+00  2.0907122534213722e+00 1.5762700453040692e+00 0.0000000000000000e+00  2.0967443686545804e+00 1.6960363533490370e+00 0.0000000000000000e+00  2.0903506881352212e+00 1.8387068172891674e+00 0.0000000000000000e+00  2.0964656500762264e+00 1.9562827745441451e+00 0.0000000000000000e+00  2.0899291086120253e+00 2.1010260450758103e+00 0.0000000000000000e+00  2.0961499960178775e+00 2.2162207841767301e+00 0.0000000000000000e+00  2.0894455208358984e+00 2.3632161806215506e+00 0.0000000000000000e+00  2.0957986296184816e+00 2.4758006235113008e+00 0.0000000000000000e+00  2.0888977175425212e+00 2.6252658016255528e+00 0.0000000000000000e+00  2.0954128008063764e+00 2.7349719179099732e+00 0.0000000000000000e+00  2.0882834325580482e+00 2.8871616717383959e+00 0.0000000000000000e+00  2.0949935747357777e+00 2.9936860136063776e+00 0.0000000000000000e+00  2.0876006103263633e+00 3.1488855672423424e+00 0.0000000000000000e+00  2.0945414863015097e+00 3.2518996947407657e+00 0.0000000000000000e+00  2.0868478260968977e+00 3.4104095603386870e+00 0.0000000000000000e+00  2.0940560279000513e+00 3.5095805356110765e+00 0.0000000000000000e+00  2.0860248837203716e+00 3.6716895764477151e+00 0.0000000000000000e+00  2.0935349529953604e+00 3.7667139361043769e+00 0.0000000000000000e+00  2.0851335937933158e+00 3.9326573354056857e+00 0.0000000000000000e+00  2.0929734122270895e+00 4.0233114877414531e+00 0.0000000000000000e+00  2.0841786887533034e+00 4.1932112940799140e+00 0.0000000000000000e+00  2.0923629971158531e+00 4.2794196894600791e+00 0.0000000000000000e+00  2.0831687598430793e+00 4.4532079447555128e+00 0.0000000000000000e+00  2.0916908497549986e+00 4.5351271996676363e+00 0.0000000000000000e+00  2.0821170068763468e+00 4.7124557270555947e+00 0.0000000000000000e+00  2.0909390968915988e+00 4.7905679001943771e+00 0.0000000000000000e+00  2.0810414907616948e+00 4.9707146964905311e+00 0.0000000000000000e+00  2.0900849608494463e+00 5.0459163261253552e+00 0.0000000000000000e+00  2.0799645026366975e+00 5.2277056217295881e+00 0.0000000000000000e+00  2.0891019478037482e+00 5.3013718989539349e+00 0.0000000000000000e+00  2.0789106611909522e+00 5.4831318764471435e+00 0.0000000000000000e+00  2.0879624611800010e+00 5.5571293921593758e+00 0.0000000000000000e+00  2.0779034796245526e+00 5.7367158266930325e+00 0.0000000000000000e+00  2.0866419775021581e+00 5.8133355880917685e+00 0.0000000000000000e+00  2.0769604534099657e+00 5.9882480334946706e+00 0.0000000000000000e+00  2.0851245204194488e+00 6.0700362475893286e+00 0.0000000000000000e+00  2.0760872142676248e+00 6.2376426186667118e+00 0.0000000000000000e+00  2.0834086023988947e+00 6.3271227609195311e+00 0.0000000000000000e+00  2.0752718986272445e+00 6.4849865299904943e+00 0.0000000000000000e+00  2.0815121953312197e+00 6.5842927705277203e+00 0.0000000000000000e+00  2.0744814092041861e+00 6.7305661389812519e+00 0.0000000000000000e+00  2.0794748734576540e+00 6.8410414451066197e+00 0.0000000000000000e+00  2.0736614343063202e+00 6.9748542936289244e+00 0.0000000000000000e+00  2.0773553479671718e+00 7.0966974702758447e+00 0.0000000000000000e+00  2.0727416462889954e+00 7.2184471180021186e+00 0.0000000000000000e+00  2.0752234425208336e+00 7.3505085432824249e+00 0.0000000000000000e+00  2.0716462751364899e+00 7.4619532480492170e+00 0.0000000000000000e+00  2.0731471793168534e+00 7.6017657829877283e+00 0.0000000000000000e+00  2.0703083974564969e+00 7.7058562301479094e+00 0.0000000000000000e+00  2.0711776917683653e+00 7.8499389506239954e+00 0.0000000000000000e+00  2.0686843622321254e+00 7.9503870251772879e+00 0.0000000000000000e+00  2.0693363486374325e+00 8.0947819931815843e+00 0.0000000000000000e+00  2.0667636944073418e+00 8.1954493230128271e+00 0.0000000000000000e+00  2.0676087645365033e+00 8.3363694053095401e+00 0.0000000000000000e+00  2.0645704523347335e+00 8.4406290742291645e+00 0.0000000000000000e+00  2.0659486234663271e+00 8.5750427950066150e+00 0.0000000000000000e+00  2.0621546429615782e+00 8.6852917836114241e+00 0.0000000000000000e+00  2.0642907372322825e+00 8.8112797402401988e+00 0.0000000000000000e+00  2.0595761347922013e+00 8.9287367491961263e+00 0.0000000000000000e+00  2.0625689461503494e+00 9.0455294963103725e+00 0.0000000000000000e+00  2.0568868140404257e+00 9.1703528453813288e+00 0.0000000000000000e+00  2.0607323720143720e+00 9.2780744833651241e+00 0.0000000000000000e+00  2.0541175600310484e+00 9.4097203215394174e+00 0.0000000000000000e+00  2.0587542751495751e+00 9.5089646297484638e+00 0.0000000000000000e+00  2.0512739576654289e+00 9.6466317206640770e+00 0.0000000000000000e+00  2.0566308940615619e+00 9.7380403018600283e+00 0.0000000000000000e+00  2.0483408212884346e+00 9.8810393766238551e+00 0.0000000000000000e+00  2.0543733143003924e+00 9.9650108916547424e+00 0.0000000000000000e+00  2.0452960143562104e+00 1.0112933328738457e+01 0.0000000000000000e+00  2.0520012647409640e+00 1.0189512958704640e+01 0.0000000000000000e+00  2.0421304590349059e+00 1.0342182272188975e+01 0.0000000000000000e+00  2.0495193504064670e+00 1.0411300729536585e+01 0.0000000000000000e+00  2.0388033282302951e+00 1.0568883410581257e+01 0.0000000000000000e+00  2.0468239807223223e+00 1.0630942116458698e+01 0.0000000000000000e+00  2.0353598164051148e+00 1.0792451062190857e+01 0.0000000000000000e+00  2.0442362896896586e+00 1.0845771698940279e+01 0.0000000000000000e+00  2.0324710071617198e+00 1.1007734873014458e+01 0.0000000000000000e+00  2.0410073883915016e+00 1.1061181302011855e+01 0.0000000000000000e+00  2.0276103657685667e+00 1.1232960640008679e+01 0.0000000000000000e+00  2.0365805228232832e+00 1.1280594606253105e+01 0.0000000000000000e+00  2.0305852605466117e+00 1.1397485079428977e+01 0.0000000000000000e+00  2.0366210582620057e+00 1.1463772892574768e+01 0.0000000000000000e+00  2.0186031873363608e+00 1.1663282253790653e+01 0.0000000000000000e+00  2.0172524603795225e+00 1.1775983494997083e+01 0.0000000000000000e+00  2.0383718061127611e+00 1.1703490778473025e+01 0.0000000000000000e+00  2.0263746581258477e+00 1.1887659492806684e+01 0.0000000000000000e+00  1.9780693980468929e+00 1.2277196200315689e+01 0.0000000000000000e+00  2.0398303244900355e+00 1.1965758636887381e+01 0.0000000000000000e+00  1.9978912340234711e+00 1.2314398601661061e+01 0.0000000000000000e+00  2.0155183965156795e+00 1.2289951150806214e+01 0.0000000000000000e+00  2.0072351733969724e+00 1.2414922623309856e+01 0.0000000000000000e+00  2.0068380979398746e+00 1.2503675231453974e+01 0.0000000000000000e+00  2.0033473866540308e+00 1.2594643088408500e+01 0.0000000000000000e+00  2.0015893527782347e+00 1.2688691229968684e+01 0.0000000000000000e+00  1.9981809797123693e+00 1.2775858145556477e+01 0.0000000000000000e+00  1.9964812697782983e+00 1.2866083565125413e+01 0.0000000000000000e+00  1.9929047208281123e+00 1.2950884227738642e+01 0.0000000000000000e+00  1.9908631459891744e+00 1.3039579874832059e+01 0.0000000000000000e+00  1.9876582079539449e+00 1.3118649463157134e+01 0.0000000000000000e+00  1.9849518731051052e+00 1.3207565557353668e+01 0.0000000000000000e+00  1.9819546021432182e+00 1.3281779955304977e+01 0.0000000000000000e+00  1.9791321969492111e+00 1.3367573375762866e+01 0.0000000000000000e+00  1.9757797725836519e+00 1.3440065288842929e+01 0.0000000000000000e+00  1.9730206475273020e+00 1.3521595835546682e+01 0.0000000000000000e+00  1.9695397748449732e+00 1.3591008261852974e+01 0.0000000000000000e+00  1.9665130180124677e+00 1.3669974611304113e+01 0.0000000000000000e+00  1.9630048061021770e+00 1.3735739950938003e+01 0.0000000000000000e+00  1.9598517655153138e+00 1.3811185603495243e+01 0.0000000000000000e+00  1.9561600507399386e+00 1.3874232756583757e+01 0.0000000000000000e+00  1.9528752133895624e+00 1.3945916875839554e+01 0.0000000000000000e+00  1.9491082979287189e+00 1.4005905223926799e+01 0.0000000000000000e+00  1.9456358351043541e+00 1.4073752708266483e+01 0.0000000000000000e+00  1.9417684876499435e+00 1.4131176941628093e+01 0.0000000000000000e+00  1.9381395327682243e+00 1.4194590689516744e+01 0.0000000000000000e+00  1.9342024283772454e+00 1.4249749177487194e+01 0.0000000000000000e+00  1.9303844721860073e+00 1.4308502616344953e+01 0.0000000000000000e+00  1.9263880999770970e+00 1.4361660153889494e+01 0.0000000000000000e+00  1.9224179289121108e+00 1.4415579520829082e+01 0.0000000000000000e+00  1.9183472958529826e+00 1.4466515588935197e+01 0.0000000000000000e+00  1.9142923508957854e+00 1.4516335993916423e+01 0.0000000000000000e+00  1.9100758901934167e+00 1.4563612415608617e+01 0.0000000000000000e+00  1.9061382680786865e+00 1.4611624352884949e+01 0.0000000000000000e+00  1.9016351119202715e+00 1.4651303561769698e+01 0.0000000000000000e+00  1.8982133399484187e+00 1.4702692360044134e+01 0.0000000000000000e+00  1.8931817577141008e+00 1.4726760591811523e+01 0.0000000000000000e+00  1.8916047916530478e+00 1.4788454973167852e+01 0.0000000000000000e+00  1.8862298439987335e+00 1.4781183785662819e+01 0.0000000000000000e+00  1.8893908714272252e+00 1.4860860789630069e+01 0.0000000000000000e+00  1.8915370237595188e+00 1.4769784019047311e+01 0.0000000000000000e+00  1.9115529364267447e+00 1.4842187939076261e+01 0.0000000000000000e+00  1.9144044517886198e+00 1.4666664584729032e+01 0.0000000000000000e+00  1.9310764406128775e+00 1.4836613276222700e+01 0.0000000000000000e+00  1.9207047174395564e+00 1.4621144351486521e+01 0.0000000000000000e+00  1.9372985919688557e+00 1.4881386910851907e+01 0.0000000000000000e+00  1.9216232344542874e+00 1.4611821542239888e+01 0.0000000000000000e+00  1.9399167829374999e+00 1.4899845097757110e+01 0.0000000000000000e+00  1.9243950544393473e+00 1.4659732521170042e+01 0.0000000000000000e+00  1.9381094403625247e+00 1.4822995847621245e+01 0.0000000000000000e+00  1.9316442114504189e+00 1.4850842188331631e+01 0.0000000000000000e+00  1.9327457818547003e+00 1.4519971853114786e+01 0.0000000000000000e+00  1.9332892252192155e+00 1.5382885504211631e+01 0.0000000000000000e+00  1.9648047372184956e+00 1.3609942184751045e+01 0.0000000000000000e+00  1.8119010512518863e+00 1.6946250016987520e+01 0.0000000000000000e+00  2.5975132989952896e+00 7.8926619478471522e+00 0.0000000000000000e+00  3.1833454647987867e+00 -2.7056630579294429e+00 0.0000000000000000e+00  2.9161259727181306e+00 2.6319176058936882e+00 0.0000000000000000e+00  3.1398003874814107e+00 -1.6754198649050802e+00 0.0000000000000000e+00  2.9986892992635621e+00 1.0332963184403843e+00 0.0000000000000000e+00  3.0771454700441891e+00 -4.8111203602616176e-01 0.0000000000000000e+00  3.0476054135712309e+00 1.0597522450212900e-01 0.0000000000000000e+00  3.0474210605490630e+00 9.8391951615798653e-02 0.0000000000000000e+00  3.0644248609070788e+00 -2.0359148947039385e-01 0.0000000000000000e+00  3.0418429301196679e+00 2.1582862223870727e-01 0.0000000000000000e+00  3.0642113323522202e+00 -1.9123132419828251e-01 0.0000000000000000e+00  3.0459469669449750e+00 1.4393765151565646e-01 0.0000000000000000e+00  3.0593676998928245e+00 -9.3581595725852160e-02 0.0000000000000000e+00  3.0508732586585947e+00 5.3909109905552609e-02 0.0000000000000000e+00  3.0556219677885355e+00 -1.8660890746027375e-02 0.0000000000000000e+00  3.0536840178936258e+00 3.0465408765501531e-03 0.0000000000000000e+00  3.0540469227604441e+00 1.3727610587081978e-02 0.0000000000000000e+00  3.0545588244448263e+00 -1.1647635395780422e-02 0.0000000000000000e+00  3.0538780083240424e+00 1.8458572165073829e-02 0.0000000000000000e+00  3.0544782497981289e+00 -8.7517406046398703e-03 0.0000000000000000e+00  3.0542058132633003e+00 1.3096861772193637e-02 0.0000000000000000e+00  3.0541787290697431e+00 -2.1690639678494813e-03 0.0000000000000000e+00  3.0545256245449277e+00 7.4739774703218272e-03 0.0000000000000000e+00  3.0539715460953327e+00 2.2972934335150092e-03 0.0000000000000000e+00  3.0546940996344794e+00 4.4501932604485636e-03 0.0000000000000000e+00  3.0538968808515228e+00 3.9715075759125962e-03 0.0000000000000000e+00  3.0547413383908335e+00 3.5267868671708517e-03 0.0000000000000000e+00  3.0538994955871686e+00 3.9770485624306762e-03 0.0000000000000000e+00  3.0547330769104750e+00 3.5041304281261598e-03 0.0000000000000000e+00  3.0539246063858467e+00 3.4104139587140567e-03 0.0000000000000000e+00  3.0547137946146306e+00 3.5713891237067804e-03 0.0000000000000000e+00  3.0539446612517653e+00 2.8320646762271208e-03 0.0000000000000000e+00  3.0547007474877823e+00 3.4270053128475433e-03 0.0000000000000000e+00  3.0539536396350182e+00 2.3823720284712377e-03 0.0000000000000000e+00  3.0546953932217797e+00 3.0653143994243178e-03 0.0000000000000000e+00  3.0539548506682843e+00 2.0180394211299179e-03 0.0000000000000000e+00  3.0546942132019019e+00 2.5715623172818300e-03 0.0000000000000000e+00  3.0539528480825995e+00 1.6683734726657964e-03 0.0000000000000000e+00  3.0546941570627104e+00 2.0194975969469596e-03 0.0000000000000000e+00  3.0539504710201513e+00 1.2930508871990050e-03 0.0000000000000000e+00  3.0546939237254587e+00 1.4478057937108754e-03 0.0000000000000000e+00  3.0539487846300779e+00 8.8359488154302198e-04 0.0000000000000000e+00  3.0546934365105174e+00 8.7026448075400175e-04 0.0000000000000000e+00  3.0539478916789977e+00 4.4826412537546378e-04 0.0000000000000000e+00  3.0546930520517308e+00 2.9036373551005393e-04 0.0000000000000000e+00  3.0539476234853793e+00 0.0000000000000000e+00 0.0000000000000000e+00  </DataArray> 
</PointData> 
</Piece>
</UnstructuredGrid>
</VTKFile>