<?xml version="1.0"?>
<VTKFile type="UnstructuredGrid"  version="0.1"  >
<UnstructuredGrid>
<Piece  NumberOfPoints="201" NumberOfCells="200">
<Points>
<DataArray  type="Float64"  NumberOfComponents="3"  format="ascii">-5 0 0  -4.95 0 0  -4.9 0 0  -4.85 0 0  -4.8 0 0  -4.75 0 0  -4.7 0 0  -4.65 0 0  -4.6 0 0  -4.55 0 0  -4.5 0 0  -4.45 0 0  -4.4 0 0  -4.35 0 0  -4.3 0 0  -4.25 0 0  -4.2 0 0  -4.15 0 0  -4.1 0 0  -4.05 0 0  -4 0 0  -3.95 0 0  -3.9 0 0  -3.85 0 0  -3.8 0 0  -3.75 0 0  -3.7 0 0  -3.65 0 0  -3.6 0 0  -3.55 0 0  -3.5 0 0  -3.45 0 0  -3.4 0 0  -3.35 0 0  -3.3 0 0  -3.25 0 0  -3.2 0 0  -3.15 0 0  -3.1 0 0  -3.05 0 0  -3 0 0  -2.95 0 0  -2.9 0 0  -2.85 0 0  -2.8 0 0  -2.75 0 0  -2.7 0 0  -2.65 0 0  -2.6 0 0  -2.55 0 0  -2.5 0 0  -2.45 0 0  -2.4 0 0  -2.35 0 0  -2.3 0 0  -2.25 0 0  -2.2 0 0  -2.15 0 0  -2.1 0 0  -2.05 0 0  -2 0 0  -1.95 0 0  -1.9 0 0  -1.85 0 0  -1.8 0 0  -1.75 0 0  -1.7 0 0  -1.65 0 0  -1.6 0 0  -1.55 0 0  -1.5 0 0  -1.45 0 0  -1.4 0 0  -1.35 0 0  -1.3 0 0  -1.25 0 0  -1.2 0 0  -1.15 0 0  -1.1 0 0  -1.05 0 0  -1 0 0  -0.9500000000000002 0 0  -0.9000000000000004 0 0  -0.8499999999999996 0 0  -0.7999999999999998 0 0  -0.75 0 0  -0.7000000000000002 0 0  -0.6500000000000004 0 0  -0.5999999999999996 0 0  -0.5499999999999998 0 0  -0.5 0 0  -0.4500000000000002 0 0  -0.4000000000000004 0 0  -0.3499999999999996 0 0  -0.2999999999999998 0 0  -0.25 0 0  -0.2000000000000002 0 0  -0.1500000000000004 0 0  -0.09999999999999964 0 0  -0.04999999999999982 0 0  0 0 0  0.04999999999999982 0 0  0.09999999999999964 0 0  0.1500000000000004 0 0  0.2000000000000002 0 0  0.25 0 0  0.2999999999999998 0 0  0.3499999999999996 0 0  0.4000000000000004 0 0  0.4500000000000002 0 0  0.5 0 0  0.5499999999999998 0 0  0.5999999999999996 0 0  0.6500000000000004 0 0  0.7000000000000002 0 0  0.75 0 0  0.7999999999999998 0 0  0.8499999999999996 0 0  0.9000000000000004 0 0  0.9500000000000002 0 0  1 0 0  1.05 0 0  1.1 0 0  1.15 0 0  1.2 0 0  1.25 0 0  1.3 0 0  1.35 0 0  1.4 0 0  1.45 0 0  1.5 0 0  1.55 0 0  1.6 0 0  1.65 0 0  1.7 0 0  1.75 0 0  1.8 0 0  1.85 0 0  1.9 0 0  1.95 0 0  2 0 0  2.05 0 0  2.1 0 0  2.15 0 0  2.2 0 0  2.25 0 0  2.3 0 0  2.35 0 0  2.4 0 0  2.45 0 0  2.5 0 0  2.55 0 0  2.6 0 0  2.65 0 0  2.7 0 0  2.75 0 0  2.8 0 0  2.85 0 0  2.9 0 0  2.95 0 0  3 0 0  3.050000000000001 0 0  3.1 0 0  3.15 0 0  3.199999999999999 0 0  3.25 0 0  3.300000000000001 0 0  3.35 0 0  3.4 0 0  3.449999999999999 0 0  3.5 0 0  3.550000000000001 0 0  3.6 0 0  3.65 0 0  3.699999999999999 0 0  3.75 0 0  3.800000000000001 0 0  3.85 0 0  3.9 0 0  3.949999999999999 0 0  4 0 0  4.050000000000001 0 0  4.1 0 0  4.15 0 0  4.199999999999999 0 0  4.25 0 0  4.300000000000001 0 0  4.35 0 0  4.4 0 0  4.449999999999999 0 0  4.5 0 0  4.550000000000001 0 0  4.6 0 0  4.65 0 0  4.699999999999999 0 0  4.75 0 0  4.800000000000001 0 0  4.85 0 0  4.9 0 0  4.949999999999999 0 0  5 0 0  </DataArray>
</Points>
<Cells>
<DataArray  type="UInt32"  Name="connectivity"  format="ascii">0 1  1 2  2 3  3 4  4 5  5 6  6 7  7 8  8 9  9 10  10 11  11 12  12 13  13 14  14 15  15 16  16 17  17 18  18 19  19 20  20 21  21 22  22 23  23 24  24 25  25 26  26 27  27 28  28 29  29 30  30 31  31 32  32 33  33 34  34 35  35 36  36 37  37 38  38 39  39 40  40 41  41 42  42 43  43 44  44 45  45 46  46 47  47 48  48 49  49 50  50 51  51 52  52 53  53 54  54 55  55 56  56 57  57 58  58 59  59 60  60 61  61 62  62 63  63 64  64 65  65 66  66 67  67 68  68 69  69 70  70 71  71 72  72 73  73 74  74 75  75 76  76 77  77 78  78 79  79 80  80 81  81 82  82 83  83 84  84 85  85 86  86 87  87 88  88 89  89 90  90 91  91 92  92 93  93 94  94 95  95 96  96 97  97 98  98 99  99 100  100 101  101 102  102 103  103 104  104 105  105 106  106 107  107 108  108 109  109 110  110 111  111 112  112 113  113 114  114 115  115 116  116 117  117 118  118 119  119 120  120 121  121 122  122 123  123 124  124 125  125 126  126 127  127 128  128 129  129 130  130 131  131 132  132 133  133 134  134 135  135 136  136 137  137 138  138 139  139 140  140 141  141 142  142 143  143 144  144 145  145 146  146 147  147 148  148 149  149 150  150 151  151 152  152 153  153 154  154 155  155 156  156 157  157 158  158 159  159 160  160 161  161 162  162 163  163 164  164 165  165 166  166 167  167 168  168 169  169 170  170 171  171 172  172 173  173 174  174 175  175 176  176 177  177 178  178 179  179 180  180 181  181 182  182 183  183 184  184 185  185 186  186 187  187 188  188 189  189 190  190 191  191 192  192 193  193 194  194 195  195 196  196 197  197 198  198 199  199 200  </DataArray>
<DataArray  type="UInt32"  Name="offsets"  format="ascii">2 4 6 8 10 12 14 16 18 20 22 24 26 28 30 32 34 36 38 40 42 44 46 48 50 52 54 56 58 60 62 64 66 68 70 72 74 76 78 80 82 84 86 88 90 92 94 96 98 100 102 104 106 108 110 112 114 116 118 120 122 124 126 128 130 132 134 136 138 140 142 144 146 148 150 152 154 156 158 160 162 164 166 168 170 172 174 176 178 180 182 184 186 188 190 192 194 196 198 200 202 204 206 208 210 212 214 216 218 220 222 224 226 228 230 232 234 236 238 240 242 244 246 248 250 252 254 256 258 260 262 264 266 268 270 272 274 276 278 280 282 284 286 288 290 292 294 296 298 300 302 304 306 308 310 312 314 316 318 320 322 324 326 328 330 332 334 336 338 340 342 344 346 348 350 352 354 356 358 360 362 364 366 368 370 372 374 376 378 380 382 384 386 388 390 392 394 396 398 400 </DataArray>
<DataArray  type="UInt8"  Name="types"  format="ascii">3 3 3 3 3 3 3 3 3 3 3 3 3 3 3 3 3 3 3 3 3 3 3 3 3 3 3 3 3 3 3 3 3 3 3 3 3 3 3 3 3 3 3 3 3 3 3 3 3 3 3 3 3 3 3 3 3 3 3 3 3 3 3 3 3 3 3 3 3 3 3 3 3 3 3 3 3 3 3 3 3 3 3 3 3 3 3 3 3 3 3 3 3 3 3 3 3 3 3 3 3 3 3 3 3 3 3 3 3 3 3 3 3 3 3 3 3 3 3 3 3 3 3 3 3 3 3 3 3 3 3 3 3 3 3 3 3 3 3 3 3 3 3 3 3 3 3 3 3 3 3 3 3 3 3 3 3 3 3 3 3 3 3 3 3 3 3 3 3 3 3 3 3 3 3 3 3 3 3 3 3 3 3 3 3 3 3 3 3 3 3 3 3 3 3 3 3 3 3 3 </DataArray>
</Cells>
<PointData  Vectors="(s, w)"> 
<DataArray  type="Float64"  Name="(s, w)"  NumberOfComponents="3" format="ascii">2.1383701666763479e+00 0.0000000000000000e+00 0.0000000000000000e+00  2.1450326657428063e+00 1.3853518550675620e-01 0.0000000000000000e+00  2.1383366099936985e+00 2.7964220067936801e-01 0.0000000000000000e+00  2.1449895336655866e+00 4.1557718213440070e-01 0.0000000000000000e+00  2.1382357472347908e+00 5.5926936934187788e-01 0.0000000000000000e+00  2.1449035015510010e+00 6.9253404455703238e-01 0.0000000000000000e+00  2.1380670139726492e+00 8.3886625821294047e-01 0.0000000000000000e+00  2.1447750050797918e+00 9.6934907274314908e-01 0.0000000000000000e+00  2.1378295179168130e+00 1.1184169997620872e+00 0.0000000000000000e+00  2.1446046212784244e+00 1.2459659792285864e+00 0.0000000000000000e+00  2.1375221209253739e+00 1.3979043202664561e+00 0.0000000000000000e+00  2.1443929617570383e+00 1.5223297194260037e+00 0.0000000000000000e+00  2.1371435717711700e+00 1.6773081706419404e+00 0.0000000000000000e+00  2.1441405069177040e+00 1.7983879962667093e+00 0.0000000000000000e+00  2.1366927052938327e+00 1.9566035797570678e+00 0.0000000000000000e+00  2.1438473647461458e+00 2.0740936171648219e+00 0.0000000000000000e+00  2.1361687237087459e+00 2.2357575700318097e+00 0.0000000000000000e+00  2.1435129397642436e+00 2.3494078225052908e+00 0.0000000000000000e+00  2.1355715711966319e+00 2.5147250607154810e+00 0.0000000000000000e+00  2.1431355055640475e+00 2.6243045831353915e+00 0.0000000000000000e+00  2.1349024012220235e+00 2.7934438438600346e+00 0.0000000000000000e+00  2.1427116903038814e+00 2.8987756586611497e+00 0.0000000000000000e+00  2.1341641152318078e+00 3.0718289693613166e+00 0.0000000000000000e+00  2.1422359103277104e+00 3.1728359080598345e+00 0.0000000000000000e+00  2.1333619204127325e+00 3.3497672209289453e+00 0.0000000000000000e+00  2.1416998227649637e+00 3.4465279607967405e+00 0.0000000000000000e+00  2.1325038143028729e+00 3.6271127786013695e+00 0.0000000000000000e+00  2.1410919106668493e+00 3.7199249377152022e+00 0.0000000000000000e+00  2.1316008603251246e+00 3.9036855778383699e+00 0.0000000000000000e+00  2.1403973565774521e+00 3.9931295511189013e+00 0.0000000000000000e+00  2.1306670808869064e+00 4.1792741718232049e+00 0.0000000000000000e+00  2.1395983896853994e+00 4.2662677571001844e+00 0.0000000000000000e+00  2.1297187791334937e+00 4.4536449157192584e+00 0.0000000000000000e+00  2.1386752901309705e+00 4.5394753597625899e+00 0.0000000000000000e+00  2.1287731261999268e+00 4.7265588277847552e+00 0.0000000000000000e+00  2.1376081816206858e+00 4.8128767515518360e+00 0.0000000000000000e+00  2.1278459368908020e+00 4.9977963779534189e+00 0.0000000000000000e+00  2.1363796235971004e+00 5.0865564201092957e+00 0.0000000000000000e+00  2.1269487142229599e+00 5.2671886535502948e+00 0.0000000000000000e+00  2.1349778223568672e+00 5.3605259060273909e+00 0.0000000000000000e+00  2.1260852655442024e+00 5.5346510052047799e+00 0.0000000000000000e+00  2.1334000347413782e+00 5.6346912637765314e+00 0.0000000000000000e+00  2.1252484460865659e+00 5.8002128264387665e+00 0.0000000000000000e+00  2.1316554873375431e+00 5.9088281854105968e+00 0.0000000000000000e+00  2.1244178040903794e+00 6.0640353201790687e+00 0.0000000000000000e+00  2.1297669595662092e+00 6.1825729850561384e+00 0.0000000000000000e+00  2.1235589935851213e+00 6.3264089065518645e+00 0.0000000000000000e+00  2.1277701811720697e+00 6.4554367409815354e+00 0.0000000000000000e+00  2.1226256908210450e+00 6.5877242013564823e+00 0.0000000000000000e+00  2.1257104632444093e+00 6.7268464225446332e+00 0.0000000000000000e+00  2.1215643354857128e+00 6.8484156106566871e+00 0.0000000000000000e+00  2.1236365500854708e+00 6.9962107958730302e+00 0.0000000000000000e+00  2.1203213341730098e+00 7.1088839562956121e+00 0.0000000000000000e+00  2.1215924748623971e+00 7.2630012991921493e+00 0.0000000000000000e+00  2.1188515428261705e+00 7.3694123833585419e+00 0.0000000000000000e+00  2.1196090214845924e+00 7.5268310125583877e+00 0.0000000000000000e+00  2.1171261379027322e+00 7.6300953428450029e+00 0.0000000000000000e+00  2.1176969304413245e+00 7.7875111818854270e+00 0.0000000000000000e+00  2.1151377078503852e+00 7.8908007982601198e+00 0.0000000000000000e+00  2.1158439237265925e+00 8.0450671413878823e+00 0.0000000000000000e+00  2.1129008058998022e+00 8.1511792689145430e+00 0.0000000000000000e+00  2.1140167993800749e+00 8.2997049084436672e+00 0.0000000000000000e+00  2.1104473488082909e+00 8.4107206639840175e+00 0.0000000000000000e+00  2.1121683918241487e+00 8.5517342790857231e+00 0.0000000000000000e+00  2.1078178434596677e+00 8.6688448130375093e+00 0.0000000000000000e+00  2.1102475797546871e+00 8.8014689474625847e+00 0.0000000000000000e+00  2.1050508907290690e+00 8.9249999196236125e+00 0.0000000000000000e+00  2.1082094148402515e+00 9.0491326483104597e+00 0.0000000000000000e+00  2.1021740864665936e+00 9.1787402517845997e+00 0.0000000000000000e+00  2.1060223924003796e+00 9.2947980534100854e+00 0.0000000000000000e+00  2.0991989123287906e+00 9.4297623582523578e+00 0.0000000000000000e+00  2.1036709895420196e+00 9.5383724702939983e+00 0.0000000000000000e+00  2.0961206663501080e+00 9.6778947902390584e+00 0.0000000000000000e+00  2.1011534046694811e+00 9.7796267750836474e+00 0.0000000000000000e+00  2.0929227389118652e+00 9.9230517570844938e+00 0.0000000000000000e+00  2.0984760672756719e+00 1.0018250011159045e+01 0.0000000000000000e+00  2.0895833310522685e+00 1.0165170240060327e+01 0.0000000000000000e+00  2.0956466583352014e+00 1.0253912252242882e+01 0.0000000000000000e+00  2.0860820913831004e+00 1.0404153121196947e+01 0.0000000000000000e+00  2.0926666285036912e+00 1.0486326280862455e+01 0.0000000000000000e+00  2.0824067485862927e+00 1.0639817511892867e+01 0.0000000000000000e+00  2.0895276289172262e+00 1.0715272628308703e+01 0.0000000000000000e+00  2.0785672254539835e+00 1.0871789961718836e+01 0.0000000000000000e+00  2.0862144844957178e+00 1.0940571848317809e+01 0.0000000000000000e+00  2.0745936182606539e+00 1.1099537991725287e+01 0.0000000000000000e+00  2.0826213648122396e+00 1.1162724762525217e+01 0.0000000000000000e+00  2.0704443163123556e+00 1.1323071772666003e+01 0.0000000000000000e+00  2.0786947129172058e+00 1.1381771553945656e+01 0.0000000000000000e+00  2.0668354490892553e+00 1.1536756695015775e+01 0.0000000000000000e+00  2.0748059656808406e+00 1.1594630410335952e+01 0.0000000000000000e+00  2.0624907682316409e+00 1.1749849064136448e+01 0.0000000000000000e+00  2.0672724284669806e+00 1.1827650131641096e+01 0.0000000000000000e+00  2.0614899414579231e+00 1.1932443749497542e+01 0.0000000000000000e+00  2.0690977341252701e+00 1.1986995517216387e+01 0.0000000000000000e+00  2.0562122286398341e+00 1.2139622667535303e+01 0.0000000000000000e+00  2.0433762443177916e+00 1.2331844220218329e+01 0.0000000000000000e+00  2.0612543142216002e+00 1.2267505078758147e+01 0.0000000000000000e+00  2.0683515542966440e+00 1.2319172984066867e+01 0.0000000000000000e+00  2.0030207956510830e+00 1.2813791520337801e+01 0.0000000000000000e+00  2.0650425421410974e+00 1.2492896087191404e+01 0.0000000000000000e+00  2.0298414573773718e+00 1.2788512677923347e+01 0.0000000000000000e+00  2.0404637004952759e+00 1.2801012421699497e+01 0.0000000000000000e+00  2.0344775635219730e+00 1.2900493277038583e+01 0.0000000000000000e+00  2.0323843873046701e+00 1.2991177221836502e+01 0.0000000000000000e+00  2.0284726833819988e+00 1.3073212213815387e+01 0.0000000000000000e+00  2.0259393883516958e+00 1.3162366425978130e+01 0.0000000000000000e+00  2.0218256916118871e+00 1.3241498827475809e+01 0.0000000000000000e+00  2.0194078095751968e+00 1.3325532592265057e+01 0.0000000000000000e+00  2.0150032983835526e+00 1.3402208130330198e+01 0.0000000000000000e+00  2.0123618022833787e+00 1.3483095101032474e+01 0.0000000000000000e+00  2.0081756211075530e+00 1.3554196902042570e+01 0.0000000000000000e+00  2.0048641622938836e+00 1.3634466399340260e+01 0.0000000000000000e+00  2.0010001933905968e+00 1.3699391464200122e+01 0.0000000000000000e+00  1.9973414870484532e+00 1.3777070488897957e+01 0.0000000000000000e+00  1.9932409323265154e+00 1.3839027691209044e+01 0.0000000000000000e+00  1.9896604498877832e+00 1.3911671162113578e+01 0.0000000000000000e+00  1.9852803227810376e+00 1.3970912412343846e+01 0.0000000000000000e+00  1.9815162268615005e+00 1.4039961571380399e+01 0.0000000000000000e+00  1.9771283118351415e+00 1.4095056416979203e+01 0.0000000000000000e+00  1.9731412713767131e+00 1.4160740822714050e+01 0.0000000000000000e+00  1.9686050162605748e+00 1.4212516350994244e+01 0.0000000000000000e+00  1.9645283838682877e+00 1.4274199209314123e+01 0.0000000000000000e+00  1.9598603255749449e+00 1.4322650092061066e+01 0.0000000000000000e+00  1.9556202500952276e+00 1.4380854297604847e+01 0.0000000000000000e+00  1.9508585470077986e+00 1.4425814826339041e+01 0.0000000000000000e+00  1.9465087855797063e+00 1.4480564246326516e+01 0.0000000000000000e+00  1.9416192698616654e+00 1.4522098543454447e+01 0.0000000000000000e+00  1.9371802607128701e+00 1.4573820455628558e+01 0.0000000000000000e+00  1.9321795302941802e+00 1.4611502302786148e+01 0.0000000000000000e+00  1.9277046933087798e+00 1.4660828716496388e+01 0.0000000000000000e+00  1.9225640131469262e+00 1.4694081527730591e+01 0.0000000000000000e+00  1.9181397426741926e+00 1.4741955317544347e+01 0.0000000000000000e+00  1.9128616145668884e+00 1.4769641211129025e+01 0.0000000000000000e+00  1.9086611715366673e+00 1.4817088307263619e+01 0.0000000000000000e+00  1.9032429434712947e+00 1.4837821285720024e+01 0.0000000000000000e+00  1.8996738430828102e+00 1.4885072914242501e+01 0.0000000000000000e+00  1.8949628162865138e+00 1.4894370123865475e+01 0.0000000000000000e+00  1.8929570194201095e+00 1.4938978815610380e+01 0.0000000000000000e+00  1.8924416161250479e+00 1.4923891092513554e+01 0.0000000000000000e+00  1.9031586184597791e+00 1.4920003943042222e+01 0.0000000000000000e+00  1.9152700121126642e+00 1.4849681654895489e+01 0.0000000000000000e+00  1.9262395615298296e+00 1.4836013915740715e+01 0.0000000000000000e+00  1.9295121912577706e+00 1.4812729204558122e+01 0.0000000000000000e+00  1.9319739336990371e+00 1.4809469476196091e+01 0.0000000000000000e+00  1.9332766947555655e+00 1.4835420531100841e+01 0.0000000000000000e+00  1.9323635389499274e+00 1.4780854298865757e+01 0.0000000000000000e+00  1.9367135229032206e+00 1.4886837571289355e+01 0.0000000000000000e+00  1.9306603671951883e+00 1.4722301397756620e+01 0.0000000000000000e+00  1.9414719769026303e+00 1.4974185418014764e+01 0.0000000000000000e+00  1.9266486680827435e+00 1.4621929902332738e+01 0.0000000000000000e+00  1.9480954630570717e+00 1.5104193355987258e+01 0.0000000000000000e+00  1.9204123200596221e+00 1.4478018841829922e+01 0.0000000000000000e+00  1.9561757581041987e+00 1.5266872325866577e+01 0.0000000000000000e+00  1.9133421868739287e+00 1.4316575171279892e+01 0.0000000000000000e+00  1.9638486244996372e+00 1.5409013112866617e+01 0.0000000000000000e+00  1.9067244656517901e+00 1.4235510843638107e+01 0.0000000000000000e+00  1.9780786558966128e+00 1.5340331652628128e+01 0.0000000000000000e+00  1.8644463741225039e+00 1.4614973599501836e+01 0.0000000000000000e+00  2.1743892433073264e+00 1.3810487423432582e+01 0.0000000000000000e+00  3.1783602867401135e+00 -1.9623719267698685e+00 0.0000000000000000e+00  2.9540297161655067e+00 1.9144632232204590e+00 0.0000000000000000e+00  3.0815161153612092e+00 -5.5353695402689540e-01 0.0000000000000000e+00  3.0564758955811748e+00 -7.8214511751909410e-02 0.0000000000000000e+00  3.0300884010383036e+00 4.5735505342366278e-01 0.0000000000000000e+00  3.0821670607606286e+00 -5.4813478170871932e-01 0.0000000000000000e+00  3.0268098839612070e+00 5.3543759203807106e-01 0.0000000000000000e+00  3.0754135545113743e+00 -4.1054952233059505e-01 0.0000000000000000e+00  3.0392151810265906e+00 3.0143398970796492e-01 0.0000000000000000e+00  3.0628917345523861e+00 -1.7010767960733011e-01 0.0000000000000000e+00  3.0501568336992571e+00 9.2237109922458996e-02 0.0000000000000000e+00  3.0548904449023224e+00 -1.6742842214675820e-02 0.0000000000000000e+00  3.0554295761998196e+00 -8.3491705886719128e-03 0.0000000000000000e+00  3.0520906092698268e+00 3.7291415567980574e-02 0.0000000000000000e+00  3.0565513757955336e+00 -2.9665458115636950e-02 0.0000000000000000e+00  3.0521380744857924e+00 3.6577139932958573e-02 0.0000000000000000e+00  3.0559565307107017e+00 -1.8431045834202887e-02 0.0000000000000000e+00  3.0529785801267648e+00 2.0483081532919722e-02 0.0000000000000000e+00  3.0551675431037806e+00 -3.6202598315864536e-03 0.0000000000000000e+00  3.0536408523851915e+00 7.6880670184541616e-03 0.0000000000000000e+00  3.0547080243780842e+00 4.7912044332443539e-03 0.0000000000000000e+00  3.0539324376992112e+00 1.8868566611420002e-03 0.0000000000000000e+00  3.0545648726443670e+00 7.0692675327797758e-03 0.0000000000000000e+00  3.0539769371053507e+00 7.3892272424734497e-04 0.0000000000000000e+00  3.0545796667273772e+00 6.2680531321847527e-03 0.0000000000000000e+00  3.0539281794125213e+00 1.3207008396474787e-03 0.0000000000000000e+00  3.0546297922700356e+00 4.7469339582542425e-03 0.0000000000000000e+00  3.0538743519754203e+00 1.9580138769833043e-03 0.0000000000000000e+00  3.0546627869241716e+00 3.5229407616743239e-03 0.0000000000000000e+00  3.0538426817968523e+00 2.1440273480255070e-03 0.0000000000000000e+00  3.0546719670217124e+00 2.7373826436307824e-03 0.0000000000000000e+00  3.0538301615760166e+00 1.9483720474517828e-03 0.0000000000000000e+00  3.0546671718850242e+00 2.2127633505318730e-03 0.0000000000000000e+00  3.0538268982743495e+00 1.5706489156213565e-03 0.0000000000000000e+00  3.0546583855445357e+00 1.7668489243369324e-03 0.0000000000000000e+00  3.0538260462447626e+00 1.1515615977959962e-03 0.0000000000000000e+00  3.0546509234715202e+00 1.3045818806080053e-03 0.0000000000000000e+00  3.0538250875435691e+00 7.4822054782613717e-04 0.0000000000000000e+00  3.0546462682707491e+00 8.0248273092380811e-04 0.0000000000000000e+00  3.0538240328009545e+00 3.6776938690083737e-04 0.0000000000000000e+00  3.0546441711630998e+00 2.7086778288290081e-04 0.0000000000000000e+00  3.0538235710713697e+00 0.0000000000000000e+00 0.0000000000000000e+00  </DataArray> 
</PointData> 
</Piece>
</UnstructuredGrid>
</VTKFile>