<?xml version="1.0"?>
<VTKFile type="UnstructuredGrid"  version="0.1"  >
<UnstructuredGrid>
<Piece  NumberOfPoints="201" NumberOfCells="200">
<Points>
<DataArray  type="Float64"  NumberOfComponents="3"  format="ascii">-5 0 0  -4.95 0 0  -4.9 0 0  -4.85 0 0  -4.8 0 0  -4.75 0 0  -4.7 0 0  -4.65 0 0  -4.6 0 0  -4.55 0 0  -4.5 0 0  -4.45 0 0  -4.4 0 0  -4.35 0 0  -4.3 0 0  -4.25 0 0  -4.2 0 0  -4.15 0 0  -4.1 0 0  -4.05 0 0  -4 0 0  -3.95 0 0  -3.9 0 0  -3.85 0 0  -3.8 0 0  -3.75 0 0  -3.7 0 0  -3.65 0 0  -3.6 0 0  -3.55 0 0  -3.5 0 0  -3.45 0 0  -3.4 0 0  -3.35 0 0  -3.3 0 0  -3.25 0 0  -3.2 0 0  -3.15 0 0  -3.1 0 0  -3.05 0 0  -3 0 0  -2.95 0 0  -2.9 0 0  -2.85 0 0  -2.8 0 0  -2.75 0 0  -2.7 0 0  -2.65 0 0  -2.6 0 0  -2.55 0 0  -2.5 0 0  -2.45 0 0  -2.4 0 0  -2.35 0 0  -2.3 0 0  -2.25 0 0  -2.2 0 0  -2.15 0 0  -2.1 0 0  -2.05 0 0  -2 0 0  -1.95 0 0  -1.9 0 0  -1.85 0 0  -1.8 0 0  -1.75 0 0  -1.7 0 0  -1.65 0 0  -1.6 0 0  -1.55 0 0  -1.5 0 0  -1.45 0 0  -1.4 0 0  -1.35 0 0  -1.3 0 0  -1.25 0 0  -1.2 0 0  -1.15 0 0  -1.1 0 0  -1.05 0 0  -1 0 0  -0.9500000000000002 0 0  -0.9000000000000004 0 0  -0.8499999999999996 0 0  -0.7999999999999998 0 0  -0.75 0 0  -0.7000000000000002 0 0  -0.6500000000000004 0 0  -0.5999999999999996 0 0  -0.5499999999999998 0 0  -0.5 0 0  -0.4500000000000002 0 0  -0.4000000000000004 0 0  -0.3499999999999996 0 0  -0.2999999999999998 0 0  -0.25 0 0  -0.2000000000000002 0 0  -0.1500000000000004 0 0  -0.09999999999999964 0 0  -0.04999999999999982 0 0  0 0 0  0.04999999999999982 0 0  0.09999999999999964 0 0  0.1500000000000004 0 0  0.2000000000000002 0 0  0.25 0 0  0.2999999999999998 0 0  0.3499999999999996 0 0  0.4000000000000004 0 0  0.4500000000000002 0 0  0.5 0 0  0.5499999999999998 0 0  0.5999999999999996 0 0  0.6500000000000004 0 0  0.7000000000000002 0 0  0.75 0 0  0.7999999999999998 0 0  0.8499999999999996 0 0  0.9000000000000004 0 0  0.9500000000000002 0 0  1 0 0  1.05 0 0  1.1 0 0  1.15 0 0  1.2 0 0  1.25 0 0  1.3 0 0  1.35 0 0  1.4 0 0  1.45 0 0  1.5 0 0  1.55 0 0  1.6 0 0  1.65 0 0  1.7 0 0  1.75 0 0  1.8 0 0  1.85 0 0  1.9 0 0  1.95 0 0  2 0 0  2.05 0 0  2.1 0 0  2.15 0 0  2.2 0 0  2.25 0 0  2.3 0 0  2.35 0 0  2.4 0 0  2.45 0 0  2.5 0 0  2.55 0 0  2.6 0 0  2.65 0 0  2.7 0 0  2.75 0 0  2.8 0 0  2.85 0 0  2.9 0 0  2.95 0 0  3 0 0  3.050000000000001 0 0  3.1 0 0  3.15 0 0  3.199999999999999 0 0  3.25 0 0  3.300000000000001 0 0  3.35 0 0  3.4 0 0  3.449999999999999 0 0  3.5 0 0  3.550000000000001 0 0  3.6 0 0  3.65 0 0  3.699999999999999 0 0  3.75 0 0  3.800000000000001 0 0  3.85 0 0  3.9 0 0  3.949999999999999 0 0  4 0 0  4.050000000000001 0 0  4.1 0 0  4.15 0 0  4.199999999999999 0 0  4.25 0 0  4.300000000000001 0 0  4.35 0 0  4.4 0 0  4.449999999999999 0 0  4.5 0 0  4.550000000000001 0 0  4.6 0 0  4.65 0 0  4.699999999999999 0 0  4.75 0 0  4.800000000000001 0 0  4.85 0 0  4.9 0 0  4.949999999999999 0 0  5 0 0  </DataArray>
</Points>
<Cells>
<DataArray  type="UInt32"  Name="connectivity"  format="ascii">0 1  1 2  2 3  3 4  4 5  5 6  6 7  7 8  8 9  9 10  10 11  11 12  12 13  13 14  14 15  15 16  16 17  17 18  18 19  19 20  20 21  21 22  22 23  23 24  24 25  25 26  26 27  27 28  28 29  29 30  30 31  31 32  32 33  33 34  34 35  35 36  36 37  37 38  38 39  39 40  40 41  41 42  42 43  43 44  44 45  45 46  46 47  47 48  48 49  49 50  50 51  51 52  52 53  53 54  54 55  55 56  56 57  57 58  58 59  59 60  60 61  61 62  62 63  63 64  64 65  65 66  66 67  67 68  68 69  69 70  70 71  71 72  72 73  73 74  74 75  75 76  76 77  77 78  78 79  79 80  80 81  81 82  82 83  83 84  84 85  85 86  86 87  87 88  88 89  89 90  90 91  91 92  92 93  93 94  94 95  95 96  96 97  97 98  98 99  99 100  100 101  101 102  102 103  103 104  104 105  105 106  106 107  107 108  108 109  109 110  110 111  111 112  112 113  113 114  114 115  115 116  116 117  117 118  118 119  119 120  120 121  121 122  122 123  123 124  124 125  125 126  126 127  127 128  128 129  129 130  130 131  131 132  132 133  133 134  134 135  135 136  136 137  137 138  138 139  139 140  140 141  141 142  142 143  143 144  144 145  145 146  146 147  147 148  148 149  149 150  150 151  151 152  152 153  153 154  154 155  155 156  156 157  157 158  158 159  159 160  160 161  161 162  162 163  163 164  164 165  165 166  166 167  167 168  168 169  169 170  170 171  171 172  172 173  173 174  174 175  175 176  176 177  177 178  178 179  179 180  180 181  181 182  182 183  183 184  184 185  185 186  186 187  187 188  188 189  189 190  190 191  191 192  192 193  193 194  194 195  195 196  196 197  197 198  198 199  199 200  </DataArray>
<DataArray  type="UInt32"  Name="offsets"  format="ascii">2 4 6 8 10 12 14 16 18 20 22 24 26 28 30 32 34 36 38 40 42 44 46 48 50 52 54 56 58 60 62 64 66 68 70 72 74 76 78 80 82 84 86 88 90 92 94 96 98 100 102 104 106 108 110 112 114 116 118 120 122 124 126 128 130 132 134 136 138 140 142 144 146 148 150 152 154 156 158 160 162 164 166 168 170 172 174 176 178 180 182 184 186 188 190 192 194 196 198 200 202 204 206 208 210 212 214 216 218 220 222 224 226 228 230 232 234 236 238 240 242 244 246 248 250 252 254 256 258 260 262 264 266 268 270 272 274 276 278 280 282 284 286 288 290 292 294 296 298 300 302 304 306 308 310 312 314 316 318 320 322 324 326 328 330 332 334 336 338 340 342 344 346 348 350 352 354 356 358 360 362 364 366 368 370 372 374 376 378 380 382 384 386 388 390 392 394 396 398 400 </DataArray>
<DataArray  type="UInt8"  Name="types"  format="ascii">3 3 3 3 3 3 3 3 3 3 3 3 3 3 3 3 3 3 3 3 3 3 3 3 3 3 3 3 3 3 3 3 3 3 3 3 3 3 3 3 3 3 3 3 3 3 3 3 3 3 3 3 3 3 3 3 3 3 3 3 3 3 3 3 3 3 3 3 3 3 3 3 3 3 3 3 3 3 3 3 3 3 3 3 3 3 3 3 3 3 3 3 3 3 3 3 3 3 3 3 3 3 3 3 3 3 3 3 3 3 3 3 3 3 3 3 3 3 3 3 3 3 3 3 3 3 3 3 3 3 3 3 3 3 3 3 3 3 3 3 3 3 3 3 3 3 3 3 3 3 3 3 3 3 3 3 3 3 3 3 3 3 3 3 3 3 3 3 3 3 3 3 3 3 3 3 3 3 3 3 3 3 3 3 3 3 3 3 3 3 3 3 3 3 3 3 3 3 3 3 </DataArray>
</Cells>
<PointData  Vectors="(s, w)"> 
<DataArray  type="Float64"  Name="(s, w)"  NumberOfComponents="3" format="ascii">3.1622776601683795e+00 0.0000000000000000e+00 0.0000000000000000e+00  3.1622776601683800e+00 -5.6580960672122911e-15 0.0000000000000000e+00  3.1622776601683800e+00 4.5125820595714695e-15 0.0000000000000000e+00  3.1622776601683800e+00 6.9083061004200617e-15 0.0000000000000000e+00  3.1622776601683804e+00 -9.9281659384920108e-15 0.0000000000000000e+00  3.1622776601683800e+00 3.7313458625601358e-17 0.0000000000000000e+00  3.1622776601683800e+00 2.9117796108370870e-15 0.0000000000000000e+00  3.1622776601683795e+00 -2.6786895045284673e-15 0.0000000000000000e+00  3.1622776601683795e+00 -4.6035650214582931e-15 0.0000000000000000e+00  3.1622776601683804e+00 4.5990713590621065e-15 0.0000000000000000e+00  3.1622776601683804e+00 6.1843255568112886e-15 0.0000000000000000e+00  3.1622776601683800e+00 -5.8185150439004210e-16 0.0000000000000000e+00  3.1622776601683800e+00 4.4802762271435364e-15 0.0000000000000000e+00  3.1622776601683795e+00 -8.7739020161229148e-16 0.0000000000000000e+00  3.1622776601683800e+00 -4.2955504724458830e-15 0.0000000000000000e+00  3.1622776601683800e+00 -6.3999650020798971e-15 0.0000000000000000e+00  3.1622776601683804e+00 -2.4887862755159764e-15 0.0000000000000000e+00  3.1622776601683795e+00 1.9677614006840394e-15 0.0000000000000000e+00  3.1622776601683800e+00 -1.2508754698727823e-15 0.0000000000000000e+00  3.1622776601683804e+00 -1.2625419021800578e-15 0.0000000000000000e+00  3.1622776601683804e+00 4.1740585482654851e-15 0.0000000000000000e+00  3.1622776601683804e+00 5.7975746989472336e-15 0.0000000000000000e+00  3.1622776601683795e+00 -1.1410549812501327e-14 0.0000000000000000e+00  3.1622776601683809e+00 1.6938954138991199e-14 0.0000000000000000e+00  3.1622776601683791e+00 -1.2943189343861712e-14 0.0000000000000000e+00  3.1622776601683813e+00 2.3432290126043409e-14 0.0000000000000000e+00  3.1622776601683777e+00 -4.6820104952929613e-14 0.0000000000000000e+00  3.1622776601683840e+00 9.0875233858748522e-14 0.0000000000000000e+00  3.1622776601683729e+00 -1.5060026239852253e-13 0.0000000000000000e+00  3.1622776601683920e+00 2.5317198185578712e-13 0.0000000000000000e+00  3.1622776601683591e+00 -4.2236475927994809e-13 0.0000000000000000e+00  3.1622776601684146e+00 6.9790769975968584e-13 0.0000000000000000e+00  3.1622776601683213e+00 -1.1523971186296486e-12 0.0000000000000000e+00  3.1622776601684772e+00 1.9135574395998314e-12 0.0000000000000000e+00  3.1622776601682174e+00 -3.2000373764653285e-12 0.0000000000000000e+00  3.1622776601686509e+00 5.3484574294635782e-12 0.0000000000000000e+00  3.1622776601679292e+00 -8.9419018988140439e-12 0.0000000000000000e+00  3.1622776601691331e+00 1.4916613774795014e-11 0.0000000000000000e+00  3.1622776601671241e+00 -2.4874781432008560e-11 0.0000000000000000e+00  3.1622776601704734e+00 4.1472971850320340e-11 0.0000000000000000e+00  3.1622776601648921e+00 -6.9090489225378601e-11 0.0000000000000000e+00  3.1622776601741869e+00 1.1501005115190692e-10 0.0000000000000000e+00  3.1622776601587188e+00 -1.9134380504794647e-10 0.0000000000000000e+00  3.1622776601844436e+00 3.1815095023934551e-10 0.0000000000000000e+00  3.1622776601416880e+00 -5.2864464757593934e-10 0.0000000000000000e+00  3.1622776602127027e+00 8.7783582131495933e-10 0.0000000000000000e+00  3.1622776600948312e+00 -1.4566928839277040e-09 0.0000000000000000e+00  3.1622776602903397e+00 2.4155170992457766e-09 0.0000000000000000e+00  3.1622776599662941e+00 -4.0024610454621605e-09 0.0000000000000000e+00  3.1622776605029741e+00 6.6268895847118435e-09 0.0000000000000000e+00  3.1622776596148374e+00 -1.0963300542137849e-08 0.0000000000000000e+00  3.1622776610833752e+00 1.8122118030332713e-08 0.0000000000000000e+00  3.1622776586572314e+00 -2.9929353941161932e-08 0.0000000000000000e+00  3.1622776626618219e+00 4.9384364644190775e-08 0.0000000000000000e+00  3.1622776560580381e+00 -8.1408206775804904e-08 0.0000000000000000e+00  3.1622776669373778e+00 1.3406476558932886e-07 0.0000000000000000e+00  3.1622776490326543e+00 -2.2055091452910623e-07 0.0000000000000000e+00  3.1622776784678721e+00 3.6243437103315438e-07 0.0000000000000000e+00  3.1622776301309443e+00 -5.9491264197554237e-07 0.0000000000000000e+00  3.1622777094137327e+00 9.7533900775608844e-07 0.0000000000000000e+00  3.1622775795341163e+00 -1.5970185722505457e-06 0.0000000000000000e+00  3.1622777920235783e+00 2.6114852867929784e-06 0.0000000000000000e+00  3.1622774448569428e+00 -4.2643951828244890e-06 0.0000000000000000e+00  3.1622780112398687e+00 6.9532184490477440e-06 0.0000000000000000e+00  3.1622770886290592e+00 -1.1319740701609563e-05 0.0000000000000000e+00  3.1622785890900675e+00 1.8397947889310771e-05 0.0000000000000000e+00  3.1622761530369501e+00 -2.9849808105141992e-05 0.0000000000000000e+00  3.1622801008714627e+00 4.8339833300840927e-05 0.0000000000000000e+00  3.1622737154282681e+00 -7.8128402985886612e-05 0.0000000000000000e+00  3.1622840223295570e+00 1.2600699391702007e-04 0.0000000000000000e+00  3.1622674222861198e+00 -2.0276875090446660e-04 0.0000000000000000e+00  3.1622940950226495e+00 3.2550322151400971e-04 0.0000000000000000e+00  3.1622513458088743e+00 -5.2117619943322583e-04 0.0000000000000000e+00  3.1623196753915850e+00 8.3213678148554048e-04 0.0000000000000000e+00  3.1622107785393441e+00 -1.3246489878842198e-03 0.0000000000000000e+00  3.1623837783602480e+00 2.1017178884076191e-03 0.0000000000000000e+00  3.1621098867409407e+00 -3.3229406385043309e-03 0.0000000000000000e+00  3.1625418891633799e+00 5.2330701481059652e-03 0.0000000000000000e+00  3.1618632989571522e+00 -8.2071374425943620e-03 0.0000000000000000e+00  3.1629244572511350e+00 1.2809250180910899e-02 0.0000000000000000e+00  3.1612733213768274e+00 -1.9894097173989995e-02 0.0000000000000000e+00  3.1638284226377684e+00 3.0708102592645132e-02 0.0000000000000000e+00  3.1598989329934324e+00 -4.7126069627833972e-02 0.0000000000000000e+00  3.1659010170591406e+00 7.1731440363561230e-02 0.0000000000000000e+00  3.1568057122483100e+00 -1.0844779050449969e-01 0.0000000000000000e+00  3.1704685564941162e+00 1.6206536360261431e-01 0.0000000000000000e+00  3.1501596830755916e+00 -2.4035601354787745e-01 0.0000000000000000e+00  3.1799995324481278e+00 3.5024205100842692e-01 0.0000000000000000e+00  3.1367939316098710e+00 -5.0626922282070486e-01 0.0000000000000000e+00  3.1983436944392212e+00 7.1118759114106334e-01 0.0000000000000000e+00  3.1125418031002634e+00 -9.9093957216929085e-01 0.0000000000000000e+00  3.2292113317931141e+00 1.3148939812854792e+00 0.0000000000000000e+00  3.0760002058868849e+00 -1.7252757079754339e+00 0.0000000000000000e+00  3.2681798680596312e+00 2.0800204723306281e+00 0.0000000000000000e+00  3.0406356042381497e+00 -2.3719762487205238e+00 0.0000000000000000e+00  3.2711409135637166e+00 2.5223394324268837e+00 0.0000000000000000e+00  3.0253678413928706e+00 -7.3943048082756802e-01 0.0000000000000000e+00  2.9702000689018933e+00 3.7461016639834117e+00 0.0000000000000000e+00  2.8107190568084124e+00 1.1086526299407852e+01 0.0000000000000000e+00  2.0853949601608961e+00 6.6362899983054380e+00 0.0000000000000000e+00  2.1208104388266786e+00 1.7697801138404479e+01 0.0000000000000000e+00  2.4408377941032771e+00 2.1253958506959822e+01 0.0000000000000000e+00  1.2931729849964386e+00 2.1641641823932516e+00 0.0000000000000000e+00  9.5673671394370541e-01 -5.1068321246093729e-01 0.0000000000000000e+00  9.9838103830091918e-01 1.6867350422294691e-01 0.0000000000000000e+00  1.0066520886518640e+00 -7.1348064748080239e-02 0.0000000000000000e+00  9.9521158761886619e-01 3.5523723387648996e-02 0.0000000000000000e+00  1.0027556816571745e+00 -1.8215380262212245e-02 0.0000000000000000e+00  9.9854878708533223e-01 9.2615521635461100e-03 0.0000000000000000e+00  1.0007283434202880e+00 -4.5894112036045740e-03 0.0000000000000000e+00  9.9964602431319083e-01 2.2219806965700271e-03 0.0000000000000000e+00  1.0001679828348118e+00 -1.0528390320057089e-03 0.0000000000000000e+00  9.9992177641099111e-01 4.9006089404241156e-04 0.0000000000000000e+00  1.0000358642181597e+00 -2.2464042390768569e-04 0.0000000000000000e+00  9.9998377062108212e-01 1.0165013282250613e-04 0.0000000000000000e+00  1.0000072624681338e+00 -4.5486113521338954e-05 0.0000000000000000e+00  9.9999678145282334e-01 2.0158225135259430e-05 0.0000000000000000e+00  1.0000014143507863e+00 -8.8582505723668756e-06 0.0000000000000000e+00  9.9999938310679815e-01 3.8636751021107433e-06 0.0000000000000000e+00  1.0000002672883583e+00 -1.6740577302450411e-06 0.0000000000000000e+00  9.9999988487446378e-01 7.2104444973292749e-07 0.0000000000000000e+00  1.0000000493223253e+00 -3.0891136075471053e-07 0.0000000000000000e+00  9.9999997897106141e-01 1.3170664516993084e-07 0.0000000000000000e+00  1.0000000089265682e+00 -5.5908115120380773e-08 0.0000000000000000e+00  9.9999999622591729e-01 2.3637512755547294e-08 0.0000000000000000e+00  1.0000000015898045e+00 -9.9571254404716690e-09 0.0000000000000000e+00  9.9999999933256456e-01 4.1802244460318943e-09 0.0000000000000000e+00  1.0000000002793328e+00 -1.7494921157712220e-09 0.0000000000000000e+00  9.9999999988343169e-01 7.3008152732997040e-10 0.0000000000000000e+00  1.0000000000485152e+00 -3.0385595720304294e-10 0.0000000000000000e+00  9.9999999997985856e-01 1.2614943318513504e-10 0.0000000000000000e+00  1.0000000000083424e+00 -5.2250165476066119e-11 0.0000000000000000e+00  9.9999999999655209e-01 2.1594247977589105e-11 0.0000000000000000e+00  1.0000000000014222e+00 -8.9075876556117192e-12 0.0000000000000000e+00  9.9999999999941469e-01 3.6673989764655020e-12 0.0000000000000000e+00  1.0000000000002405e+00 -1.5060779841498782e-12 0.0000000000000000e+00  9.9999999999990141e-01 6.1745319497811349e-13 0.0000000000000000e+00  1.0000000000000406e+00 -2.5367074589898170e-13 0.0000000000000000e+00  9.9999999999998368e-01 1.0281420561939337e-13 0.0000000000000000e+00  1.0000000000000071e+00 -4.1343124239063208e-14 0.0000000000000000e+00  9.9999999999999734e-01 1.8143362523453005e-14 0.0000000000000000e+00  1.0000000000000011e+00 -7.0919465989611438e-15 0.0000000000000000e+00  9.9999999999999956e-01 2.1304336424236264e-15 0.0000000000000000e+00  1.0000000000000002e+00 -2.0411394506534805e-15 0.0000000000000000e+00  1.0000000000000002e+00 1.3326980888732549e-15 0.0000000000000000e+00  1.0000000000000000e+00 4.9972114077218543e-16 0.0000000000000000e+00  1.0000000000000000e+00 5.8873756193311023e-17 0.0000000000000000e+00  1.0000000000000000e+00 -6.7319986147494221e-16 0.0000000000000000e+00  1.0000000000000002e+00 -9.3023502088576814e-16 0.0000000000000000e+00  1.0000000000000002e+00 9.3594300407054893e-16 0.0000000000000000e+00  1.0000000000000000e+00 6.5085838790941968e-16 0.0000000000000000e+00  1.0000000000000000e+00 6.6834482673375668e-19 0.0000000000000000e+00  1.0000000000000000e+00 -6.5255954537149411e-16 0.0000000000000000e+00  1.0000000000000002e+00 -9.3302662854089557e-16 0.0000000000000000e+00  1.0000000000000002e+00 9.2495825063123394e-16 0.0000000000000000e+00  1.0000000000000000e+00 6.8198496546382811e-16 0.0000000000000000e+00  1.0000000000000000e+00 -6.9897091504718791e-17 0.0000000000000000e+00  1.0000000000000000e+00 -5.0081527092940681e-16 0.0000000000000000e+00  1.0000000000000002e+00 -1.2606307863129998e-15 0.0000000000000000e+00  1.0000000000000002e+00 1.8605851728272966e-15 0.0000000000000000e+00  1.0000000000000000e+00 -1.3872049836912958e-15 0.0000000000000000e+00  1.0000000000000004e+00 2.7466881021354869e-16 0.0000000000000000e+00  1.0000000000000000e+00 1.2503753002451608e-16 0.0000000000000000e+00  1.0000000000000004e+00 -7.8842048346659956e-16 0.0000000000000000e+00  1.0000000000000000e+00 1.5224375785706751e-15 0.0000000000000000e+00  1.0000000000000002e+00 -1.7072054130442557e-15 0.0000000000000000e+00  1.0000000000000002e+00 1.8908661544516366e-15 0.0000000000000000e+00  1.0000000000000000e+00 -1.3165444328143178e-15 0.0000000000000000e+00  1.0000000000000004e+00 -3.0940088270125710e-16 0.0000000000000000e+00  1.0000000000000000e+00 1.3866548240103163e-15 0.0000000000000000e+00  1.0000000000000002e+00 -1.6154942136893953e-15 0.0000000000000000e+00  1.0000000000000002e+00 1.7862708069776195e-15 0.0000000000000000e+00  1.0000000000000002e+00 -1.2982627044465376e-15 0.0000000000000000e+00  1.0000000000000004e+00 -2.5282947289217722e-16 0.0000000000000000e+00  1.0000000000000000e+00 1.3797761523391986e-15 0.0000000000000000e+00  1.0000000000000002e+00 -1.6150477993386451e-15 0.0000000000000000e+00  1.0000000000000002e+00 1.7864561167071015e-15 0.0000000000000000e+00  1.0000000000000002e+00 -1.2984043731692871e-15 0.0000000000000000e+00  1.0000000000000004e+00 -2.5275670605547227e-16 0.0000000000000000e+00  1.0000000000000000e+00 1.3797421306370318e-15 0.0000000000000000e+00  1.0000000000000002e+00 -1.6150324019921685e-15 0.0000000000000000e+00  1.0000000000000002e+00 1.7864491623901778e-15 0.0000000000000000e+00  1.0000000000000002e+00 -1.2984010021511972e-15 0.0000000000000000e+00  1.0000000000000004e+00 -2.5275895248308315e-16 0.0000000000000000e+00  1.0000000000000000e+00 1.3797449669251639e-15 0.0000000000000000e+00  1.0000000000000002e+00 -1.6150380516953698e-15 0.0000000000000000e+00  1.0000000000000002e+00 1.7864620526071978e-15 0.0000000000000000e+00  1.0000000000000002e+00 -1.2984311399998616e-15 0.0000000000000000e+00  1.0000000000000004e+00 -2.5268843658153665e-16 0.0000000000000000e+00  1.0000000000000000e+00 1.3795806429923231e-15 0.0000000000000000e+00  1.0000000000000002e+00 -1.6146571960292381e-15 0.0000000000000000e+00  1.0000000000000002e+00 1.7855849166219410e-15 0.0000000000000000e+00  1.0000000000000002e+00 -1.2964263094762683e-15 0.0000000000000000e+00  1.0000000000000004e+00 -2.5722494488905506e-16 0.0000000000000000e+00  1.0000000000000000e+00 1.3896793261770046e-15 0.0000000000000000e+00  1.0000000000000002e+00 -1.6363523245291891e-15 0.0000000000000000e+00  1.0000000000000002e+00 1.8275422581543334e-15 0.0000000000000000e+00  1.0000000000000000e+00 -1.3457145084446378e-15 0.0000000000000000e+00  1.0000000000000004e+00 -1.4065692372088545e-17 0.0000000000000000e+00  1.0000000000000000e+00 7.9321165909949913e-16 0.0000000000000000e+00  1.0000000000000002e+00 0.0000000000000000e+00 0.0000000000000000e+00  </DataArray> 
</PointData> 
</Piece>
</UnstructuredGrid>
</VTKFile>