<?xml version="1.0"?>
<VTKFile type="UnstructuredGrid"  version="0.1"  >
<UnstructuredGrid>
<Piece  NumberOfPoints="201" NumberOfCells="200">
<Points>
<DataArray  type="Float64"  NumberOfComponents="3"  format="ascii">-5 0 0  -4.95 0 0  -4.9 0 0  -4.85 0 0  -4.8 0 0  -4.75 0 0  -4.7 0 0  -4.65 0 0  -4.6 0 0  -4.55 0 0  -4.5 0 0  -4.45 0 0  -4.4 0 0  -4.35 0 0  -4.3 0 0  -4.25 0 0  -4.2 0 0  -4.15 0 0  -4.1 0 0  -4.05 0 0  -4 0 0  -3.95 0 0  -3.9 0 0  -3.85 0 0  -3.8 0 0  -3.75 0 0  -3.7 0 0  -3.65 0 0  -3.6 0 0  -3.55 0 0  -3.5 0 0  -3.45 0 0  -3.4 0 0  -3.35 0 0  -3.3 0 0  -3.25 0 0  -3.2 0 0  -3.15 0 0  -3.1 0 0  -3.05 0 0  -3 0 0  -2.95 0 0  -2.9 0 0  -2.85 0 0  -2.8 0 0  -2.75 0 0  -2.7 0 0  -2.65 0 0  -2.6 0 0  -2.55 0 0  -2.5 0 0  -2.45 0 0  -2.4 0 0  -2.35 0 0  -2.3 0 0  -2.25 0 0  -2.2 0 0  -2.15 0 0  -2.1 0 0  -2.05 0 0  -2 0 0  -1.95 0 0  -1.9 0 0  -1.85 0 0  -1.8 0 0  -1.75 0 0  -1.7 0 0  -1.65 0 0  -1.6 0 0  -1.55 0 0  -1.5 0 0  -1.45 0 0  -1.4 0 0  -1.35 0 0  -1.3 0 0  -1.25 0 0  -1.2 0 0  -1.15 0 0  -1.1 0 0  -1.05 0 0  -1 0 0  -0.9500000000000002 0 0  -0.9000000000000004 0 0  -0.8499999999999996 0 0  -0.7999999999999998 0 0  -0.75 0 0  -0.7000000000000002 0 0  -0.6500000000000004 0 0  -0.5999999999999996 0 0  -0.5499999999999998 0 0  -0.5 0 0  -0.4500000000000002 0 0  -0.4000000000000004 0 0  -0.3499999999999996 0 0  -0.2999999999999998 0 0  -0.25 0 0  -0.2000000000000002 0 0  -0.1500000000000004 0 0  -0.09999999999999964 0 0  -0.04999999999999982 0 0  0 0 0  0.04999999999999982 0 0  0.09999999999999964 0 0  0.1500000000000004 0 0  0.2000000000000002 0 0  0.25 0 0  0.2999999999999998 0 0  0.3499999999999996 0 0  0.4000000000000004 0 0  0.4500000000000002 0 0  0.5 0 0  0.5499999999999998 0 0  0.5999999999999996 0 0  0.6500000000000004 0 0  0.7000000000000002 0 0  0.75 0 0  0.7999999999999998 0 0  0.8499999999999996 0 0  0.9000000000000004 0 0  0.9500000000000002 0 0  1 0 0  1.05 0 0  1.1 0 0  1.15 0 0  1.2 0 0  1.25 0 0  1.3 0 0  1.35 0 0  1.4 0 0  1.45 0 0  1.5 0 0  1.55 0 0  1.6 0 0  1.65 0 0  1.7 0 0  1.75 0 0  1.8 0 0  1.85 0 0  1.9 0 0  1.95 0 0  2 0 0  2.05 0 0  2.1 0 0  2.15 0 0  2.2 0 0  2.25 0 0  2.3 0 0  2.35 0 0  2.4 0 0  2.45 0 0  2.5 0 0  2.55 0 0  2.6 0 0  2.65 0 0  2.7 0 0  2.75 0 0  2.8 0 0  2.85 0 0  2.9 0 0  2.95 0 0  3 0 0  3.050000000000001 0 0  3.1 0 0  3.15 0 0  3.199999999999999 0 0  3.25 0 0  3.300000000000001 0 0  3.35 0 0  3.4 0 0  3.449999999999999 0 0  3.5 0 0  3.550000000000001 0 0  3.6 0 0  3.65 0 0  3.699999999999999 0 0  3.75 0 0  3.800000000000001 0 0  3.85 0 0  3.9 0 0  3.949999999999999 0 0  4 0 0  4.050000000000001 0 0  4.1 0 0  4.15 0 0  4.199999999999999 0 0  4.25 0 0  4.300000000000001 0 0  4.35 0 0  4.4 0 0  4.449999999999999 0 0  4.5 0 0  4.550000000000001 0 0  4.6 0 0  4.65 0 0  4.699999999999999 0 0  4.75 0 0  4.800000000000001 0 0  4.85 0 0  4.9 0 0  4.949999999999999 0 0  5 0 0  </DataArray>
</Points>
<Cells>
<DataArray  type="UInt32"  Name="connectivity"  format="ascii">0 1  1 2  2 3  3 4  4 5  5 6  6 7  7 8  8 9  9 10  10 11  11 12  12 13  13 14  14 15  15 16  16 17  17 18  18 19  19 20  20 21  21 22  22 23  23 24  24 25  25 26  26 27  27 28  28 29  29 30  30 31  31 32  32 33  33 34  34 35  35 36  36 37  37 38  38 39  39 40  40 41  41 42  42 43  43 44  44 45  45 46  46 47  47 48  48 49  49 50  50 51  51 52  52 53  53 54  54 55  55 56  56 57  57 58  58 59  59 60  60 61  61 62  62 63  63 64  64 65  65 66  66 67  67 68  68 69  69 70  70 71  71 72  72 73  73 74  74 75  75 76  76 77  77 78  78 79  79 80  80 81  81 82  82 83  83 84  84 85  85 86  86 87  87 88  88 89  89 90  90 91  91 92  92 93  93 94  94 95  95 96  96 97  97 98  98 99  99 100  100 101  101 102  102 103  103 104  104 105  105 106  106 107  107 108  108 109  109 110  110 111  111 112  112 113  113 114  114 115  115 116  116 117  117 118  118 119  119 120  120 121  121 122  122 123  123 124  124 125  125 126  126 127  127 128  128 129  129 130  130 131  131 132  132 133  133 134  134 135  135 136  136 137  137 138  138 139  139 140  140 141  141 142  142 143  143 144  144 145  145 146  146 147  147 148  148 149  149 150  150 151  151 152  152 153  153 154  154 155  155 156  156 157  157 158  158 159  159 160  160 161  161 162  162 163  163 164  164 165  165 166  166 167  167 168  168 169  169 170  170 171  171 172  172 173  173 174  174 175  175 176  176 177  177 178  178 179  179 180  180 181  181 182  182 183  183 184  184 185  185 186  186 187  187 188  188 189  189 190  190 191  191 192  192 193  193 194  194 195  195 196  196 197  197 198  198 199  199 200  </DataArray>
<DataArray  type="UInt32"  Name="offsets"  format="ascii">2 4 6 8 10 12 14 16 18 20 22 24 26 28 30 32 34 36 38 40 42 44 46 48 50 52 54 56 58 60 62 64 66 68 70 72 74 76 78 80 82 84 86 88 90 92 94 96 98 100 102 104 106 108 110 112 114 116 118 120 122 124 126 128 130 132 134 136 138 140 142 144 146 148 150 152 154 156 158 160 162 164 166 168 170 172 174 176 178 180 182 184 186 188 190 192 194 196 198 200 202 204 206 208 210 212 214 216 218 220 222 224 226 228 230 232 234 236 238 240 242 244 246 248 250 252 254 256 258 260 262 264 266 268 270 272 274 276 278 280 282 284 286 288 290 292 294 296 298 300 302 304 306 308 310 312 314 316 318 320 322 324 326 328 330 332 334 336 338 340 342 344 346 348 350 352 354 356 358 360 362 364 366 368 370 372 374 376 378 380 382 384 386 388 390 392 394 396 398 400 </DataArray>
<DataArray  type="UInt8"  Name="types"  format="ascii">3 3 3 3 3 3 3 3 3 3 3 3 3 3 3 3 3 3 3 3 3 3 3 3 3 3 3 3 3 3 3 3 3 3 3 3 3 3 3 3 3 3 3 3 3 3 3 3 3 3 3 3 3 3 3 3 3 3 3 3 3 3 3 3 3 3 3 3 3 3 3 3 3 3 3 3 3 3 3 3 3 3 3 3 3 3 3 3 3 3 3 3 3 3 3 3 3 3 3 3 3 3 3 3 3 3 3 3 3 3 3 3 3 3 3 3 3 3 3 3 3 3 3 3 3 3 3 3 3 3 3 3 3 3 3 3 3 3 3 3 3 3 3 3 3 3 3 3 3 3 3 3 3 3 3 3 3 3 3 3 3 3 3 3 3 3 3 3 3 3 3 3 3 3 3 3 3 3 3 3 3 3 3 3 3 3 3 3 3 3 3 3 3 3 3 3 3 3 3 3 </DataArray>
</Cells>
<PointData  Vectors="(s, w)"> 
<DataArray  type="Float64"  Name="(s, w)"  NumberOfComponents="3" format="ascii">2.7803847591908695e+00 0.0000000000000000e+00 0.0000000000000000e+00  2.7877287434193607e+00 4.4930369247719798e-01 0.0000000000000000e+00  2.7819431529253507e+00 4.0097338175785091e-01 0.0000000000000000e+00  2.7857669355632675e+00 9.4637421850290315e-01 0.0000000000000000e+00  2.7825093067825861e+00 1.2805280817694853e+00 0.0000000000000000e+00  2.7867673641635888e+00 1.2672849733478386e+00 0.0000000000000000e+00  2.7799438270219885e+00 1.8865937683092304e+00 0.0000000000000000e+00  2.7877312140771378e+00 2.0877940497219400e+00 0.0000000000000000e+00  2.7799792660416225e+00 2.1608987512980042e+00 0.0000000000000000e+00  2.7843731148178921e+00 2.8024127840193525e+00 0.0000000000000000e+00  2.7813637580531489e+00 2.8928539438580079e+00 0.0000000000000000e+00  2.7832251417201737e+00 3.0645651672262999e+00 0.0000000000000000e+00  2.7773859624928785e+00 3.7047265701161272e+00 0.0000000000000000e+00  2.7855394660316932e+00 3.6742665831423915e+00 0.0000000000000000e+00  2.7746641434997290e+00 3.9957264992595158e+00 0.0000000000000000e+00  2.7813786596928454e+00 4.5483041052310540e+00 0.0000000000000000e+00  2.7778568385510778e+00 4.4655501506280686e+00 0.0000000000000000e+00  2.7757686282239526e+00 4.9068403935865428e+00 0.0000000000000000e+00  2.7733904183364948e+00 5.3543050410548663e+00 0.0000000000000000e+00  2.7786288023810610e+00 5.2239737618005453e+00 0.0000000000000000e+00  2.7624514266988145e+00 5.8052409787864532e+00 0.0000000000000000e+00  2.7741923223901890e+00 6.0365441127600175e+00 0.0000000000000000e+00  2.7626515576177648e+00 5.9648237823272003e+00 0.0000000000000000e+00  2.7563609086130114e+00 6.5652106936739392e+00 0.0000000000000000e+00  2.7593889983077835e+00 6.6091332564960314e+00 0.0000000000000000e+00  2.7508724724577802e+00 6.6038991555453768e+00 0.0000000000000000e+00  2.7345755483118186e+00 7.2050041243920351e+00 0.0000000000000000e+00  2.7502199819193991e+00 7.0335348933973592e+00 0.0000000000000000e+00  2.7198590002651275e+00 7.2103178369749976e+00 0.0000000000000000e+00  2.7218531615047090e+00 7.6528081157486492e+00 0.0000000000000000e+00  2.7229563149428810e+00 7.4224279192276708e+00 0.0000000000000000e+00  2.6965934240299338e+00 7.6979008390448680e+00 0.0000000000000000e+00  2.6965360221420376e+00 8.0140056622768654e+00 0.0000000000000000e+00  2.7025043512744582e+00 7.7575619698151987e+00 0.0000000000000000e+00  2.6603532764462243e+00 8.1742750085783094e+00 0.0000000000000000e+00  2.6832345431899238e+00 8.2872425162477708e+00 0.0000000000000000e+00  2.6666860570470123e+00 8.1655321754632606e+00 0.0000000000000000e+00  2.6389232762937076e+00 8.5551923178106470e+00 0.0000000000000000e+00  2.6576207313184095e+00 8.5937627024442182e+00 0.0000000000000000e+00  2.6416393028074303e+00 8.5441217836896843e+00 0.0000000000000000e+00  2.6065021619719615e+00 8.9407733802919367e+00 0.0000000000000000e+00  2.6428848103210973e+00 8.8573002370842708e+00 0.0000000000000000e+00  2.6032544494275576e+00 8.9680341373439934e+00 0.0000000000000000e+00  2.5886216257720456e+00 9.2247765140920084e+00 0.0000000000000000e+00  2.6133638552294283e+00 9.1830179757961545e+00 0.0000000000000000e+00  2.5781182894131387e+00 9.3285666322234135e+00 0.0000000000000000e+00  2.5584095838584111e+00 9.5397042234889646e+00 0.0000000000000000e+00  2.5958721206634787e+00 9.4673731590117161e+00 0.0000000000000000e+00  2.5413795887982169e+00 9.7377638689323973e+00 0.0000000000000000e+00  2.5419177823841173e+00 9.7931224235825471e+00 0.0000000000000000e+00  2.5644039480452978e+00 9.8186575879087350e+00 0.0000000000000000e+00  2.5194097872453347e+00 1.0068407816440118e+01 0.0000000000000000e+00  2.5109582492692426e+00 1.0095234162310657e+01 0.0000000000000000e+00  2.5455904312748983e+00 1.0097694251205310e+01 0.0000000000000000e+00  2.4845837543002007e+00 1.0432553582601576e+01 0.0000000000000000e+00  2.4920662596824510e+00 1.0328232955107978e+01 0.0000000000000000e+00  2.5133771109951444e+00 1.0427004661529089e+01 0.0000000000000000e+00  2.4650605505011298e+00 1.0726203219863303e+01 0.0000000000000000e+00  2.4579310805554946e+00 1.0624386281614704e+01 0.0000000000000000e+00  2.4950716722206332e+00 1.0680076037252592e+01 0.0000000000000000e+00  2.4337289305512804e+00 1.1080140265020411e+01 0.0000000000000000e+00  2.4361626376922092e+00 1.0870645258986547e+01 0.0000000000000000e+00  2.4630043587334547e+00 1.0966609597732704e+01 0.0000000000000000e+00  2.4179518189170173e+00 1.1363132641517709e+01 0.0000000000000000e+00  2.3997895992706959e+00 1.1196493705609971e+01 0.0000000000000000e+00  2.4437282410198220e+00 1.1172820645754175e+01 0.0000000000000000e+00  2.3902103723863268e+00 1.1674169143081496e+01 0.0000000000000000e+00  2.3754166639475924e+00 1.1477327232005120e+01 0.0000000000000000e+00  2.4103747015356021e+00 1.1415236381819980e+01 0.0000000000000000e+00  2.3774407245271179e+00 1.1907609607639840e+01 0.0000000000000000e+00  2.3378433938856920e+00 1.1812043404154300e+01 0.0000000000000000e+00  2.3863543251714381e+00 1.1593273267773720e+01 0.0000000000000000e+00  2.3544877483866764e+00 1.2152653436921478e+01 0.0000000000000000e+00  2.3143596026738100e+00 1.2135399756965885e+01 0.0000000000000000e+00  2.3484217294446128e+00 1.1813474337665385e+01 0.0000000000000000e+00  2.3422803533875967e+00 1.2310868479818900e+01 0.0000000000000000e+00  2.2833398186109517e+00 1.2488034314791433e+01 0.0000000000000000e+00  2.3186291773859722e+00 1.2057080277548009e+01 0.0000000000000000e+00  2.3201893750404379e+00 1.2442578218471079e+01 0.0000000000000000e+00  2.2634684224792259e+00 1.2811169754871843e+01 0.0000000000000000e+00  2.2807497710670650e+00 1.2329420530821498e+01 0.0000000000000000e+00  2.3016311010648880e+00 1.2540524103254697e+01 0.0000000000000000e+00  2.2398613849680840e+00 1.3096195077066639e+01 0.0000000000000000e+00  2.2521979319753518e+00 1.2683473371818893e+01 0.0000000000000000e+00  2.2734970199567517e+00 1.2581941205940424e+01 0.0000000000000000e+00  2.2181369542932554e+00 1.3308334774662038e+01 0.0000000000000000e+00  2.2253074968110651e+00 1.3065342025231264e+01 0.0000000000000000e+00  2.2494004098540241e+00 1.2680656327454113e+01 0.0000000000000000e+00  2.1840014892110329e+00 1.3413723168339452e+01 0.0000000000000000e+00  2.2128816336105168e+00 1.3479370104087138e+01 0.0000000000000000e+00  2.2206956944161327e+00 1.2816446805213113e+01 0.0000000000000000e+00  2.1408159893358132e+00 1.3428509857762426e+01 0.0000000000000000e+00  2.2105297182198886e+00 1.3813024628661889e+01 0.0000000000000000e+00  2.1961156141874536e+00 1.3182647494944364e+01 0.0000000000000000e+00  2.0765592914278894e+00 1.3347016810189327e+01 0.0000000000000000e+00  2.2415453974343582e+00 1.3881161678304791e+01 0.0000000000000000e+00  2.1055480692517632e+00 1.4127822637075383e+01 0.0000000000000000e+00  2.1128543609428525e+00 1.2508273821509313e+01 0.0000000000000000e+00  2.1523963604510352e+00 1.4662994864844544e+01 0.0000000000000000e+00  2.1503079900617474e+00 1.4335888870057557e+01 0.0000000000000000e+00  2.0270463569889809e+00 1.2520473769065511e+01 0.0000000000000000e+00  2.1493404382439327e+00 1.4667890069727163e+01 0.0000000000000000e+00  2.1380390178683610e+00 1.4952012226163239e+01 0.0000000000000000e+00  2.0068210256291241e+00 1.2168017655632500e+01 0.0000000000000000e+00  2.1303595952600376e+00 1.4681492268253427e+01 0.0000000000000000e+00  2.1708271688667726e+00 1.5338549395726144e+01 0.0000000000000000e+00  1.9848639973312827e+00 1.1864236463292924e+01 0.0000000000000000e+00  2.1231496052265943e+00 1.4522740099606233e+01 0.0000000000000000e+00  2.1881938055753838e+00 1.5958327730407342e+01 0.0000000000000000e+00  1.9643930156384484e+00 1.1469730853348182e+01 0.0000000000000000e+00  2.0956108780619722e+00 1.4186383842253948e+01 0.0000000000000000e+00  2.2304971966341158e+00 1.6804101385271686e+01 0.0000000000000000e+00  1.9428507679769247e+00 1.1234496824740921e+01 0.0000000000000000e+00  2.0525720263859091e+00 1.3350014070279666e+01 0.0000000000000000e+00  2.2776822056380097e+00 1.7918312135315457e+01 0.0000000000000000e+00  1.9490729292536366e+00 1.1397511393987237e+01 0.0000000000000000e+00  1.9681702677076696e+00 1.1852258955195483e+01 0.0000000000000000e+00  2.3240108105412336e+00 1.8901156266631176e+01 0.0000000000000000e+00  1.9938334802979893e+00 1.2447844104238104e+01 0.0000000000000000e+00  1.8649071766483369e+00 9.8929273558835806e+00 0.0000000000000000e+00  2.3282687845685230e+00 1.9169503056812850e+01 0.0000000000000000e+00  2.1000411523331097e+00 1.4602331360316507e+01 0.0000000000000000e+00  1.7607268100820959e+00 8.0506451107642736e+00 0.0000000000000000e+00  2.2682889637639532e+00 1.8044034078162444e+01 0.0000000000000000e+00  2.2399007147345036e+00 1.7531505600459010e+01 0.0000000000000000e+00  1.7123483550830361e+00 7.2250446674440409e+00 0.0000000000000000e+00  2.1187653098620065e+00 1.5210117457943655e+01 0.0000000000000000e+00  2.3887316128534501e+00 2.0588536586439826e+01 0.0000000000000000e+00  1.7470812951681489e+00 8.0498387927886306e+00 0.0000000000000000e+00  1.9221636618980211e+00 1.1407317389528286e+01 0.0000000000000000e+00  2.4646873562821003e+00 2.2294403058666663e+01 0.0000000000000000e+00  1.9035648379177470e+00 1.1132443087533309e+01 0.0000000000000000e+00  1.7069502023881604e+00 7.3832925102343490e+00 0.0000000000000000e+00  2.4385139705180681e+00 2.1821672092459909e+01 0.0000000000000000e+00  2.1228906101553240e+00 1.5537527772185349e+01 0.0000000000000000e+00  1.5875319634334706e+00 5.2487637800826459e+00 0.0000000000000000e+00  2.2371853646145858e+00 1.7894795579559226e+01 0.0000000000000000e+00  2.3946992370662379e+00 2.1009878288895855e+01 0.0000000000000000e+00  1.5774408206146240e+00 5.1929651782574275e+00 0.0000000000000000e+00  1.9623531911413614e+00 1.2521868567285733e+01 0.0000000000000000e+00  2.5312120614072420e+00 2.4033049049483687e+01 0.0000000000000000e+00  1.8069058849196800e+00 9.6385439391526937e+00 0.0000000000000000e+00  1.6129618454326040e+00 5.9634619011530088e+00 0.0000000000000000e+00  2.5290192610959354e+00 2.4004580808067441e+01 0.0000000000000000e+00  2.1145790916789666e+00 1.5714191229375452e+01 0.0000000000000000e+00  1.4679943276563467e+00 3.5266507686671082e+00 0.0000000000000000e+00  2.1942023241798752e+00 1.7406046138765490e+01 0.0000000000000000e+00  2.5132899466565570e+00 2.3783410089029054e+01 0.0000000000000000e+00  1.5125859694127319e+00 4.4369219670192619e+00 0.0000000000000000e+00  1.7748720941217135e+00 9.2650895183618811e+00 0.0000000000000000e+00  2.6349547677307372e+00 2.6610586745467288e+01 0.0000000000000000e+00  1.8994783426395090e+00 1.1750849091834590e+01 0.0000000000000000e+00  1.4100410067440556e+00 2.8484038552270059e+00 0.0000000000000000e+00  2.3572492896337880e+00 2.0908925754707298e+01 0.0000000000000000e+00  2.4671855414987349e+00 2.2916445446419967e+01 0.0000000000000000e+00  1.3046692976063978e+00 9.3691532758878726e-01 0.0000000000000000e+00  1.9102559842332749e+00 1.2166520893031866e+01 0.0000000000000000e+00  2.5868534401379994e+00 2.6328929562195615e+01 0.0000000000000000e+00  1.9463816852699865e+00 1.2742631769468042e+01 0.0000000000000000e+00  1.1648617257695133e+00 -1.7092785749685124e+00 0.0000000000000000e+00  2.6070311870326606e+00 2.5593669813503350e+01 0.0000000000000000e+00  2.2390358601337028e+00 1.9360930480958245e+01 0.0000000000000000e+00  1.5271506388377691e+00 6.0064108046413427e+00 0.0000000000000000e+00  1.4887157950426881e+00 4.2350379616172402e+00 0.0000000000000000e+00  2.9764923932547700e+00 3.2976230168576990e+01 0.0000000000000000e+00  1.6723134163919366e+00 7.7431714024003941e+00 0.0000000000000000e+00  1.3730663676840964e+00 3.5911253187357040e+00 0.0000000000000000e+00  2.1169741867470400e+00 1.6898297154920066e+01 0.0000000000000000e+00  2.7076604702776197e+00 2.8307308703924065e+01 0.0000000000000000e+00  1.3820462090214765e+00 2.7544723702921101e+00 0.0000000000000000e+00  1.3923182051570937e+00 2.3603910383823448e+00 0.0000000000000000e+00  2.8233364731220374e+00 3.0731492314513584e+01 0.0000000000000000e+00  1.9580276166623289e+00 1.4187571288907455e+01 0.0000000000000000e+00  1.4345720915586888e+00 5.3762805095024309e+00 0.0000000000000000e+00  1.4578907213326169e+00 3.8415115673881708e+00 0.0000000000000000e+00  3.2539801413219398e+00 3.7369083415686951e+01 0.0000000000000000e+00  1.2818378869064961e+00 4.3609667790988260e-01 0.0000000000000000e+00  1.5175889746226812e+00 7.8132817154097314e+00 0.0000000000000000e+00  1.8532635754197690e+00 1.2976536952495486e+01 0.0000000000000000e+00  3.0479368868523613e+00 3.3282618256358369e+01 0.0000000000000000e+00  1.0940581175965802e+00 -2.3733208321154060e+00 0.0000000000000000e+00  1.4523480837311118e+00 4.3798995246428687e+00 0.0000000000000000e+00  2.5710060045952541e+00 2.6065005132561783e+01 0.0000000000000000e+00  2.3092539044569258e+00 2.1726576117418745e+01 0.0000000000000000e+00  1.2469016854738308e+00 2.1920128123798088e+00 0.0000000000000000e+00  1.3531655113814072e+00 7.8908698424209356e-01 0.0000000000000000e+00  2.9810679813019272e+00 3.4148415939731414e+01 0.0000000000000000e+00  1.9420745522930574e+00 1.2922365692984467e+01 0.0000000000000000e+00  1.2197502619237595e+00 2.3907887551882236e+00 0.0000000000000000e+00  1.5833520703619242e+00 4.2141273147045313e+00 0.0000000000000000e+00  2.7129629143360345e+00 3.7753331302692963e+01 0.0000000000000000e+00  2.7862310452540568e+00 -2.3367418271335296e+00 0.0000000000000000e+00  2.4437725747763053e+00 -2.7129839689442317e+01 0.0000000000000000e+00  3.0195791117332504e+00 3.3135173437735489e+01 0.0000000000000000e+00  3.5214975988680663e+00 -6.7686016661398378e+00 0.0000000000000000e+00  2.1033004357807692e+00 -3.5121871094387309e+01 0.0000000000000000e+00  3.0262262346691782e+00 3.7155649270408226e+01 0.0000000000000000e+00  3.7637450291748316e+00 -2.0333467565572665e+01 0.0000000000000000e+00  2.5160868831360461e+00 -1.3821522131967155e+01 0.0000000000000000e+00  2.2851568000684486e+00 3.3752353066239905e+01 0.0000000000000000e+00  3.1208877682031542e+00 0.0000000000000000e+00 0.0000000000000000e+00  </DataArray> 
</PointData> 
</Piece>
</UnstructuredGrid>
</VTKFile>