<?xml version="1.0"?>
<VTKFile type="UnstructuredGrid"  version="0.1"  >
<UnstructuredGrid>
<Piece  NumberOfPoints="201" NumberOfCells="200">
<Points>
<DataArray  type="Float64"  NumberOfComponents="3"  format="ascii">-5 0 0  -4.95 0 0  -4.9 0 0  -4.85 0 0  -4.8 0 0  -4.75 0 0  -4.7 0 0  -4.65 0 0  -4.6 0 0  -4.55 0 0  -4.5 0 0  -4.45 0 0  -4.4 0 0  -4.35 0 0  -4.3 0 0  -4.25 0 0  -4.2 0 0  -4.15 0 0  -4.1 0 0  -4.05 0 0  -4 0 0  -3.95 0 0  -3.9 0 0  -3.85 0 0  -3.8 0 0  -3.75 0 0  -3.7 0 0  -3.65 0 0  -3.6 0 0  -3.55 0 0  -3.5 0 0  -3.45 0 0  -3.4 0 0  -3.35 0 0  -3.3 0 0  -3.25 0 0  -3.2 0 0  -3.15 0 0  -3.1 0 0  -3.05 0 0  -3 0 0  -2.95 0 0  -2.9 0 0  -2.85 0 0  -2.8 0 0  -2.75 0 0  -2.7 0 0  -2.65 0 0  -2.6 0 0  -2.55 0 0  -2.5 0 0  -2.45 0 0  -2.4 0 0  -2.35 0 0  -2.3 0 0  -2.25 0 0  -2.2 0 0  -2.15 0 0  -2.1 0 0  -2.05 0 0  -2 0 0  -1.95 0 0  -1.9 0 0  -1.85 0 0  -1.8 0 0  -1.75 0 0  -1.7 0 0  -1.65 0 0  -1.6 0 0  -1.55 0 0  -1.5 0 0  -1.45 0 0  -1.4 0 0  -1.35 0 0  -1.3 0 0  -1.25 0 0  -1.2 0 0  -1.15 0 0  -1.1 0 0  -1.05 0 0  -1 0 0  -0.9500000000000002 0 0  -0.9000000000000004 0 0  -0.8499999999999996 0 0  -0.7999999999999998 0 0  -0.75 0 0  -0.7000000000000002 0 0  -0.6500000000000004 0 0  -0.5999999999999996 0 0  -0.5499999999999998 0 0  -0.5 0 0  -0.4500000000000002 0 0  -0.4000000000000004 0 0  -0.3499999999999996 0 0  -0.2999999999999998 0 0  -0.25 0 0  -0.2000000000000002 0 0  -0.1500000000000004 0 0  -0.09999999999999964 0 0  -0.04999999999999982 0 0  0 0 0  0.04999999999999982 0 0  0.09999999999999964 0 0  0.1500000000000004 0 0  0.2000000000000002 0 0  0.25 0 0  0.2999999999999998 0 0  0.3499999999999996 0 0  0.4000000000000004 0 0  0.4500000000000002 0 0  0.5 0 0  0.5499999999999998 0 0  0.5999999999999996 0 0  0.6500000000000004 0 0  0.7000000000000002 0 0  0.75 0 0  0.7999999999999998 0 0  0.8499999999999996 0 0  0.9000000000000004 0 0  0.9500000000000002 0 0  1 0 0  1.05 0 0  1.1 0 0  1.15 0 0  1.2 0 0  1.25 0 0  1.3 0 0  1.35 0 0  1.4 0 0  1.45 0 0  1.5 0 0  1.55 0 0  1.6 0 0  1.65 0 0  1.7 0 0  1.75 0 0  1.8 0 0  1.85 0 0  1.9 0 0  1.95 0 0  2 0 0  2.05 0 0  2.1 0 0  2.15 0 0  2.2 0 0  2.25 0 0  2.3 0 0  2.35 0 0  2.4 0 0  2.45 0 0  2.5 0 0  2.55 0 0  2.6 0 0  2.65 0 0  2.7 0 0  2.75 0 0  2.8 0 0  2.85 0 0  2.9 0 0  2.95 0 0  3 0 0  3.050000000000001 0 0  3.1 0 0  3.15 0 0  3.199999999999999 0 0  3.25 0 0  3.300000000000001 0 0  3.35 0 0  3.4 0 0  3.449999999999999 0 0  3.5 0 0  3.550000000000001 0 0  3.6 0 0  3.65 0 0  3.699999999999999 0 0  3.75 0 0  3.800000000000001 0 0  3.85 0 0  3.9 0 0  3.949999999999999 0 0  4 0 0  4.050000000000001 0 0  4.1 0 0  4.15 0 0  4.199999999999999 0 0  4.25 0 0  4.300000000000001 0 0  4.35 0 0  4.4 0 0  4.449999999999999 0 0  4.5 0 0  4.550000000000001 0 0  4.6 0 0  4.65 0 0  4.699999999999999 0 0  4.75 0 0  4.800000000000001 0 0  4.85 0 0  4.9 0 0  4.949999999999999 0 0  5 0 0  </DataArray>
</Points>
<Cells>
<DataArray  type="UInt32"  Name="connectivity"  format="ascii">0 1  1 2  2 3  3 4  4 5  5 6  6 7  7 8  8 9  9 10  10 11  11 12  12 13  13 14  14 15  15 16  16 17  17 18  18 19  19 20  20 21  21 22  22 23  23 24  24 25  25 26  26 27  27 28  28 29  29 30  30 31  31 32  32 33  33 34  34 35  35 36  36 37  37 38  38 39  39 40  40 41  41 42  42 43  43 44  44 45  45 46  46 47  47 48  48 49  49 50  50 51  51 52  52 53  53 54  54 55  55 56  56 57  57 58  58 59  59 60  60 61  61 62  62 63  63 64  64 65  65 66  66 67  67 68  68 69  69 70  70 71  71 72  72 73  73 74  74 75  75 76  76 77  77 78  78 79  79 80  80 81  81 82  82 83  83 84  84 85  85 86  86 87  87 88  88 89  89 90  90 91  91 92  92 93  93 94  94 95  95 96  96 97  97 98  98 99  99 100  100 101  101 102  102 103  103 104  104 105  105 106  106 107  107 108  108 109  109 110  110 111  111 112  112 113  113 114  114 115  115 116  116 117  117 118  118 119  119 120  120 121  121 122  122 123  123 124  124 125  125 126  126 127  127 128  128 129  129 130  130 131  131 132  132 133  133 134  134 135  135 136  136 137  137 138  138 139  139 140  140 141  141 142  142 143  143 144  144 145  145 146  146 147  147 148  148 149  149 150  150 151  151 152  152 153  153 154  154 155  155 156  156 157  157 158  158 159  159 160  160 161  161 162  162 163  163 164  164 165  165 166  166 167  167 168  168 169  169 170  170 171  171 172  172 173  173 174  174 175  175 176  176 177  177 178  178 179  179 180  180 181  181 182  182 183  183 184  184 185  185 186  186 187  187 188  188 189  189 190  190 191  191 192  192 193  193 194  194 195  195 196  196 197  197 198  198 199  199 200  </DataArray>
<DataArray  type="UInt32"  Name="offsets"  format="ascii">2 4 6 8 10 12 14 16 18 20 22 24 26 28 30 32 34 36 38 40 42 44 46 48 50 52 54 56 58 60 62 64 66 68 70 72 74 76 78 80 82 84 86 88 90 92 94 96 98 100 102 104 106 108 110 112 114 116 118 120 122 124 126 128 130 132 134 136 138 140 142 144 146 148 150 152 154 156 158 160 162 164 166 168 170 172 174 176 178 180 182 184 186 188 190 192 194 196 198 200 202 204 206 208 210 212 214 216 218 220 222 224 226 228 230 232 234 236 238 240 242 244 246 248 250 252 254 256 258 260 262 264 266 268 270 272 274 276 278 280 282 284 286 288 290 292 294 296 298 300 302 304 306 308 310 312 314 316 318 320 322 324 326 328 330 332 334 336 338 340 342 344 346 348 350 352 354 356 358 360 362 364 366 368 370 372 374 376 378 380 382 384 386 388 390 392 394 396 398 400 </DataArray>
<DataArray  type="UInt8"  Name="types"  format="ascii">3 3 3 3 3 3 3 3 3 3 3 3 3 3 3 3 3 3 3 3 3 3 3 3 3 3 3 3 3 3 3 3 3 3 3 3 3 3 3 3 3 3 3 3 3 3 3 3 3 3 3 3 3 3 3 3 3 3 3 3 3 3 3 3 3 3 3 3 3 3 3 3 3 3 3 3 3 3 3 3 3 3 3 3 3 3 3 3 3 3 3 3 3 3 3 3 3 3 3 3 3 3 3 3 3 3 3 3 3 3 3 3 3 3 3 3 3 3 3 3 3 3 3 3 3 3 3 3 3 3 3 3 3 3 3 3 3 3 3 3 3 3 3 3 3 3 3 3 3 3 3 3 3 3 3 3 3 3 3 3 3 3 3 3 3 3 3 3 3 3 3 3 3 3 3 3 3 3 3 3 3 3 3 3 3 3 3 3 3 3 3 3 3 3 3 3 3 3 3 3 </DataArray>
</Cells>
<PointData  Vectors="(s, w)"> 
<DataArray  type="Float64"  Name="(s, w)"  NumberOfComponents="3" format="ascii">2.8969044602965037e+00 0.0000000000000000e+00 0.0000000000000000e+00  2.9168706677078324e+00 2.1871962654450094e-01 0.0000000000000000e+00  2.9058825953126162e+00 7.9300531047088718e-01 0.0000000000000000e+00  2.9039781917506637e+00 8.8506120406530508e-01 0.0000000000000000e+00  2.9127357431978007e+00 1.2722211443071052e+00 0.0000000000000000e+00  2.9051716399073619e+00 1.7455045817975077e+00 0.0000000000000000e+00  2.9011974959074873e+00 1.7986724314082001e+00 0.0000000000000000e+00  2.9155452627483909e+00 2.3282115558184087e+00 0.0000000000000000e+00  2.8936481083014476e+00 2.6378865514351264e+00 0.0000000000000000e+00  2.9095358395528650e+00 2.7317298577012110e+00 0.0000000000000000e+00  2.9015313183025015e+00 3.3460041245238559e+00 0.0000000000000000e+00  2.8950953432097370e+00 3.4324823596284109e+00 0.0000000000000000e+00  2.9009747143449829e+00 3.6772929778510757e+00 0.0000000000000000e+00  2.8936487842151659e+00 4.2171415708152464e+00 0.0000000000000000e+00  2.8831018011576175e+00 4.1399308593498567e+00 0.0000000000000000e+00  2.8939598961416459e+00 4.5483161840017123e+00 0.0000000000000000e+00  2.8691085910492253e+00 4.9049936749711938e+00 0.0000000000000000e+00  2.8774723409410625e+00 4.7395131757791598e+00 0.0000000000000000e+00  2.8642766369405188e+00 5.3319033115411196e+00 0.0000000000000000e+00  2.8550184431707906e+00 5.3558882987227765e+00 0.0000000000000000e+00  2.8516127167990972e+00 5.3314843537757381e+00 0.0000000000000000e+00  2.8408716398522462e+00 5.9320759182771070e+00 0.0000000000000000e+00  2.8285154339844443e+00 5.6936213402078808e+00 0.0000000000000000e+00  2.8288575552251984e+00 5.9142233561021529e+00 0.0000000000000000e+00  2.8058548162190609e+00 6.3933454147740720e+00 0.0000000000000000e+00  2.8117568954302827e+00 5.9986236939599369e+00 0.0000000000000000e+00  2.7886643256618306e+00 6.5492689777999917e+00 0.0000000000000000e+00  2.7883944764284609e+00 6.6874764217649822e+00 0.0000000000000000e+00  2.7778948165738342e+00 6.4326122914502646e+00 0.0000000000000000e+00  2.7626421657899152e+00 7.0944317652686912e+00 0.0000000000000000e+00  2.7619506307099302e+00 6.9518317046567812e+00 0.0000000000000000e+00  2.7503923047445076e+00 6.9312529621376129e+00 0.0000000000000000e+00  2.7289051618532896e+00 7.5613091577248044e+00 0.0000000000000000e+00  2.7455338980632304e+00 7.2003635612422974e+00 0.0000000000000000e+00  2.7065627104104362e+00 7.5084338029348423e+00 0.0000000000000000e+00  2.7141931499245122e+00 7.8593982409358834e+00 0.0000000000000000e+00  2.7109398031322689e+00 7.5665510782109617e+00 0.0000000000000000e+00  2.6777568667441947e+00 8.0066907406098444e+00 0.0000000000000000e+00  2.6900286350109601e+00 8.1457328022234456e+00 0.0000000000000000e+00  2.6828848269331886e+00 7.9908544378466448e+00 0.0000000000000000e+00  2.6414286621663039e+00 8.4707079074267746e+00 0.0000000000000000e+00  2.6784298064332441e+00 8.3911193677473292e+00 0.0000000000000000e+00  2.6384951726556700e+00 8.5029281643286279e+00 0.0000000000000000e+00  2.6239673898551028e+00 8.7855810913279573e+00 0.0000000000000000e+00  2.6487174126288977e+00 8.7302799254908710e+00 0.0000000000000000e+00  2.6066493747682662e+00 8.9564856289066572e+00 0.0000000000000000e+00  2.5973871798986345e+00 9.0685069779032528e+00 0.0000000000000000e+00  2.6267810643564311e+00 9.0756177233280333e+00 0.0000000000000000e+00  2.5645361563258215e+00 9.4165741931731457e+00 0.0000000000000000e+00  2.5854698464974883e+00 9.2822732258687495e+00 0.0000000000000000e+00  2.5878068610364826e+00 9.5185072652767300e+00 0.0000000000000000e+00  2.5401199965637149e+00 9.7727633978810040e+00 0.0000000000000000e+00  2.5594594059987377e+00 9.5497013496110359e+00 0.0000000000000000e+00  2.5597729018819302e+00 9.9366387890480681e+00 0.0000000000000000e+00  2.5064789300545232e+00 1.0124075602717939e+01 0.0000000000000000e+00  2.5436386815932388e+00 9.7821437165871448e+00 0.0000000000000000e+00  2.5184019172772310e+00 1.0394086178218179e+01 0.0000000000000000e+00  2.4889145541272208e+00 1.0401039726899782e+01 0.0000000000000000e+00  2.5118128965109121e+00 1.0066957227265284e+01 0.0000000000000000e+00  2.4899261973389630e+00 1.0771774748644770e+01 0.0000000000000000e+00  2.4603294056129421e+00 1.0706494973860613e+01 0.0000000000000000e+00  2.4901553550387110e+00 1.0324796845979384e+01 0.0000000000000000e+00  2.4500195365251614e+00 1.1145700856632532e+01 0.0000000000000000e+00  2.4441412524416415e+00 1.0974041668673619e+01 0.0000000000000000e+00  2.4558020194218706e+00 1.0623596824857392e+01 0.0000000000000000e+00  2.4234240593734162e+00 1.1464151852658199e+01 0.0000000000000000e+00  2.4165760753143641e+00 1.1284324654182713e+01 0.0000000000000000e+00  2.4318392175767412e+00 1.0886255122205855e+01 0.0000000000000000e+00  2.3862153362514280e+00 1.1765530273123916e+01 0.0000000000000000e+00  2.3997592636223617e+00 1.1600940696107825e+01 0.0000000000000000e+00  2.3989570772085957e+00 1.1171707050823017e+01 0.0000000000000000e+00  2.3579796167848817e+00 1.2006470408569378e+01 0.0000000000000000e+00  2.3723722701444920e+00 1.1913465836271341e+01 0.0000000000000000e+00  2.3763289328666066e+00 1.1472902099969074e+01 0.0000000000000000e+00  2.3219139386930387e+00 1.2220055687745218e+01 0.0000000000000000e+00  2.3508828020706143e+00 1.2221895167284979e+01 0.0000000000000000e+00  2.3480697142571936e+00 1.1757337746337774e+01 0.0000000000000000e+00  2.2911922463915722e+00 1.2419306234833050e+01 0.0000000000000000e+00  2.3220301439455699e+00 1.2472897011265898e+01 0.0000000000000000e+00  2.3283361522838328e+00 1.2114997676579478e+01 0.0000000000000000e+00  2.2556126873355953e+00 1.2596387745328641e+01 0.0000000000000000e+00  2.2952456622330306e+00 1.2666136216088853e+01 0.0000000000000000e+00  2.3040848908249676e+00 1.2445668193202001e+01 0.0000000000000000e+00  2.2268555282748363e+00 1.2860926164163066e+01 0.0000000000000000e+00  2.2635968032732672e+00 1.2746440491967650e+01 0.0000000000000000e+00  2.2832476380952360e+00 1.2818349470059260e+01 0.0000000000000000e+00  2.1951556884744901e+00 1.3170075809753143e+01 0.0000000000000000e+00  2.2380964493764073e+00 1.2715702565249430e+01 0.0000000000000000e+00  2.2487304142781750e+00 1.3139644254422423e+01 0.0000000000000000e+00  2.1766144817926083e+00 1.3626046602359946e+01 0.0000000000000000e+00  2.2150318212374733e+00 1.2584467052877429e+01 0.0000000000000000e+00  2.2003684287263425e+00 1.3482154853181145e+01 0.0000000000000000e+00  2.1695365099644293e+00 1.4049607154255037e+01 0.0000000000000000e+00  2.2007623277873281e+00 1.2450033163833568e+01 0.0000000000000000e+00  2.1015382637656086e+00 1.3911557270680031e+01 0.0000000000000000e+00  2.2450201092901043e+00 1.4055490930064757e+01 0.0000000000000000e+00  2.0778357289349145e+00 1.3163884849133483e+01 0.0000000000000000e+00  2.1407002725833379e+00 1.3254814178923548e+01 0.0000000000000000e+00  2.1812771242410265e+00 1.5040041854465045e+01 0.0000000000000000e+00  2.0817054754425315e+00 1.3026452406099413e+01 0.0000000000000000e+00  2.0663765783420627e+00 1.3282340515867929e+01 0.0000000000000000e+00  2.1902446872805830e+00 1.5498863306319597e+01 0.0000000000000000e+00  2.0492644531397453e+00 1.3219156065043251e+01 0.0000000000000000e+00  2.0460822971335495e+00 1.2939681356406636e+01 0.0000000000000000e+00  2.1961160098079189e+00 1.5991915043801438e+01 0.0000000000000000e+00  2.0597042394100624e+00 1.3155081076862007e+01 0.0000000000000000e+00  2.0150684562871088e+00 1.2478620372355707e+01 0.0000000000000000e+00  2.2195342560412437e+00 1.6454224091636661e+01 0.0000000000000000e+00  2.0557617146422551e+00 1.3368256177825954e+01 0.0000000000000000e+00  1.9748554936451492e+00 1.1696859658784522e+01 0.0000000000000000e+00  2.2368153515410993e+00 1.7025341681579821e+01 0.0000000000000000e+00  2.0842032682314380e+00 1.3946057303313941e+01 0.0000000000000000e+00  1.9091807481148599e+00 1.0605886627215591e+01 0.0000000000000000e+00  2.2444615429199275e+00 1.7214810142252869e+01 0.0000000000000000e+00  2.1395950053538169e+00 1.5226215240436041e+01 0.0000000000000000e+00  1.8421726598745616e+00 9.3514635311571759e+00 0.0000000000000000e+00  2.2046808515791909e+00 1.6608214446400201e+01 0.0000000000000000e+00  2.2361001101536098e+00 1.7196940763788710e+01 0.0000000000000000e+00  1.7949926183178382e+00 8.6350741408016578e+00 0.0000000000000000e+00  2.1104988993068048e+00 1.4802535647758530e+01 0.0000000000000000e+00  2.3417241690115889e+00 1.9491551962216246e+01 0.0000000000000000e+00  1.8117195126806878e+00 9.0510349583798320e+00 0.0000000000000000e+00  1.9566080650851285e+00 1.1934090125841685e+01 0.0000000000000000e+00  2.4186817570723087e+00 2.1134252229460945e+01 0.0000000000000000e+00  1.9070888688541690e+00 1.1070415966183411e+01 0.0000000000000000e+00  1.7843533727520726e+00 8.6662219579379904e+00 0.0000000000000000e+00  2.4105401309773047e+00 2.1136409663469177e+01 0.0000000000000000e+00  2.0860936042277896e+00 1.4630976682408759e+01 0.0000000000000000e+00  1.6474820105782171e+00 6.2165832584201031e+00 0.0000000000000000e+00  2.2905474003662922e+00 1.8785112594641809e+01 0.0000000000000000e+00  2.3016072677281421e+00 1.9042721371069288e+01 0.0000000000000000e+00  1.6157788608407901e+00 5.7132325785783067e+00 0.0000000000000000e+00  2.0595404116318745e+00 1.4306711868266275e+01 0.0000000000000000e+00  2.4818995725560176e+00 2.2776264607578334e+01 0.0000000000000000e+00  1.7260353381631020e+00 7.9482844310554102e+00 0.0000000000000000e+00  1.7786011407688840e+00 8.9165813772719975e+00 0.0000000000000000e+00  2.5288538204818769e+00 2.3902810260574430e+01 0.0000000000000000e+00  1.9833506320452756e+00 1.2956115754717137e+01 0.0000000000000000e+00  1.5441209586499631e+00 4.6662877002710417e+00 0.0000000000000000e+00  2.3739295625038390e+00 2.0825866161232280e+01 0.0000000000000000e+00  2.3164849802679242e+00 1.9672046027992742e+01 0.0000000000000000e+00  1.4830074378680043e+00 3.7064721356695722e+00 0.0000000000000000e+00  2.0198180061689870e+00 1.3868966595596833e+01 0.0000000000000000e+00  2.5795366116057075e+00 2.5196938467049218e+01 0.0000000000000000e+00  1.6803225605022474e+00 7.5090122751419051e+00 0.0000000000000000e+00  1.6054424312310929e+00 6.0878922489609195e+00 0.0000000000000000e+00  2.5704524567944445e+00 2.5200442430948396e+01 0.0000000000000000e+00  2.1110045061700147e+00 1.5792631852464353e+01 0.0000000000000000e+00  1.3582484530484344e+00 1.8682931141171553e+00 0.0000000000000000e+00  2.1978715712503774e+00 1.7613345665796995e+01 0.0000000000000000e+00  2.5582662751545970e+00 2.5034238538665935e+01 0.0000000000000000e+00  1.4954787536969480e+00 4.4340814566365054e+00 0.0000000000000000e+00  1.6330808900353893e+00 6.8801704104027888e+00 0.0000000000000000e+00  2.6661800760927252e+00 2.7488344673047212e+01 0.0000000000000000e+00  2.0164665453038304e+00 1.4141795891102104e+01 0.0000000000000000e+00  1.2683520418238177e+00 6.9204599338675366e-01 0.0000000000000000e+00  2.2187456668958370e+00 1.8215980358900747e+01 0.0000000000000000e+00  2.6045020811980115e+00 2.6225826256219396e+01 0.0000000000000000e+00  1.4429590236004024e+00 3.7919549433280126e+00 0.0000000000000000e+00  1.5228030576403844e+00 5.1182465205519128e+00 0.0000000000000000e+00  2.6719260922306636e+00 2.7897151859889373e+01 0.0000000000000000e+00  2.1305437377806165e+00 1.6460528417890703e+01 0.0000000000000000e+00  1.1712170829241741e+00 -4.7199244671382362e-01 0.0000000000000000e+00  2.0200925193026893e+00 1.4356424002102663e+01 0.0000000000000000e+00  2.7344946717317598e+00 2.9423403391285436e+01 0.0000000000000000e+00  1.6035947947283444e+00 6.7076418718900728e+00 0.0000000000000000e+00  1.2459933953506579e+00 7.6973094684416254e-01 0.0000000000000000e+00  2.5000784684922821e+00 2.4214453853599711e+01 0.0000000000000000e+00  2.4539223252343803e+00 2.3334899297612658e+01 0.0000000000000000e+00  1.2447003186507730e+00 1.0233011745615608e+00 0.0000000000000000e+00  1.5322410974898819e+00 5.4301464622637141e+00 0.0000000000000000e+00  2.7916726371809286e+00 3.0672410993412129e+01 0.0000000000000000e+00  2.0310599916236645e+00 1.4670277224543350e+01 0.0000000000000000e+00  1.1051274438645509e+00 -6.9738139838684043e-01 0.0000000000000000e+00  1.8681130394732495e+00 1.1495403767511425e+01 0.0000000000000000e+00  2.8646042986350975e+00 3.2270852654669646e+01 0.0000000000000000e+00  1.6466142703190272e+00 7.4308966588922827e+00 0.0000000000000000e+00  1.1143409525001373e+00 -3.5990303496469894e-01 0.0000000000000000e+00  2.1781522892583478e+00 1.7756736392219075e+01 0.0000000000000000e+00  2.7641761609448539e+00 3.0093772264497588e+01 0.0000000000000000e+00  1.4075770618923589e+00 3.4043541712028911e+00 0.0000000000000000e+00  1.1384555670500618e+00 -4.1284609606766731e-01 0.0000000000000000e+00  2.4941337950365323e+00 2.4209024917684900e+01 0.0000000000000000e+00  2.4952431010416065e+00 2.5155158598117026e+01 0.0000000000000000e+00  1.3946844430062748e+00 3.8077797852741275e+00 0.0000000000000000e+00  1.0485233027740211e+00 -2.9501508513346053e+00 0.0000000000000000e+00  2.8726306325319833e+00 3.0912127200924129e+01 0.0000000000000000e+00  2.1148181028831625e+00 1.8465042800817873e+01 0.0000000000000000e+00  1.4869587114751788e+00 6.5471537664774440e+00 0.0000000000000000e+00  9.4268733163396468e-01 -4.8264698897202329e+00 0.0000000000000000e+00  3.1240615293072578e+00 3.4112158479196445e+01 0.0000000000000000e+00  1.9833009122540459e+00 1.5011460616167124e+01 0.0000000000000000e+00  1.1873693512674108e+00 2.7609716164062759e+00 0.0000000000000000e+00  1.3776997388205769e+00 3.8307820516159485e+00 0.0000000000000000e+00  2.6985979890900169e+00 2.8600539138426409e+01 0.0000000000000000e+00  2.5057083926028962e+00 2.1464565706032513e+01 0.0000000000000000e+00  2.0567756621342923e+00 -3.5240296160933376e+01 0.0000000000000000e+00  4.0576493912993570e+00 8.7622906513199723e+00 0.0000000000000000e+00  1.8427679807701178e+00 2.9509983768937445e+01 0.0000000000000000e+00  2.6112841917033340e+00 -2.6277204601271777e+01 0.0000000000000000e+00  3.7708846622632759e+00 0.0000000000000000e+00 0.0000000000000000e+00  </DataArray> 
</PointData> 
</Piece>
</UnstructuredGrid>
</VTKFile>