<?xml version="1.0"?>
<VTKFile type="UnstructuredGrid"  version="0.1"  >
<UnstructuredGrid>
<Piece  NumberOfPoints="201" NumberOfCells="200">
<Points>
<DataArray  type="Float64"  NumberOfComponents="3"  format="ascii">-5 0 0  -4.95 0 0  -4.9 0 0  -4.85 0 0  -4.8 0 0  -4.75 0 0  -4.7 0 0  -4.65 0 0  -4.6 0 0  -4.55 0 0  -4.5 0 0  -4.45 0 0  -4.4 0 0  -4.35 0 0  -4.3 0 0  -4.25 0 0  -4.2 0 0  -4.15 0 0  -4.1 0 0  -4.05 0 0  -4 0 0  -3.95 0 0  -3.9 0 0  -3.85 0 0  -3.8 0 0  -3.75 0 0  -3.7 0 0  -3.65 0 0  -3.6 0 0  -3.55 0 0  -3.5 0 0  -3.45 0 0  -3.4 0 0  -3.35 0 0  -3.3 0 0  -3.25 0 0  -3.2 0 0  -3.15 0 0  -3.1 0 0  -3.05 0 0  -3 0 0  -2.95 0 0  -2.9 0 0  -2.85 0 0  -2.8 0 0  -2.75 0 0  -2.7 0 0  -2.65 0 0  -2.6 0 0  -2.55 0 0  -2.5 0 0  -2.45 0 0  -2.4 0 0  -2.35 0 0  -2.3 0 0  -2.25 0 0  -2.2 0 0  -2.15 0 0  -2.1 0 0  -2.05 0 0  -2 0 0  -1.95 0 0  -1.9 0 0  -1.85 0 0  -1.8 0 0  -1.75 0 0  -1.7 0 0  -1.65 0 0  -1.6 0 0  -1.55 0 0  -1.5 0 0  -1.45 0 0  -1.4 0 0  -1.35 0 0  -1.3 0 0  -1.25 0 0  -1.2 0 0  -1.15 0 0  -1.1 0 0  -1.05 0 0  -1 0 0  -0.9500000000000002 0 0  -0.9000000000000004 0 0  -0.8499999999999996 0 0  -0.7999999999999998 0 0  -0.75 0 0  -0.7000000000000002 0 0  -0.6500000000000004 0 0  -0.5999999999999996 0 0  -0.5499999999999998 0 0  -0.5 0 0  -0.4500000000000002 0 0  -0.4000000000000004 0 0  -0.3499999999999996 0 0  -0.2999999999999998 0 0  -0.25 0 0  -0.2000000000000002 0 0  -0.1500000000000004 0 0  -0.09999999999999964 0 0  -0.04999999999999982 0 0  0 0 0  0.04999999999999982 0 0  0.09999999999999964 0 0  0.1500000000000004 0 0  0.2000000000000002 0 0  0.25 0 0  0.2999999999999998 0 0  0.3499999999999996 0 0  0.4000000000000004 0 0  0.4500000000000002 0 0  0.5 0 0  0.5499999999999998 0 0  0.5999999999999996 0 0  0.6500000000000004 0 0  0.7000000000000002 0 0  0.75 0 0  0.7999999999999998 0 0  0.8499999999999996 0 0  0.9000000000000004 0 0  0.9500000000000002 0 0  1 0 0  1.05 0 0  1.1 0 0  1.15 0 0  1.2 0 0  1.25 0 0  1.3 0 0  1.35 0 0  1.4 0 0  1.45 0 0  1.5 0 0  1.55 0 0  1.6 0 0  1.65 0 0  1.7 0 0  1.75 0 0  1.8 0 0  1.85 0 0  1.9 0 0  1.95 0 0  2 0 0  2.05 0 0  2.1 0 0  2.15 0 0  2.2 0 0  2.25 0 0  2.3 0 0  2.35 0 0  2.4 0 0  2.45 0 0  2.5 0 0  2.55 0 0  2.6 0 0  2.65 0 0  2.7 0 0  2.75 0 0  2.8 0 0  2.85 0 0  2.9 0 0  2.95 0 0  3 0 0  3.050000000000001 0 0  3.1 0 0  3.15 0 0  3.199999999999999 0 0  3.25 0 0  3.300000000000001 0 0  3.35 0 0  3.4 0 0  3.449999999999999 0 0  3.5 0 0  3.550000000000001 0 0  3.6 0 0  3.65 0 0  3.699999999999999 0 0  3.75 0 0  3.800000000000001 0 0  3.85 0 0  3.9 0 0  3.949999999999999 0 0  4 0 0  4.050000000000001 0 0  4.1 0 0  4.15 0 0  4.199999999999999 0 0  4.25 0 0  4.300000000000001 0 0  4.35 0 0  4.4 0 0  4.449999999999999 0 0  4.5 0 0  4.550000000000001 0 0  4.6 0 0  4.65 0 0  4.699999999999999 0 0  4.75 0 0  4.800000000000001 0 0  4.85 0 0  4.9 0 0  4.949999999999999 0 0  5 0 0  </DataArray>
</Points>
<Cells>
<DataArray  type="UInt32"  Name="connectivity"  format="ascii">0 1  1 2  2 3  3 4  4 5  5 6  6 7  7 8  8 9  9 10  10 11  11 12  12 13  13 14  14 15  15 16  16 17  17 18  18 19  19 20  20 21  21 22  22 23  23 24  24 25  25 26  26 27  27 28  28 29  29 30  30 31  31 32  32 33  33 34  34 35  35 36  36 37  37 38  38 39  39 40  40 41  41 42  42 43  43 44  44 45  45 46  46 47  47 48  48 49  49 50  50 51  51 52  52 53  53 54  54 55  55 56  56 57  57 58  58 59  59 60  60 61  61 62  62 63  63 64  64 65  65 66  66 67  67 68  68 69  69 70  70 71  71 72  72 73  73 74  74 75  75 76  76 77  77 78  78 79  79 80  80 81  81 82  82 83  83 84  84 85  85 86  86 87  87 88  88 89  89 90  90 91  91 92  92 93  93 94  94 95  95 96  96 97  97 98  98 99  99 100  100 101  101 102  102 103  103 104  104 105  105 106  106 107  107 108  108 109  109 110  110 111  111 112  112 113  113 114  114 115  115 116  116 117  117 118  118 119  119 120  120 121  121 122  122 123  123 124  124 125  125 126  126 127  127 128  128 129  129 130  130 131  131 132  132 133  133 134  134 135  135 136  136 137  137 138  138 139  139 140  140 141  141 142  142 143  143 144  144 145  145 146  146 147  147 148  148 149  149 150  150 151  151 152  152 153  153 154  154 155  155 156  156 157  157 158  158 159  159 160  160 161  161 162  162 163  163 164  164 165  165 166  166 167  167 168  168 169  169 170  170 171  171 172  172 173  173 174  174 175  175 176  176 177  177 178  178 179  179 180  180 181  181 182  182 183  183 184  184 185  185 186  186 187  187 188  188 189  189 190  190 191  191 192  192 193  193 194  194 195  195 196  196 197  197 198  198 199  199 200  </DataArray>
<DataArray  type="UInt32"  Name="offsets"  format="ascii">2 4 6 8 10 12 14 16 18 20 22 24 26 28 30 32 34 36 38 40 42 44 46 48 50 52 54 56 58 60 62 64 66 68 70 72 74 76 78 80 82 84 86 88 90 92 94 96 98 100 102 104 106 108 110 112 114 116 118 120 122 124 126 128 130 132 134 136 138 140 142 144 146 148 150 152 154 156 158 160 162 164 166 168 170 172 174 176 178 180 182 184 186 188 190 192 194 196 198 200 202 204 206 208 210 212 214 216 218 220 222 224 226 228 230 232 234 236 238 240 242 244 246 248 250 252 254 256 258 260 262 264 266 268 270 272 274 276 278 280 282 284 286 288 290 292 294 296 298 300 302 304 306 308 310 312 314 316 318 320 322 324 326 328 330 332 334 336 338 340 342 344 346 348 350 352 354 356 358 360 362 364 366 368 370 372 374 376 378 380 382 384 386 388 390 392 394 396 398 400 </DataArray>
<DataArray  type="UInt8"  Name="types"  format="ascii">3 3 3 3 3 3 3 3 3 3 3 3 3 3 3 3 3 3 3 3 3 3 3 3 3 3 3 3 3 3 3 3 3 3 3 3 3 3 3 3 3 3 3 3 3 3 3 3 3 3 3 3 3 3 3 3 3 3 3 3 3 3 3 3 3 3 3 3 3 3 3 3 3 3 3 3 3 3 3 3 3 3 3 3 3 3 3 3 3 3 3 3 3 3 3 3 3 3 3 3 3 3 3 3 3 3 3 3 3 3 3 3 3 3 3 3 3 3 3 3 3 3 3 3 3 3 3 3 3 3 3 3 3 3 3 3 3 3 3 3 3 3 3 3 3 3 3 3 3 3 3 3 3 3 3 3 3 3 3 3 3 3 3 3 3 3 3 3 3 3 3 3 3 3 3 3 3 3 3 3 3 3 3 3 3 3 3 3 3 3 3 3 3 3 3 3 3 3 3 3 </DataArray>
</Cells>
<PointData  Vectors="(s, w)"> 
<DataArray  type="Float64"  Name="(s, w)"  NumberOfComponents="3" format="ascii">2.4377608906337560e+00 0.0000000000000000e+00 0.0000000000000000e+00  2.4311291800721855e+00 1.1799455504246896e-01 0.0000000000000000e+00  2.4223656950877555e+00 4.5726857336858756e-01 0.0000000000000000e+00  2.4412307323947524e+00 6.5928752702119087e-01 0.0000000000000000e+00  2.4313452244893181e+00 7.1936039578462430e-01 0.0000000000000000e+00  2.4254855597412139e+00 1.0125309008310217e+00 0.0000000000000000e+00  2.4325249428904736e+00 1.2962316392570283e+00 0.0000000000000000e+00  2.4403401065341246e+00 1.3540436157784987e+00 0.0000000000000000e+00  2.4210855409900884e+00 1.5569595738509943e+00 0.0000000000000000e+00  2.4323316338404362e+00 1.9160272105820535e+00 0.0000000000000000e+00  2.4366511715463695e+00 2.0009984404876020e+00 0.0000000000000000e+00  2.4295008495539943e+00 2.1300587463977019e+00 0.0000000000000000e+00  2.4218343441335199e+00 2.4856332912833796e+00 0.0000000000000000e+00  2.4416171212786772e+00 2.6805161979843937e+00 0.0000000000000000e+00  2.4278464458213702e+00 2.6933543996483347e+00 0.0000000000000000e+00  2.4255230714099612e+00 3.0676869137707174e+00 0.0000000000000000e+00  2.4312108727100847e+00 3.3065780270222724e+00 0.0000000000000000e+00  2.4391747818593204e+00 3.3480140848092339e+00 0.0000000000000000e+00  2.4171675517592943e+00 3.5638405362513175e+00 0.0000000000000000e+00  2.4340122050650215e+00 4.0027562804887795e+00 0.0000000000000000e+00  2.4322808275127938e+00 3.9271932181702636e+00 0.0000000000000000e+00  2.4290925703334096e+00 4.1726627692303575e+00 0.0000000000000000e+00  2.4180219926462554e+00 4.5190103119732967e+00 0.0000000000000000e+00  2.4428246389974602e+00 4.6989645820210608e+00 0.0000000000000000e+00  2.4208989281529294e+00 4.5968113289633727e+00 0.0000000000000000e+00  2.4267920175376787e+00 5.2213358994692509e+00 0.0000000000000000e+00  2.4247848710247020e+00 5.2434340640063546e+00 0.0000000000000000e+00  2.4396416433078607e+00 5.3296248599391225e+00 0.0000000000000000e+00  2.4103685007803795e+00 5.5708007628416345e+00 0.0000000000000000e+00  2.4348218289578005e+00 6.1154251079733308e+00 0.0000000000000000e+00  2.4249891145505820e+00 5.7522876637154967e+00 0.0000000000000000e+00  2.4296250225798390e+00 6.2640383076537107e+00 0.0000000000000000e+00  2.4114473611453131e+00 6.5780742857293815e+00 0.0000000000000000e+00  2.4391314026984712e+00 6.6144495527122915e+00 0.0000000000000000e+00  2.4192004093143074e+00 6.5735291929883877e+00 0.0000000000000000e+00  2.4209861044520169e+00 7.3054320990532737e+00 0.0000000000000000e+00  2.4214604281835714e+00 7.2519006933179870e+00 0.0000000000000000e+00  2.4308044741834882e+00 7.1165786428752016e+00 0.0000000000000000e+00  2.4184768820907272e+00 7.8574145356023415e+00 0.0000000000000000e+00  2.4106628198269573e+00 7.8474503413477432e+00 0.0000000000000000e+00  2.4374484959044662e+00 7.9646473868931098e+00 0.0000000000000000e+00  2.4086250731555929e+00 7.8802869308463013e+00 0.0000000000000000e+00  2.4288670985169403e+00 9.1143310333940448e+00 0.0000000000000000e+00  2.3937273604627562e+00 7.8818367913695946e+00 0.0000000000000000e+00  2.4616363481448338e+00 9.2938111662989389e+00 0.0000000000000000e+00  2.3707709662253023e+00 8.4506563252584801e+00 0.0000000000000000e+00  2.4514071121172689e+00 1.0125519712107605e+01 0.0000000000000000e+00  2.3745842693295618e+00 8.0124014038405313e+00 0.0000000000000000e+00  2.4819255639200368e+00 1.0947693419489580e+01 0.0000000000000000e+00  2.3247933753169878e+00 8.5041240651723911e+00 0.0000000000000000e+00  2.4904910738736148e+00 1.1274824685643273e+01 0.0000000000000000e+00  2.3479079257435993e+00 8.4046780297917163e+00 0.0000000000000000e+00  2.4814747035171560e+00 1.2208531271682133e+01 0.0000000000000000e+00  2.3008450655539607e+00 8.5873111395870936e+00 0.0000000000000000e+00  2.5200782384560023e+00 1.2418464053018431e+01 0.0000000000000000e+00  2.3130914945425602e+00 8.9103186872892284e+00 0.0000000000000000e+00  2.4610262665332998e+00 1.2811902528388364e+01 0.0000000000000000e+00  2.3183541345323375e+00 9.3568617745769593e+00 0.0000000000000000e+00  2.4894355949614049e+00 1.2677151020437201e+01 0.0000000000000000e+00  2.3064519495445639e+00 9.9832419761354085e+00 0.0000000000000000e+00  2.4148854037534875e+00 1.2632727915167798e+01 0.0000000000000000e+00  2.3677134376385194e+00 1.0851674575830630e+01 0.0000000000000000e+00  2.3844184555073644e+00 1.1646940507671058e+01 0.0000000000000000e+00  2.3622174951934141e+00 1.2154234960911927e+01 0.0000000000000000e+00  2.3150137047633659e+00 1.1252945898900684e+01 0.0000000000000000e+00  2.4418057719930828e+00 1.2984032312618337e+01 0.0000000000000000e+00  2.2395624268928342e+00 9.8614134623254213e+00 0.0000000000000000e+00  2.4578598789693356e+00 1.4926165111110633e+01 0.0000000000000000e+00  2.1708950953535102e+00 8.9483021721783000e+00 0.0000000000000000e+00  2.5306882560958055e+00 1.5499529019322582e+01 0.0000000000000000e+00  2.1027917492818711e+00 8.2263058152507309e+00 0.0000000000000000e+00  2.5262725649468512e+00 1.7035806113006277e+01 0.0000000000000000e+00  2.0576492481982696e+00 7.2420297206877500e+00 0.0000000000000000e+00  2.5786046571594539e+00 1.7252573292828870e+01 0.0000000000000000e+00  2.0264708434299878e+00 7.7714018673121856e+00 0.0000000000000000e+00  2.5048661070449234e+00 1.7334392635653924e+01 0.0000000000000000e+00  2.0585266431508096e+00 7.8642651391708647e+00 0.0000000000000000e+00  2.5040950971951621e+00 1.6677475963997651e+01 0.0000000000000000e+00  2.0638590912239598e+00 9.5302882008231435e+00 0.0000000000000000e+00  2.3677727755248115e+00 1.5320258093097083e+01 0.0000000000000000e+00  2.1948781078429893e+00 1.1205728712463232e+01 0.0000000000000000e+00  2.2853599286498802e+00 1.3354364520127859e+01 0.0000000000000000e+00  2.2211994534109931e+00 1.3585774134907213e+01 0.0000000000000000e+00  2.1516962435015512e+00 1.1610443946120437e+01 0.0000000000000000e+00  2.3858034146396112e+00 1.5629498646587324e+01 0.0000000000000000e+00  2.0241932563450495e+00 9.2887019626115670e+00 0.0000000000000000e+00  2.4002957662232696e+00 1.7820591743812525e+01 0.0000000000000000e+00  1.9630414854922609e+00 8.1869425550158397e+00 0.0000000000000000e+00  2.4880814907378888e+00 1.8483547391437490e+01 0.0000000000000000e+00  1.8859614645439933e+00 7.9068427050597707e+00 0.0000000000000000e+00  2.4412919365792316e+00 1.8898230168037255e+01 0.0000000000000000e+00  1.9432310821888805e+00 7.9989575953270649e+00 0.0000000000000000e+00  2.3881993251473181e+00 1.8067743259574815e+01 0.0000000000000000e+00  1.9411556218706369e+00 9.9932048990126212e+00 0.0000000000000000e+00  2.3173321593407188e+00 1.6043574662726073e+01 0.0000000000000000e+00  2.0957343347227795e+00 1.2627772297327919e+01 0.0000000000000000e+00  2.0846362261495166e+00 1.3753220620483601e+01 0.0000000000000000e+00  2.2119822585989453e+00 1.4157104737984410e+01 0.0000000000000000e+00  2.0194292545725232e+00 1.2833679860363899e+01 0.0000000000000000e+00  2.2433688086403087e+00 1.5910942829311871e+01 0.0000000000000000e+00  1.8957463380066217e+00 9.9500543575091367e+00 0.0000000000000000e+00  2.3730749580712951e+00 1.9009688889001108e+01 0.0000000000000000e+00  1.8783281901874045e+00 9.6554097758632143e+00 0.0000000000000000e+00  2.2253986775532004e+00 1.6504118476469191e+01 0.0000000000000000e+00  2.0406842118279012e+00 1.2904448685594694e+01 0.0000000000000000e+00  2.1833990096864424e+00 1.5562852355508133e+01 0.0000000000000000e+00  1.9722849449813007e+00 1.1589777304287567e+01 0.0000000000000000e+00  2.1658142573760406e+00 1.5287451998090631e+01 0.0000000000000000e+00  2.1878524004793527e+00 1.5868161617872003e+01 0.0000000000000000e+00  1.8299599226912022e+00 8.6568377373286296e+00 0.0000000000000000e+00  2.3949932954047957e+00 1.9949464204543681e+01 0.0000000000000000e+00  1.8674896585675647e+00 9.5415533388797318e+00 0.0000000000000000e+00  2.2352026554864124e+00 1.6944017784929219e+01 0.0000000000000000e+00  1.8909703618145968e+00 1.0118324865468562e+01 0.0000000000000000e+00  2.4265637338150343e+00 2.0590987752400036e+01 0.0000000000000000e+00  1.6920036975272696e+00 6.0576394928249284e+00 0.0000000000000000e+00  2.3468127701403971e+00 1.9076063325808406e+01 0.0000000000000000e+00  2.0827147890181008e+00 1.3882070241269762e+01 0.0000000000000000e+00  1.9377849114089190e+00 1.1229928752294777e+01 0.0000000000000000e+00  2.1679142061164920e+00 1.5694550698662534e+01 0.0000000000000000e+00  2.1210830621946744e+00 1.4932645468358732e+01 0.0000000000000000e+00  2.1021100494366238e+00 1.4537927793332315e+01 0.0000000000000000e+00  1.7698477835298378e+00 7.7442372877143333e+00 0.0000000000000000e+00  2.6516735296043010e+00 2.5036755133814996e+01 0.0000000000000000e+00  1.5446212681603162e+00 3.3013087823647465e+00 0.0000000000000000e+00  2.3267886487456959e+00 1.9015877049642398e+01 0.0000000000000000e+00  1.9703424028734757e+00 1.2394881949545836e+01 0.0000000000000000e+00  2.3562962555677394e+00 1.9540252582000726e+01 0.0000000000000000e+00  1.4886455901802182e+00 2.5231989604848986e+00 0.0000000000000000e+00  2.6221691568478676e+00 2.4534724995097680e+01 0.0000000000000000e+00  1.9223600942783958e+00 1.1057029596624355e+01 0.0000000000000000e+00  1.8399950882360299e+00 9.8746649790774583e+00 0.0000000000000000e+00  2.2158892082794606e+00 1.7118651895653215e+01 0.0000000000000000e+00  2.2259218323263714e+00 1.7519248482202169e+01 0.0000000000000000e+00  1.8375582111322541e+00 9.9317536430475446e+00 0.0000000000000000e+00  1.8535762815870240e+00 9.6625081608863645e+00 0.0000000000000000e+00  2.7435954528984148e+00 2.7182500360007207e+01 0.0000000000000000e+00  1.3731456758371907e+00 2.9939323107912225e-01 0.0000000000000000e+00  2.3198191680110551e+00 1.9378938738491058e+01 0.0000000000000000e+00  1.9659131550519466e+00 1.3232079932955255e+01 0.0000000000000000e+00  2.4821079161326804e+00 2.2050192986537184e+01 0.0000000000000000e+00  1.1254776614248103e+00 -4.3159759715131116e+00 0.0000000000000000e+00  2.9331906862853203e+00 3.0305635071240399e+01 0.0000000000000000e+00  1.7234748124957080e+00 7.5078905394579944e+00 0.0000000000000000e+00  1.9150114714100095e+00 1.2584408201170987e+01 0.0000000000000000e+00  1.9400173706341588e+00 1.2197823698335965e+01 0.0000000000000000e+00  2.5706801731314903e+00 2.4319738553629165e+01 0.0000000000000000e+00  1.5963275892828239e+00 5.7228215927594404e+00 0.0000000000000000e+00  1.8210773839344461e+00 8.7748075961523853e+00 0.0000000000000000e+00  2.8104308292602771e+00 2.8929021798261846e+01 0.0000000000000000e+00  1.4321929507253268e+00 2.3600858070566360e+00 0.0000000000000000e+00  2.0767455962023535e+00 1.5070447900705075e+01 0.0000000000000000e+00  1.9519249028790229e+00 1.3981871011311966e+01 0.0000000000000000e+00  2.7091612149007562e+00 2.6100401059499777e+01 0.0000000000000000e+00  9.1182351172905030e-01 -8.4160995606157449e+00 0.0000000000000000e+00  2.7276085996397206e+00 2.7256319288587576e+01 0.0000000000000000e+00  2.0579016447660052e+00 1.4660462658436565e+01 0.0000000000000000e+00  1.8751758311548599e+00 1.2030385362997958e+01 0.0000000000000000e+00  1.5423245704192092e+00 5.2909068170165252e+00 0.0000000000000000e+00  2.8118660009569418e+00 2.8725112961837834e+01 0.0000000000000000e+00  1.8084758212219130e+00 1.0131769451943871e+01 0.0000000000000000e+00  1.3690965372346959e+00 1.1166146447250418e+00 0.0000000000000000e+00  2.6944246890843897e+00 2.6705893733566057e+01 0.0000000000000000e+00  1.9301153833704445e+00 1.4002757982247632e+01 0.0000000000000000e+00  1.7638330533025808e+00 9.7502962709485459e+00 0.0000000000000000e+00  1.5560389245416799e+00 4.9018923500944647e+00 0.0000000000000000e+00  3.0573897481296552e+00 3.4068084368849291e+01 0.0000000000000000e+00  1.3816626739404039e+00 6.9207141382145496e-02 0.0000000000000000e+00  1.7359059376989929e+00 9.0039665791373658e+00 0.0000000000000000e+00  2.5074549013531473e+00 2.5035909269857864e+01 0.0000000000000000e+00  2.0877219437263022e+00 1.5947387078364132e+01 0.0000000000000000e+00  1.4999028604691522e+00 6.4537863112592211e+00 0.0000000000000000e+00  1.6526990399746206e+00 5.9209195158048713e+00 0.0000000000000000e+00  3.2500490895654486e+00 3.6492608864227051e+01 0.0000000000000000e+00  2.3162380284815374e+00 -3.4616770569557850e+01 0.0000000000000000e+00  3.4652180585525079e+00 9.5065440941666193e+00 0.0000000000000000e+00  2.1926218441014020e+00 3.2281228259644585e+01 0.0000000000000000e+00  1.8280005328814570e+00 -1.7427773843935988e+01 0.0000000000000000e+00  4.0594444169252952e+00 9.1171104630538959e+00 0.0000000000000000e+00  2.2828927191641197e+00 1.0242510943846765e+01 0.0000000000000000e+00  2.6974965106514941e+00 -3.9333282521655955e+00 0.0000000000000000e+00  3.7480248063917503e+00 -1.0006428446715937e+01 0.0000000000000000e+00  1.9819012931613591e+00 2.5244308336073114e+01 0.0000000000000000e+00  2.8263880777013481e+00 -2.3316581773570277e+01 0.0000000000000000e+00  4.0300516152743642e+00 -1.3288465913993733e+01 0.0000000000000000e+00  2.4611555312486075e+00 3.2084056055111404e+01 0.0000000000000000e+00  2.1896778465131397e+00 -2.1028861131588574e+01 0.0000000000000000e+00  4.1339590983308661e+00 1.2120815648768613e+01 0.0000000000000000e+00  2.0793585843375637e+00 1.0256348433297413e+01 0.0000000000000000e+00  1.9160176715100117e+00 -1.0483431681922330e+01 0.0000000000000000e+00  4.3206009212123124e+00 -3.4831449309817195e+00 0.0000000000000000e+00  2.8236277691767215e+00 4.7227846469521957e+00 0.0000000000000000e+00  1.9332515773229360e+00 -2.0199964404026030e+01 0.0000000000000000e+00  3.4110808427181492e+00 2.3890796989289019e+01 0.0000000000000000e+00  2.4468143602714276e+00 5.7448982589827295e+00 0.0000000000000000e+00  3.0760434597504971e+00 -1.4818840653284148e+01 0.0000000000000000e+00  3.7310844234588108e+00 2.2181940164623299e+01 0.0000000000000000e+00  7.3673007238019694e-01 -1.9642200249707069e+00 0.0000000000000000e+00  3.1331941442281273e+00 -1.7497990920282497e+01 0.0000000000000000e+00  3.7466783851052825e+00 8.0425445524650527e+00 0.0000000000000000e+00  2.1679103996413369e+00 0.0000000000000000e+00 0.0000000000000000e+00  </DataArray> 
</PointData> 
</Piece>
</UnstructuredGrid>
</VTKFile>