<?xml version="1.0"?>
<VTKFile type="UnstructuredGrid"  version="0.1"  >
<UnstructuredGrid>
<Piece  NumberOfPoints="201" NumberOfCells="200">
<Points>
<DataArray  type="Float64"  NumberOfComponents="3"  format="ascii">-5 0 0  -4.95 0 0  -4.9 0 0  -4.85 0 0  -4.8 0 0  -4.75 0 0  -4.7 0 0  -4.65 0 0  -4.6 0 0  -4.55 0 0  -4.5 0 0  -4.45 0 0  -4.4 0 0  -4.35 0 0  -4.3 0 0  -4.25 0 0  -4.2 0 0  -4.15 0 0  -4.1 0 0  -4.05 0 0  -4 0 0  -3.95 0 0  -3.9 0 0  -3.85 0 0  -3.8 0 0  -3.75 0 0  -3.7 0 0  -3.65 0 0  -3.6 0 0  -3.55 0 0  -3.5 0 0  -3.45 0 0  -3.4 0 0  -3.35 0 0  -3.3 0 0  -3.25 0 0  -3.2 0 0  -3.15 0 0  -3.1 0 0  -3.05 0 0  -3 0 0  -2.95 0 0  -2.9 0 0  -2.85 0 0  -2.8 0 0  -2.75 0 0  -2.7 0 0  -2.65 0 0  -2.6 0 0  -2.55 0 0  -2.5 0 0  -2.45 0 0  -2.4 0 0  -2.35 0 0  -2.3 0 0  -2.25 0 0  -2.2 0 0  -2.15 0 0  -2.1 0 0  -2.05 0 0  -2 0 0  -1.95 0 0  -1.9 0 0  -1.85 0 0  -1.8 0 0  -1.75 0 0  -1.7 0 0  -1.65 0 0  -1.6 0 0  -1.55 0 0  -1.5 0 0  -1.45 0 0  -1.4 0 0  -1.35 0 0  -1.3 0 0  -1.25 0 0  -1.2 0 0  -1.15 0 0  -1.1 0 0  -1.05 0 0  -1 0 0  -0.9500000000000002 0 0  -0.9000000000000004 0 0  -0.8499999999999996 0 0  -0.7999999999999998 0 0  -0.75 0 0  -0.7000000000000002 0 0  -0.6500000000000004 0 0  -0.5999999999999996 0 0  -0.5499999999999998 0 0  -0.5 0 0  -0.4500000000000002 0 0  -0.4000000000000004 0 0  -0.3499999999999996 0 0  -0.2999999999999998 0 0  -0.25 0 0  -0.2000000000000002 0 0  -0.1500000000000004 0 0  -0.09999999999999964 0 0  -0.04999999999999982 0 0  0 0 0  0.04999999999999982 0 0  0.09999999999999964 0 0  0.1500000000000004 0 0  0.2000000000000002 0 0  0.25 0 0  0.2999999999999998 0 0  0.3499999999999996 0 0  0.4000000000000004 0 0  0.4500000000000002 0 0  0.5 0 0  0.5499999999999998 0 0  0.5999999999999996 0 0  0.6500000000000004 0 0  0.7000000000000002 0 0  0.75 0 0  0.7999999999999998 0 0  0.8499999999999996 0 0  0.9000000000000004 0 0  0.9500000000000002 0 0  1 0 0  1.05 0 0  1.1 0 0  1.15 0 0  1.2 0 0  1.25 0 0  1.3 0 0  1.35 0 0  1.4 0 0  1.45 0 0  1.5 0 0  1.55 0 0  1.6 0 0  1.65 0 0  1.7 0 0  1.75 0 0  1.8 0 0  1.85 0 0  1.9 0 0  1.95 0 0  2 0 0  2.05 0 0  2.1 0 0  2.15 0 0  2.2 0 0  2.25 0 0  2.3 0 0  2.35 0 0  2.4 0 0  2.45 0 0  2.5 0 0  2.55 0 0  2.6 0 0  2.65 0 0  2.7 0 0  2.75 0 0  2.8 0 0  2.85 0 0  2.9 0 0  2.95 0 0  3 0 0  3.050000000000001 0 0  3.1 0 0  3.15 0 0  3.199999999999999 0 0  3.25 0 0  3.300000000000001 0 0  3.35 0 0  3.4 0 0  3.449999999999999 0 0  3.5 0 0  3.550000000000001 0 0  3.6 0 0  3.65 0 0  3.699999999999999 0 0  3.75 0 0  3.800000000000001 0 0  3.85 0 0  3.9 0 0  3.949999999999999 0 0  4 0 0  4.050000000000001 0 0  4.1 0 0  4.15 0 0  4.199999999999999 0 0  4.25 0 0  4.300000000000001 0 0  4.35 0 0  4.4 0 0  4.449999999999999 0 0  4.5 0 0  4.550000000000001 0 0  4.6 0 0  4.65 0 0  4.699999999999999 0 0  4.75 0 0  4.800000000000001 0 0  4.85 0 0  4.9 0 0  4.949999999999999 0 0  5 0 0  </DataArray>
</Points>
<Cells>
<DataArray  type="UInt32"  Name="connectivity"  format="ascii">0 1  1 2  2 3  3 4  4 5  5 6  6 7  7 8  8 9  9 10  10 11  11 12  12 13  13 14  14 15  15 16  16 17  17 18  18 19  19 20  20 21  21 22  22 23  23 24  24 25  25 26  26 27  27 28  28 29  29 30  30 31  31 32  32 33  33 34  34 35  35 36  36 37  37 38  38 39  39 40  40 41  41 42  42 43  43 44  44 45  45 46  46 47  47 48  48 49  49 50  50 51  51 52  52 53  53 54  54 55  55 56  56 57  57 58  58 59  59 60  60 61  61 62  62 63  63 64  64 65  65 66  66 67  67 68  68 69  69 70  70 71  71 72  72 73  73 74  74 75  75 76  76 77  77 78  78 79  79 80  80 81  81 82  82 83  83 84  84 85  85 86  86 87  87 88  88 89  89 90  90 91  91 92  92 93  93 94  94 95  95 96  96 97  97 98  98 99  99 100  100 101  101 102  102 103  103 104  104 105  105 106  106 107  107 108  108 109  109 110  110 111  111 112  112 113  113 114  114 115  115 116  116 117  117 118  118 119  119 120  120 121  121 122  122 123  123 124  124 125  125 126  126 127  127 128  128 129  129 130  130 131  131 132  132 133  133 134  134 135  135 136  136 137  137 138  138 139  139 140  140 141  141 142  142 143  143 144  144 145  145 146  146 147  147 148  148 149  149 150  150 151  151 152  152 153  153 154  154 155  155 156  156 157  157 158  158 159  159 160  160 161  161 162  162 163  163 164  164 165  165 166  166 167  167 168  168 169  169 170  170 171  171 172  172 173  173 174  174 175  175 176  176 177  177 178  178 179  179 180  180 181  181 182  182 183  183 184  184 185  185 186  186 187  187 188  188 189  189 190  190 191  191 192  192 193  193 194  194 195  195 196  196 197  197 198  198 199  199 200  </DataArray>
<DataArray  type="UInt32"  Name="offsets"  format="ascii">2 4 6 8 10 12 14 16 18 20 22 24 26 28 30 32 34 36 38 40 42 44 46 48 50 52 54 56 58 60 62 64 66 68 70 72 74 76 78 80 82 84 86 88 90 92 94 96 98 100 102 104 106 108 110 112 114 116 118 120 122 124 126 128 130 132 134 136 138 140 142 144 146 148 150 152 154 156 158 160 162 164 166 168 170 172 174 176 178 180 182 184 186 188 190 192 194 196 198 200 202 204 206 208 210 212 214 216 218 220 222 224 226 228 230 232 234 236 238 240 242 244 246 248 250 252 254 256 258 260 262 264 266 268 270 272 274 276 278 280 282 284 286 288 290 292 294 296 298 300 302 304 306 308 310 312 314 316 318 320 322 324 326 328 330 332 334 336 338 340 342 344 346 348 350 352 354 356 358 360 362 364 366 368 370 372 374 376 378 380 382 384 386 388 390 392 394 396 398 400 </DataArray>
<DataArray  type="UInt8"  Name="types"  format="ascii">3 3 3 3 3 3 3 3 3 3 3 3 3 3 3 3 3 3 3 3 3 3 3 3 3 3 3 3 3 3 3 3 3 3 3 3 3 3 3 3 3 3 3 3 3 3 3 3 3 3 3 3 3 3 3 3 3 3 3 3 3 3 3 3 3 3 3 3 3 3 3 3 3 3 3 3 3 3 3 3 3 3 3 3 3 3 3 3 3 3 3 3 3 3 3 3 3 3 3 3 3 3 3 3 3 3 3 3 3 3 3 3 3 3 3 3 3 3 3 3 3 3 3 3 3 3 3 3 3 3 3 3 3 3 3 3 3 3 3 3 3 3 3 3 3 3 3 3 3 3 3 3 3 3 3 3 3 3 3 3 3 3 3 3 3 3 3 3 3 3 3 3 3 3 3 3 3 3 3 3 3 3 3 3 3 3 3 3 3 3 3 3 3 3 3 3 3 3 3 3 </DataArray>
</Cells>
<PointData  Vectors="(s, w)"> 
<DataArray  type="Float64"  Name="(s, w)"  NumberOfComponents="3" format="ascii">2.1521923796332256e+00 0.0000000000000000e+00 0.0000000000000000e+00  2.1591691019586379e+00 1.4089940565308590e-01 0.0000000000000000e+00  2.1521562405460686e+00 2.8480751719315545e-01 0.0000000000000000e+00  2.1591260148588085e+00 4.2266686284092864e-01 0.0000000000000000e+00  2.1520476619221340e+00 5.6960039612127777e-01 0.0000000000000000e+00  2.1590399919248902e+00 7.0434065907922605e-01 0.0000000000000000e+00  2.1518661862032409e+00 8.5436292765622013e-01 0.0000000000000000e+00  2.1589112816279967e+00 9.8585981042145587e-01 0.0000000000000000e+00  2.1516111416478063e+00 1.1390770218178514e+00 0.0000000000000000e+00  2.1587401167283051e+00 1.2671659273495897e+00 0.0000000000000000e+00  2.1512817865013942e+00 1.4237204319198418e+00 0.0000000000000000e+00  2.1585265341403850e+00 1.5482050462910530e+00 0.0000000000000000e+00  2.1508775243741134e+00 1.7082643180891932e+00 0.0000000000000000e+00  2.1582701182548822e+00 1.8289301835533371e+00 0.0000000000000000e+00  2.1503981988920233e+00 1.9926700202363534e+00 0.0000000000000000e+00  2.1579696616179729e+00 2.1093046853450677e+00 0.0000000000000000e+00  2.1498444696831402e+00 2.2768850249668344e+00 0.0000000000000000e+00  2.1576227459814006e+00 2.3893063008212563e+00 0.0000000000000000e+00  2.1492182590790225e+00 2.5608382905574403e+00 0.0000000000000000e+00  2.1572252631971454e+00 2.6689316882384482e+00 0.0000000000000000e+00  2.1485232384207986e+00 2.8444353467015566e+00 0.0000000000000000e+00  2.1567709198538068e+00 2.9482007777676267e+00 0.0000000000000000e+00  2.1477652946988317e+00 3.1275539021168592e+00 0.0000000000000000e+00  2.1562508008089596e+00 3.2271600810667382e+00 0.0000000000000000e+00  2.1469528848493087e+00 3.4100410373229808e+00 0.0000000000000000e+00  2.1556531009773621e+00 3.5058837117967832e+00 0.0000000000000000e+00  2.1460971520707535e+00 3.6917133607689849e+00 0.0000000000000000e+00  2.1549631643866571e+00 3.7844706541598923e+00 0.0000000000000000e+00  2.1452116555739038e+00 3.9723616551852436e+00 0.0000000000000000e+00  2.1541639832568484e+00 4.0630368122835439e+00 0.0000000000000000e+00  2.1443115653267779e+00 4.2517614000399426e+00 0.0000000000000000e+00  2.1532372934849628e+00 4.3417007297858694e+00 0.0000000000000000e+00  2.1434122112800411e+00 4.5296899852394823e+00 0.0000000000000000e+00  2.1521653421536859e+00 4.6205627006103915e+00 0.0000000000000000e+00  2.1425269645448424e+00 4.8059503346719143e+00 0.0000000000000000e+00  2.1509332881245449e+00 4.8996783358832001e+00 0.0000000000000000e+00  2.1416645699872050e+00 5.0803990478636250e+00 0.0000000000000000e+00  2.1495320305278103e+00 5.1790294041969345e+00 0.0000000000000000e+00  2.1408262343567026e+00 5.3529752321595634e+00 0.0000000000000000e+00  2.1479610625696619e+00 5.4584966322278436e+00 0.0000000000000000e+00  2.1400029690725106e+00 5.6237243466193432e+00 0.0000000000000000e+00  2.1462307629670176e+00 5.7378406478625550e+00 0.0000000000000000e+00  2.1391738377679119e+00 5.8928102298387994e+00 0.0000000000000000e+00  2.1443634289326146e+00 6.0166977382928764e+00 0.0000000000000000e+00  2.1383057962995040e+00 6.1605087499103899e+00 0.0000000000000000e+00  2.1423923964965237e+00 6.2945959580549671e+00 0.0000000000000000e+00  2.1373556705291796e+00 6.4271787773486180e+00 0.0000000000000000e+00  2.1403588449734712e+00 6.5709939737350007e+00 0.0000000000000000e+00  2.1362744582219837e+00 6.6932105829558139e+00 0.0000000000000000e+00  2.1383063543609353e+00 6.8453400038195173e+00 0.0000000000000000e+00  2.1350135903083491e+00 6.9589577122927686e+00 0.0000000000000000e+00  2.1362739107666417e+00 7.1171421742840923e+00 0.0000000000000000e+00  2.1335321514256744e+00 7.2246644457148967e+00 0.0000000000000000e+00  2.1342886773967371e+00 7.3860362126666663e+00 0.0000000000000000e+00  2.1318035290897046e+00 7.4904050423581348e+00 0.0000000000000000e+00  2.1323602411471247e+00 7.6518337771324143e+00 0.0000000000000000e+00  2.1298197633363518e+00 7.7560510023245532e+00 0.0000000000000000e+00  2.1304779843250579e+00 7.9145367651451872e+00 0.0000000000000000e+00  2.1275921877144492e+00 8.0212773830236817e+00 0.0000000000000000e+00  2.1286126026366059e+00 8.1743103477315024e+00 0.0000000000000000e+00  2.1251478213790698e+00 8.2856093609880119e+00 0.0000000000000000e+00  2.1267216857670661e+00 8.4314188259943812e+00 0.0000000000000000e+00  2.1225221956849580e+00 8.5484984262516832e+00 0.0000000000000000e+00  2.1247580232392718e+00 8.6861401121302819e+00 0.0000000000000000e+00  2.1197504652998456e+00 8.8094080126822281e+00 0.0000000000000000e+00  2.1226783722117384e+00 8.9386820151487818e+00 0.0000000000000000e+00  2.1168592750361417e+00 9.0678850886063938e+00 0.0000000000000000e+00  2.1204502504493505e+00 9.1891229346631498e+00 0.0000000000000000e+00  2.1138616009466635e+00 9.3235992079198589e+00 0.0000000000000000e+00  2.1180550348211007e+00 9.4373906666681755e+00 0.0000000000000000e+00  2.1107557012109366e+00 9.5763421642497093e+00 0.0000000000000000e+00  2.1154869685616084e+00 9.6832795252806267e+00 0.0000000000000000e+00  2.1075278697077766e+00 9.8259947084579107e+00 0.0000000000000000e+00  2.1127490249982710e+00 9.9264938765311275e+00 0.0000000000000000e+00  2.1041576401655639e+00 1.0072475110562479e+01 0.0000000000000000e+00  2.1098473697377305e+00 1.0166700447172490e+01 0.0000000000000000e+00  2.1006238642809589e+00 1.0315684777317550e+01 0.0000000000000000e+00  2.1067856937182512e+00 1.0403577567621616e+01 0.0000000000000000e+00  2.0969100057981280e+00 1.0555465193058055e+01 0.0000000000000000e+00  2.1035592973010395e+00 1.0636862212883418e+01 0.0000000000000000e+00  2.0930088083174856e+00 1.0791564143109731e+01 0.0000000000000000e+00  2.1001517622572008e+00 1.0866372103714184e+01 0.0000000000000000e+00  2.0889342381401010e+00 1.1023548828912720e+01 0.0000000000000000e+00  2.0965396983874158e+00 1.1091963084241128e+01 0.0000000000000000e+00  2.0847298296121357e+00 1.1250757510842721e+01 0.0000000000000000e+00  2.0926254687408661e+00 1.1314044671721145e+01 0.0000000000000000e+00  2.0803611704705807e+00 1.1473129490285466e+01 0.0000000000000000e+00  2.0882698092821066e+00 1.1533279221248902e+01 0.0000000000000000e+00  2.0764548727682013e+00 1.1685665611435464e+01 0.0000000000000000e+00  2.0840087382991941e+00 1.1745300946897405e+01 0.0000000000000000e+00  2.0722552858044700e+00 1.1893809859593420e+01 0.0000000000000000e+00  2.0759363536877546e+00 1.1978160430310449e+01 0.0000000000000000e+00  2.0698986239467452e+00 1.2081654396128421e+01 0.0000000000000000e+00  2.0774961920797295e+00 1.2134619966275912e+01 0.0000000000000000e+00  2.0664953787430917e+00 1.2270555398825561e+01 0.0000000000000000e+00  2.0513258245049517e+00 1.2477727834366823e+01 0.0000000000000000e+00  2.0666268781760642e+00 1.2426686849630979e+01 0.0000000000000000e+00  2.0792921831626257e+00 1.2438326430601794e+01 0.0000000000000000e+00  2.0101824323689099e+00 1.2955150031975149e+01 0.0000000000000000e+00  2.0716755174789490e+00 1.2634663374889625e+01 0.0000000000000000e+00  2.0380843029306908e+00 1.2916210615827149e+01 0.0000000000000000e+00  2.0471129368175869e+00 1.2935811983518779e+01 0.0000000000000000e+00  2.0414553092531293e+00 1.3029241413141570e+01 0.0000000000000000e+00  2.0389706016756417e+00 1.3119033172426780e+01 0.0000000000000000e+00  2.0348657983725489e+00 1.3198108697487960e+01 0.0000000000000000e+00  2.0320881191721742e+00 1.3285192807206688e+01 0.0000000000000000e+00  2.0277421368786190e+00 1.3361366675421609e+01 0.0000000000000000e+00  2.0250850169394483e+00 1.3443086862339083e+01 0.0000000000000000e+00  2.0204177124956515e+00 1.3516767241550376e+01 0.0000000000000000e+00  2.0175771786120693e+00 1.3594922862453938e+01 0.0000000000000000e+00  2.0130748808878249e+00 1.3663152931535489e+01 0.0000000000000000e+00  2.0095838037309779e+00 1.3740441011469205e+01 0.0000000000000000e+00  2.0054251702612791e+00 1.3802204606918288e+01 0.0000000000000000e+00  2.0015232281372084e+00 1.3877187334858746e+01 0.0000000000000000e+00  1.9971839977589805e+00 1.3935513567804273e+01 0.0000000000000000e+00  1.9933476063350408e+00 1.4005530412370597e+01 0.0000000000000000e+00  1.9886927677617370e+00 1.4061190942743512e+01 0.0000000000000000e+00  1.9847218279186452e+00 1.4127428738788520e+01 0.0000000000000000e+00  1.9800426724152240e+00 1.4178886788415079e+01 0.0000000000000000e+00  1.9758372743993700e+00 1.4241992171641810e+01 0.0000000000000000e+00  1.9710314433213010e+00 1.4289875870519921e+01 0.0000000000000000e+00  1.9667463022613292e+00 1.4349169147255981e+01 0.0000000000000000e+00  1.9617934395062935e+00 1.4393719244082336e+01 0.0000000000000000e+00  1.9573647011143520e+00 1.4449647612343702e+01 0.0000000000000000e+00  1.9523313864689675e+00 1.4490747440845045e+01 0.0000000000000000e+00  1.9477869647018755e+00 1.4543236511236342e+01 0.0000000000000000e+00  1.9426524727205148e+00 1.4581350116161932e+01 0.0000000000000000e+00  1.9380013929575948e+00 1.4630278240738203e+01 0.0000000000000000e+00  1.9328227415703583e+00 1.4665728199004542e+01 0.0000000000000000e+00  1.9280619670189678e+00 1.4710795355629473e+01 0.0000000000000000e+00  1.9228823460220548e+00 1.4744300205762912e+01 0.0000000000000000e+00  1.9180244381425209e+00 1.4784809971818584e+01 0.0000000000000000e+00  1.9129664607987880e+00 1.4817130757768361e+01 0.0000000000000000e+00  1.9080641662460520e+00 1.4851900773434851e+01 0.0000000000000000e+00  1.9032793347006418e+00 1.4884004307309070e+01 0.0000000000000000e+00  1.8988500811634410e+00 1.4909890633223075e+01 0.0000000000000000e+00  1.8953486743392247e+00 1.4939264467436709e+01 0.0000000000000000e+00  1.8925440846594532e+00 1.4951462594279127e+01 0.0000000000000000e+00  1.8965235952481749e+00 1.4954209324759889e+01 0.0000000000000000e+00  1.9080676394267033e+00 1.4903340961119280e+01 0.0000000000000000e+00  1.9211222482296633e+00 1.4866963428334563e+01 0.0000000000000000e+00  1.9283837681484040e+00 1.4832334304206084e+01 0.0000000000000000e+00  1.9312671628546410e+00 1.4828720683490944e+01 0.0000000000000000e+00  1.9334374883327745e+00 1.4832994333970008e+01 0.0000000000000000e+00  1.9325258293403040e+00 1.4813700505132612e+01 0.0000000000000000e+00  1.9363471336222133e+00 1.4858953062521955e+01 0.0000000000000000e+00  1.9317330526231236e+00 1.4782436908572748e+01 0.0000000000000000e+00  1.9400176575630841e+00 1.4908998296972621e+01 0.0000000000000000e+00  1.9290475925285924e+00 1.4722620272518459e+01 0.0000000000000000e+00  1.9451283749418422e+00 1.4991397343591419e+01 0.0000000000000000e+00  1.9242980122847779e+00 1.4626694680983370e+01 0.0000000000000000e+00  1.9518374541333989e+00 1.5108265002206567e+01 0.0000000000000000e+00  1.9179684459529758e+00 1.4499551060928333e+01 0.0000000000000000e+00  1.9591810204825191e+00 1.5241504628326222e+01 0.0000000000000000e+00  1.9119523361958057e+00 1.4378228928810136e+01 0.0000000000000000e+00  1.9650766949206222e+00 1.5323616337235382e+01 0.0000000000000000e+00  1.9066025324012184e+00 1.4382000804535364e+01 0.0000000000000000e+00  1.9808611673904715e+00 1.5125907628395380e+01 0.0000000000000000e+00  1.8529677552994488e+00 1.4960664111065531e+01 0.0000000000000000e+00  2.2289425787228021e+00 1.3102889569561196e+01 0.0000000000000000e+00  3.1898143661502281e+00 -2.2748694806901995e+00 0.0000000000000000e+00  2.9434542914974329e+00 2.1636145629009698e+00 0.0000000000000000e+00  3.0931153169170544e+00 -7.8163566347355617e-01 0.0000000000000000e+00  3.0475991901513382e+00 1.1631440382348372e-01 0.0000000000000000e+00  3.0363643002926843e+00 3.2092899802269087e-01 0.0000000000000000e+00  3.0787594540043091e+00 -4.6135732205711716e-01 0.0000000000000000e+00  3.0281639117211583e+00 4.9158996762810298e-01 0.0000000000000000e+00  3.0756319471530338e+00 -3.9450087990146954e-01 0.0000000000000000e+00  3.0381027891264329e+00 3.0430713616435967e-01 0.0000000000000000e+00  3.0644607742445427e+00 -1.8039393386831343e-01 0.0000000000000000e+00  3.0484783857123268e+00 1.0603188074444191e-01 0.0000000000000000e+00  3.0564967103709839e+00 -2.8211622803073644e-02 0.0000000000000000e+00  3.0539869622788687e+00 7.6456419737325296e-04 0.0000000000000000e+00  3.0533320460246545e+00 3.2157634373242837e-02 0.0000000000000000e+00  3.0554575993763837e+00 -2.7338726887380940e-02 0.0000000000000000e+00  3.0530779019032850e+00 3.6774720111580179e-02 0.0000000000000000e+00  3.0550760399316967e+00 -2.0127479017615229e-02 0.0000000000000000e+00  3.0537786690342856e+00 2.2999721796291853e-02 0.0000000000000000e+00  3.0543567505805416e+00 -6.5854294472991893e-03 0.0000000000000000e+00  3.0544124865942779e+00 1.0403281062994877e-02 0.0000000000000000e+00  3.0538921422699743e+00 2.0079518445789393e-03 0.0000000000000000e+00  3.0547199906325044e+00 3.9943955440942735e-03 0.0000000000000000e+00  3.0537253068245813e+00 4.8555881582919942e-03 0.0000000000000000e+00  3.0547840659163894e+00 2.1985262892201206e-03 0.0000000000000000e+00  3.0537225856241563e+00 4.5209764139852162e-03 0.0000000000000000e+00  3.0547453327028196e+00 2.3368251664002211e-03 0.0000000000000000e+00  3.0537656435483833e+00 3.2827470950334845e-03 0.0000000000000000e+00  3.0546931533236608e+00 2.7151516055037312e-03 0.0000000000000000e+00  3.0537982378873867e+00 2.2298696809796843e-03 0.0000000000000000e+00  3.0546592862735822e+00 2.7367193587106335e-03 0.0000000000000000e+00  3.0538093671994808e+00 1.5822812635263583e-03 0.0000000000000000e+00  3.0546440669218984e+00 2.4046474984881889e-03 0.0000000000000000e+00  3.0538065273180539e+00 1.2048950286191957e-03 0.0000000000000000e+00  3.0546390117250755e+00 1.8902978344674318e-03 0.0000000000000000e+00  3.0537990284498799e+00 9.2569443249946757e-04 0.0000000000000000e+00  3.0546374351564780e+00 1.3295051886906511e-03 0.0000000000000000e+00  3.0537923204503876e+00 6.4508054027729363e-04 0.0000000000000000e+00  3.0546365228218462e+00 7.8240650480505716e-04 0.0000000000000000e+00  3.0537882487772872e+00 3.3362381215131740e-04 0.0000000000000000e+00  3.0546359113750761e+00 2.5773953956225571e-04 0.0000000000000000e+00  3.0537869347363231e+00 0.0000000000000000e+00 0.0000000000000000e+00  </DataArray> 
</PointData> 
</Piece>
</UnstructuredGrid>
</VTKFile>