<?xml version="1.0"?>
<VTKFile type="UnstructuredGrid"  version="0.1"  >
<UnstructuredGrid>
<Piece  NumberOfPoints="9509" NumberOfCells="18536">
<Points>
<DataArray  type="Float64"  NumberOfComponents="3"  format="ascii">-5 -1 0  5 -1 0  5 1 0  -5 1 0  -4.949999999999965 -1 0  -4.899999999999877 -1 0  -4.849999999999826 -1 0  -4.799999999999754 -1 0  -4.749999999999695 -1 0  -4.69999999999963 -1 0  -4.649999999999565 -1 0  -4.599999999999507 -1 0  -4.549999999999454 -1 0  -4.499999999999384 -1 0  -4.449999999999317 -1 0  -4.399999999999261 -1 0  -4.349999999999206 -1 0  -4.299999999999137 -1 0  -4.249999999999075 -1 0  -4.199999999999013 -1 0  -4.149999999998934 -1 0  -4.09999999999889 -1 0  -4.049999999998847 -1 0  -3.999999999998767 -1 0  -3.949999999998706 -1 0  -3.899999999998644 -1 0  -3.849999999998594 -1 0  -3.799999999998552 -1 0  -3.749999999998549 -1 0  -3.699999999998651 -1 0  -3.649999999998804 -1 0  -3.59999999999894 -1 0  -3.549999999999097 -1 0  -3.499999999999261 -1 0  -3.449999999999394 -1 0  -3.399999999999582 -1 0  -3.349999999999742 -1 0  -3.299999999999902 -1 0  -3.25000000000006 -1 0  -3.200000000000223 -1 0  -3.150000000000369 -1 0  -3.100000000000544 -1 0  -3.050000000000704 -1 0  -3.000000000000864 -1 0  -2.950000000001029 -1 0  -2.900000000001185 -1 0  -2.850000000001347 -1 0  -2.800000000001506 -1 0  -2.750000000001665 -1 0  -2.700000000001827 -1 0  -2.650000000001979 -1 0  -2.600000000002148 -1 0  -2.550000000002311 -1 0  -2.500000000002468 -1 0  -2.450000000002635 -1 0  -2.400000000002789 -1 0  -2.35000000000295 -1 0  -2.30000000000311 -1 0  -2.250000000003253 -1 0  -2.200000000003431 -1 0  -2.150000000003601 -1 0  -2.100000000003752 -1 0  -2.050000000003922 -1 0  -2.000000000004072 -1 0  -1.950000000004237 -1 0  -1.900000000004393 -1 0  -1.850000000004541 -1 0  -1.800000000004714 -1 0  -1.750000000004886 -1 0  -1.700000000005035 -1 0  -1.650000000005206 -1 0  -1.600000000005355 -1 0  -1.550000000005516 -1 0  -1.500000000005676 -1 0  -1.450000000005824 -1 0  -1.400000000005996 -1 0  -1.350000000006146 -1 0  -1.300000000006318 -1 0  -1.250000000006505 -1 0  -1.200000000006638 -1 0  -1.150000000006797 -1 0  -1.100000000006959 -1 0  -1.050000000007106 -1 0  -1.000000000007245 -1 0  -0.9500000000072193 -1 0  -0.9000000000072612 -1 0  -0.8500000000071966 -1 0  -0.8000000000071381 -1 0  -0.750000000007085 -1 0  -0.700000000007015 -1 0  -0.6500000000069521 -1 0  -0.6000000000068919 -1 0  -0.5500000000068104 -1 0  -0.5000000000067688 -1 0  -0.4500000000067104 -1 0  -0.4000000000066457 -1 0  -0.3500000000065757 -1 0  -0.3000000000065226 -1 0  -0.2500000000064961 -1 0  -0.2000000000063995 -1 0  -0.1500000000063775 -1 0  -0.1000000000062764 -1 0  -0.0500000000062597 -1 0  -6.153300091682468e-12 -1 0  0.04999999999390781 -1 0  0.09999999999396891 -1 0  0.14999999999403 -1 0  0.1999999999940929 -1 0  0.2499999999941318 -1 0  0.299999999994216 -1 0  0.349999999994254 -1 0  0.3999999999943391 -1 0  0.4499999999944038 -1 0  0.4999999999944613 -1 0  0.5499999999945429 -1 0  0.5999999999945853 -1 0  0.6499999999946606 -1 0  0.6999999999947084 -1 0  0.7499999999947651 -1 0  0.7999999999948315 -1 0  0.8499999999948926 -1 0  0.8999999999949537 -1 0  0.9499999999950148 -1 0  0.9999999999950768 -1 0  1.049999999995139 -1 0  1.0999999999952 -1 0  1.149999999995266 -1 0  1.199999999995324 -1 0  1.249999999995385 -1 0  1.299999999995446 -1 0  1.349999999995488 -1 0  1.399999999995569 -1 0  1.449999999995604 -1 0  1.499999999995692 -1 0  1.549999999995753 -1 0  1.599999999995816 -1 0  1.649999999995892 -1 0  1.699999999995939 -1 0  1.749999999996017 -1 0  1.799999999996063 -1 0  1.849999999996111 -1 0  1.899999999996185 -1 0  1.949999999996246 -1 0  1.999999999996308 -1 0  2.049999999996351 -1 0  2.099999999996431 -1 0  2.149999999996504 -1 0  2.199999999996555 -1 0  2.249999999996616 -1 0  2.299999999996677 -1 0  2.349999999996736 -1 0  2.3999999999968 -1 0  2.449999999996847 -1 0  2.499999999996923 -1 0  2.549999999997 -1 0  2.599999999997047 -1 0  2.649999999997093 -1 0  2.69999999999717 -1 0  2.749999999997245 -1 0  2.799999999997293 -1 0  2.849999999997344 -1 0  2.899999999997416 -1 0  2.949999999997469 -1 0  2.999999999997539 -1 0  3.049999999997576 -1 0  3.099999999997662 -1 0  3.149999999997725 -1 0  3.199999999997784 -1 0  3.249999999997829 -1 0  3.299999999997908 -1 0  3.349999999997921 -1 0  3.39999999999803 -1 0  3.4499999999981 -1 0  3.499999999998153 -1 0  3.549999999998214 -1 0  3.599999999998277 -1 0  3.649999999998409 -1 0  3.699999999998401 -1 0  3.749999999998444 -1 0  3.799999999998523 -1 0  3.849999999998602 -1 0  3.899999999998645 -1 0  3.949999999998658 -1 0  3.999999999998769 -1 0  4.049999999998814 -1 0  4.099999999998893 -1 0  4.149999999998883 -1 0  4.199999999999015 -1 0  4.249999999999064 -1 0  4.299999999999137 -1 0  4.349999999999152 -1 0  4.399999999999261 -1 0  4.44999999999933 -1 0  4.499999999999385 -1 0  4.549999999999446 -1 0  4.599999999999508 -1 0  4.649999999999633 -1 0  4.699999999999632 -1 0  4.749999999999723 -1 0  4.799999999999754 -1 0  4.849999999999801 -1 0  4.899999999999876 -1 0  4.949999999999925 -1 0  5 -0.950000000000111 0  5 -0.9000000000002774 0  5 -0.8500000000004283 0  5 -0.8000000000005548 0  5 -0.7500000000006787 0  5 -0.7000000000008322 0  5 -0.6500000000009709 0  5 -0.6000000000011096 0  5 -0.5500000000012484 0  5 -0.500000000001387 0  5 -0.4500000000015256 0  5 -0.4000000000016644 0  5 -0.3500000000018031 0  5 -0.3000000000019418 0  5 -0.2500000000020806 0  5 -0.2000000000022192 0  5 -0.1500000000023578 0  5 -0.1000000000024964 0  5 -0.05000000000262439 0  5 -2.752242878045763e-12 0  5 0.0499999999973757 0  5 0.09999999999750342 0  5 0.1499999999976422 0  5 0.1999999999977808 0  5 0.2499999999979194 0  5 0.2999999999980583 0  5 0.3499999999981969 0  5 0.3999999999983355 0  5 0.4499999999984743 0  5 0.4999999999986129 0  5 0.5499999999987515 0  5 0.5999999999988903 0  5 0.6499999999990291 0  5 0.699999999999168 0  5 0.7499999999993068 0  5 0.7999999999994454 0  5 0.849999999999584 0  5 0.8999999999997226 0  5 0.9499999999998612 0  4.949999999999965 1 0  4.899999999999877 1 0  4.849999999999826 1 0  4.799999999999754 1 0  4.749999999999695 1 0  4.69999999999963 1 0  4.649999999999565 1 0  4.599999999999507 1 0  4.549999999999454 1 0  4.499999999999384 1 0  4.449999999999317 1 0  4.399999999999261 1 0  4.349999999999206 1 0  4.299999999999137 1 0  4.249999999999075 1 0  4.199999999999013 1 0  4.149999999998934 1 0  4.09999999999889 1 0  4.049999999998847 1 0  3.999999999998767 1 0  3.949999999998706 1 0  3.899999999998644 1 0  3.849999999998594 1 0  3.799999999998552 1 0  3.749999999998549 1 0  3.699999999998651 1 0  3.649999999998804 1 0  3.59999999999894 1 0  3.549999999999097 1 0  3.499999999999261 1 0  3.449999999999394 1 0  3.399999999999582 1 0  3.349999999999742 1 0  3.299999999999902 1 0  3.25000000000006 1 0  3.200000000000223 1 0  3.150000000000369 1 0  3.100000000000544 1 0  3.050000000000704 1 0  3.000000000000864 1 0  2.950000000001029 1 0  2.900000000001185 1 0  2.850000000001347 1 0  2.800000000001506 1 0  2.750000000001665 1 0  2.700000000001827 1 0  2.650000000001979 1 0  2.600000000002148 1 0  2.550000000002311 1 0  2.500000000002468 1 0  2.450000000002635 1 0  2.400000000002789 1 0  2.35000000000295 1 0  2.30000000000311 1 0  2.250000000003253 1 0  2.200000000003431 1 0  2.150000000003601 1 0  2.100000000003752 1 0  2.050000000003922 1 0  2.000000000004072 1 0  1.950000000004237 1 0  1.900000000004393 1 0  1.850000000004541 1 0  1.800000000004714 1 0  1.750000000004886 1 0  1.700000000005035 1 0  1.650000000005206 1 0  1.600000000005355 1 0  1.550000000005516 1 0  1.500000000005676 1 0  1.450000000005824 1 0  1.400000000005996 1 0  1.350000000006146 1 0  1.300000000006318 1 0  1.250000000006505 1 0  1.200000000006638 1 0  1.150000000006797 1 0  1.100000000006959 1 0  1.050000000007106 1 0  1.000000000007245 1 0  0.9500000000072193 1 0  0.9000000000072612 1 0  0.8500000000071966 1 0  0.8000000000071381 1 0  0.750000000007085 1 0  0.700000000007015 1 0  0.6500000000069521 1 0  0.6000000000068919 1 0  0.5500000000068104 1 0  0.5000000000067688 1 0  0.4500000000067104 1 0  0.4000000000066457 1 0  0.3500000000065757 1 0  0.3000000000065226 1 0  0.2500000000064961 1 0  0.2000000000063995 1 0  0.1500000000063775 1 0  0.1000000000062764 1 0  0.0500000000062597 1 0  6.153300091682468e-12 1 0  -0.04999999999390781 1 0  -0.09999999999396891 1 0  -0.14999999999403 1 0  -0.1999999999940929 1 0  -0.2499999999941318 1 0  -0.299999999994216 1 0  -0.349999999994254 1 0  -0.3999999999943391 1 0  -0.4499999999944038 1 0  -0.4999999999944613 1 0  -0.5499999999945429 1 0  -0.5999999999945853 1 0  -0.6499999999946606 1 0  -0.6999999999947084 1 0  -0.7499999999947651 1 0  -0.7999999999948315 1 0  -0.8499999999948926 1 0  -0.8999999999949537 1 0  -0.9499999999950148 1 0  -0.9999999999950768 1 0  -1.049999999995139 1 0  -1.0999999999952 1 0  -1.149999999995266 1 0  -1.199999999995324 1 0  -1.249999999995385 1 0  -1.299999999995446 1 0  -1.349999999995488 1 0  -1.399999999995569 1 0  -1.449999999995604 1 0  -1.499999999995692 1 0  -1.549999999995753 1 0  -1.599999999995816 1 0  -1.649999999995892 1 0  -1.699999999995939 1 0  -1.749999999996017 1 0  -1.799999999996063 1 0  -1.849999999996111 1 0  -1.899999999996185 1 0  -1.949999999996246 1 0  -1.999999999996308 1 0  -2.049999999996351 1 0  -2.099999999996431 1 0  -2.149999999996504 1 0  -2.199999999996555 1 0  -2.249999999996616 1 0  -2.299999999996677 1 0  -2.349999999996736 1 0  -2.3999999999968 1 0  -2.449999999996847 1 0  -2.499999999996923 1 0  -2.549999999997 1 0  -2.599999999997047 1 0  -2.649999999997093 1 0  -2.69999999999717 1 0  -2.749999999997245 1 0  -2.799999999997293 1 0  -2.849999999997344 1 0  -2.899999999997416 1 0  -2.949999999997469 1 0  -2.999999999997539 1 0  -3.049999999997576 1 0  -3.099999999997662 1 0  -3.149999999997725 1 0  -3.199999999997784 1 0  -3.249999999997829 1 0  -3.29999
[...]
<PointData  Vectors="(h, u)"> 
<DataArray  type="Float64"  Name="(h, u)"  NumberOfComponents="3" format="ascii">8.8506882955600030e+00 0.0000000000000000e+00 0.0000000000000000e+00  9.8575064052047452e+00 0.0000000000000000e+00 0.0000000000000000e+00  9.2309514472070546e+00 0.0000000000000000e+00 0.0000000000000000e+00  8.8679172862347002e+00 0.0000000000000000e+00 0.0000000000000000e+00  8.8664936413372146e+00 8.1459789197813715e-02 0.0000000000000000e+00  8.8466852427627316e+00 1.6205472955322520e-01 0.0000000000000000e+00  8.8557404273455784e+00 2.4255987471639229e-01 0.0000000000000000e+00  8.8311340463673904e+00 3.2978532031685892e-01 0.0000000000000000e+00  8.8391349946895161e+00 4.0487212559179564e-01 0.0000000000000000e+00  8.8082718798703716e+00 4.8788114892529766e-01 0.0000000000000000e+00  8.8071397473098134e+00 5.6568392468614181e-01 0.0000000000000000e+00  8.7772396108597341e+00 6.4103473466487559e-01 0.0000000000000000e+00  8.7710115134060995e+00 7.2297704511045346e-01 0.0000000000000000e+00  8.7306602393114936e+00 8.0343054116603974e-01 0.0000000000000000e+00  8.7289767772204705e+00 8.6750519333924936e-01 0.0000000000000000e+00  8.6829395613700875e+00 9.5249037901319622e-01 0.0000000000000000e+00  8.6655547781025763e+00 1.0271862066376809e+00 0.0000000000000000e+00  8.6301274069095637e+00 1.0959602127214743e+00 0.0000000000000000e+00  8.6054410232931549e+00 1.1679769465924041e+00 0.0000000000000000e+00  8.5529627556865719e+00 1.2480321798416139e+00 0.0000000000000000e+00  8.5398328686802039e+00 1.3074991039795525e+00 0.0000000000000000e+00  8.4839945481438619e+00 1.3793649340589313e+00 0.0000000000000000e+00  8.4485514000516613e+00 1.4535704932996600e+00 0.0000000000000000e+00  8.4091588786711799e+00 1.5149799271145921e+00 0.0000000000000000e+00  8.3688160717305102e+00 1.5784191051836087e+00 0.0000000000000000e+00  8.3107182500324335e+00 1.6523445992197867e+00 0.0000000000000000e+00  8.2811413254802790e+00 1.7152218959264973e+00 0.0000000000000000e+00  8.2264571078288551e+00 1.7683433887997728e+00 0.0000000000000000e+00  8.1750199668904688e+00 1.8474808385223269e+00 0.0000000000000000e+00  8.1305934126128179e+00 1.9036401586583120e+00 0.0000000000000000e+00  8.0841774569260458e+00 1.9636820767399061e+00 0.0000000000000000e+00  8.0248643126954811e+00 2.0206477419769220e+00 0.0000000000000000e+00  7.9765060573811315e+00 2.1144115309971641e+00 0.0000000000000000e+00  7.9329331738639111e+00 2.1230599151646947e+00 0.0000000000000000e+00  7.8716774357221047e+00 2.2308846142923491e+00 0.0000000000000000e+00  7.8166939969281648e+00 2.2778215018892842e+00 0.0000000000000000e+00  7.7766464236243191e+00 2.3292090074819791e+00 0.0000000000000000e+00  7.7193430325286787e+00 2.3947267259034009e+00 0.0000000000000000e+00  7.6487435610541370e+00 2.4723822158368236e+00 0.0000000000000000e+00  7.6242875579330676e+00 2.5309157518670902e+00 0.0000000000000000e+00  7.5587312346479916e+00 2.5278356817234409e+00 0.0000000000000000e+00  7.4871227388001680e+00 2.7329607611414919e+00 0.0000000000000000e+00  7.4610808021601658e+00 2.6446599721809227e+00 0.0000000000000000e+00  7.4074522405996710e+00 2.7503765518152834e+00 0.0000000000000000e+00  7.3155654522558970e+00 2.9350702873943986e+00 0.0000000000000000e+00  7.3057498349835095e+00 2.7686071442308222e+00 0.0000000000000000e+00  7.2476999168561322e+00 3.0210571453201984e+00 0.0000000000000000e+00  7.1516070905433882e+00 3.0403601034394283e+00 0.0000000000000000e+00  7.1439873929786000e+00 3.0106261226378361e+00 0.0000000000000000e+00  7.0912592795265992e+00 3.1970732533151369e+00 0.0000000000000000e+00  6.9893234454749580e+00 3.1832917176448672e+00 0.0000000000000000e+00  6.9811893565138208e+00 3.2912238484005818e+00 0.0000000000000000e+00  6.9390604570791270e+00 3.2652342018600096e+00 0.0000000000000000e+00  6.8257562726817991e+00 3.4770158059546552e+00 0.0000000000000000e+00  6.8275726564086332e+00 3.3930666356988430e+00 0.0000000000000000e+00  6.7754220066545869e+00 3.5181904834118480e+00 0.0000000000000000e+00  6.6818589633654986e+00 3.6012978291398574e+00 0.0000000000000000e+00  6.6564125295930854e+00 3.6375262679059621e+00 0.0000000000000000e+00  6.6314428107783083e+00 3.6654112906561522e+00 0.0000000000000000e+00  6.5179006529256140e+00 3.8108341795955565e+00 0.0000000000000000e+00  6.5125962203118002e+00 3.8035760734836499e+00 0.0000000000000000e+00  6.4559970388704047e+00 3.9022044253465111e+00 0.0000000000000000e+00  6.3908628432723136e+00 3.9252180561946797e+00 0.0000000000000000e+00  6.3340879633422116e+00 4.0864842861045707e+00 0.0000000000000000e+00  6.3179722487208210e+00 4.0089057909842483e+00 0.0000000000000000e+00  6.2256541350083889e+00 4.1827293150535594e+00 0.0000000000000000e+00  6.2020331475360049e+00 4.2339675571063067e+00 0.0000000000000000e+00  6.1332953339472205e+00 4.2213682464965121e+00 0.0000000000000000e+00  6.1107829499103641e+00 4.3809715366105850e+00 0.0000000000000000e+00  6.0225293386516627e+00 4.4038938114216055e+00 0.0000000000000000e+00  6.0034787878864275e+00 4.4298333901468938e+00 0.0000000000000000e+00  5.9380915835865355e+00 4.5849616880914663e+00 0.0000000000000000e+00  5.9071210856823413e+00 4.5543824484488873e+00 0.0000000000000000e+00  5.8168229673587026e+00 4.6804898867935592e+00 0.0000000000000000e+00  5.8253734814759364e+00 4.7151280247804763e+00 0.0000000000000000e+00  5.7331449577015556e+00 4.8011615018128317e+00 0.0000000000000000e+00  5.7044593281906293e+00 4.8045960596193815e+00 0.0000000000000000e+00  5.6422271639153898e+00 4.9848600340342157e+00 0.0000000000000000e+00  5.6316305539319149e+00 4.8969594619332097e+00 0.0000000000000000e+00  5.5295775338265969e+00 5.0746829758777707e+00 0.0000000000000000e+00  5.5275024812643041e+00 5.1094477932341773e+00 0.0000000000000000e+00  5.4594392601441992e+00 5.1339539995936541e+00 0.0000000000000000e+00  5.4274419212351619e+00 5.2189551764417272e+00 0.0000000000000000e+00  5.3446499689703018e+00 5.3460838720166191e+00 0.0000000000000000e+00  5.3568174062907952e+00 5.2645459878981491e+00 0.0000000000000000e+00  5.2494608342639291e+00 5.4877582028858853e+00 0.0000000000000000e+00  5.2358861101537340e+00 5.4505719473674148e+00 0.0000000000000000e+00  5.1872575553572551e+00 5.5354399995828354e+00 0.0000000000000000e+00  5.1437263184952871e+00 5.6047567356218471e+00 0.0000000000000000e+00  5.0574776023825176e+00 5.7062286127639261e+00 0.0000000000000000e+00  5.0809594552351172e+00 5.6745362627840699e+00 0.0000000000000000e+00  4.9691612302645964e+00 5.8591213136617206e+00 0.0000000000000000e+00  4.9438305829917306e+00 5.8353872067051133e+00 0.0000000000000000e+00  4.9016303062415094e+00 5.9659046749996687e+00 0.0000000000000000e+00  4.8777915720679621e+00 5.9410724142962170e+00 0.0000000000000000e+00  4.7616972660071948e+00 6.1359669400866901e+00 0.0000000000000000e+00  4.8069344455442504e+00 6.0651929038308232e+00 0.0000000000000000e+00  4.6952780819448803e+00 6.2335182340860698e+00 0.0000000000000000e+00  4.6800008738453922e+00 6.2204376254772074e+00 0.0000000000000000e+00  4.6451301906670439e+00 6.3451239135554758e+00 0.0000000000000000e+00  4.6116126397611543e+00 6.3044205503490067e+00 0.0000000000000000e+00  4.4812189768244304e+00 6.5705871585150790e+00 0.0000000000000000e+00  4.5731645334248574e+00 6.4035210317385109e+00 0.0000000000000000e+00  4.4959897079369657e+00 6.5173700526356182e+00 0.0000000000000000e+00  4.4036725212158307e+00 6.6632849308926572e+00 0.0000000000000000e+00  4.3185567577915887e+00 6.7830622890773355e+00 0.0000000000000000e+00  4.3508474252055063e+00 6.7340223107646962e+00 0.0000000000000000e+00  4.2970464907337105e+00 6.8384258516143044e+00 0.0000000000000000e+00  4.2696927895353953e+00 6.8531046295812574e+00 0.0000000000000000e+00  4.1829376909515954e+00 7.0086204907551481e+00 0.0000000000000000e+00  4.1662752853352005e+00 7.0054507319941068e+00 0.0000000000000000e+00  4.0877692587756584e+00 7.1530748409210725e+00 0.0000000000000000e+00  4.0689723864375900e+00 7.1690353175996204e+00 0.0000000000000000e+00  4.0063360764921905e+00 7.2461405577187987e+00 0.0000000000000000e+00  4.0311344860395133e+00 7.2565343006318956e+00 0.0000000000000000e+00  3.9074822760198904e+00 7.4037831135718237e+00 0.0000000000000000e+00  3.9052254505463670e+00 7.4211197128078741e+00 0.0000000000000000e+00  3.8299297334729077e+00 7.5547061186920539e+00 0.0000000000000000e+00  3.9822716701458409e+00 7.3600860047831285e+00 0.0000000000000000e+00  3.7381673235493125e+00 7.6989355424939463e+00 0.0000000000000000e+00  3.8978607938043779e+00 7.4873441181876581e+00 0.0000000000000000e+00  3.6980771597626809e+00 7.7960608237997659e+00 0.0000000000000000e+00  3.6903834511640148e+00 7.7402126071272370e+00 0.0000000000000000e+00  3.9273026614576065e+00 7.4225538532834445e+00 0.0000000000000000e+00  3.8415290104940700e+00 7.5246105498122065e+00 0.0000000000000000e+00  3.9312736061526969e+00 7.4073411751754854e+00 0.0000000000000000e+00  3.9547828982913438e+00 7.3725798405429863e+00 0.0000000000000000e+00  3.9968605746232875e+00 7.3144131825598810e+00 0.0000000000000000e+00  3.7861131513741779e+00 7.5937512242417666e+00 0.0000000000000000e+00  4.0931579696047988e+00 7.2130132756082279e+00 0.0000000000000000e+00  4.1699884939687832e+00 7.0954541384514309e+00 0.0000000000000000e+00  4.0431593604622611e+00 7.2582046035269530e+00 0.0000000000000000e+00  4.0380345447188297e+00 7.2712814077187859e+00 0.0000000000000000e+00  3.9793998525592151e+00 7.3234507583744568e+00 0.0000000000000000e+00  4.0378149628365057e+00 7.2702983249655961e+00 0.0000000000000000e+00  4.0369705725474354e+00 7.2605184518246224e+00 0.0000000000000000e+00  3.9708955231035645e+00 7.3589768839153464e+00 0.0000000000000000e+00  3.9763918165975500e+00 7.3269331615855462e+00 0.0000000000000000e+00  3.9795228363766557e+00 7.3509119860106065e+00 0.0000000000000000e+00  3.9685695481979137e+00 7.3372831444565190e+00 0.0000000000000000e+00  3.9598167857617939e+00 7.3660778676211427e+00 0.0000000000000000e+00  3.9552779947891579e+00 7.3603273094252835e+00 0.0000000000000000e+00  3.9783319059022499e+00 7.3416609262012260e+00 0.0000000000000000e+00  3.9618087826043786e+00 7.3537475413648670e+00 0.0000000000000000e+00  3.9600084148460994e+00 7.3646968937010664e+00 0.0000000000000000e+00  3.9673811200938052e+00 7.3461221398436543e+00 0.0000000000000000e+00  3.9680190989656561e+00 7.3518297728461626e+00 0.0000000000000000e+00  3.9549132398296489e+00 7.3687087398774382e+00 0.0000000000000000e+00  3.9467214642338910e+00 7.3805510094208007e+00 0.0000000000000000e+00  3.9841726659458518e+00 7.3315309471464891e+00 0.0000000000000000e+00  3.9849582062779074e+00 7.3373659506452160e+00 0.0000000000000000e+00  3.9594772019635682e+00 7.3623330368496145e+00 0.0000000000000000e+00  3.9641739988648483e+00 7.3604505293013318e+00 0.0000000000000000e+00  3.9812733915064822e+00 7.3405284291786170e+00 0.0000000000000000e+00  3.9710133650841772e+00 7.3545628693109730e+00 0.0000000000000000e+00  3.9708882316703056e+00 7.3507899110010149e+00 0.0000000000000000e+00  3.9814916356070547e+00 7.3437051112611051e+00 0.0000000000000000e+00  3.9873063961216433e+00 7.3375002374439084e+00 0.0000000000000000e+00  3.9782600935660479e+00 7.3432947538374247e+00 0.0000000000000000e+00  3.9890449299884181e+00 7.3371644566938885e+00 0.0000000000000000e+00  3.9761824858001678e+00 7.3471836921372242e+00 0.0000000000000000e+00  3.9764481713274900e+00 7.3493601835094315e+00 0.0000000000000000e+00  3.9733425832495239e+00 7.3533059672502450e+00 0.0000000000000000e+00  3.9884256050179645e+00 7.3330229702086482e+00 0.0000000000000000e+00  3.9783005195208769e+00 7.3398069856994912e+00 0.0000000000000000e+00  3.9814243701561538e+00 7.3506893011464278e+00 0.0000000000000000e+00  3.9610222606184506e+00 7.3527836747336748e+00 0.0000000000000000e+00  3.9775251156978544e+00 7.3507788105256759e+00 0.0000000000000000e+00  3.9754072309906916e+00 7.3483666833081456e+00 0.0000000000000000e+00  3.9802679591095300e+00 7.3305227866649014e+00 0.0000000000000000e+00  3.9681366267045250e+00 7.3509125308483236e+00 0.0000000000000000e+00  3.9825241639862061e+00 7.3572961742163603e+00 0.0000000000000000e+00  3.9519930504972538e+00 7.3204371300873738e+00 0.0000000000000000e+00  3.9942924334129701e+00 7.3661445785272734e+00 0.0000000000000000e+00  3.9610113031843768e+00 7.3232571503372546e+00 0.0000000000000000e+00  3.9819792167915566e+00 7.3365005981173637e+00 0.0000000000000000e+00  3.9501200165318675e+00 7.3510453729140304e+00 0.0000000000000000e+00  3.9925226810835821e+00 7.3662059746842727e+00 0.0000000000000000e+00  3.9285186929988680e+00 7.2939137491209198e+00 0.0000000000000000e+00  3.9972639604909976e+00 7.4009212845882111e+00 0.0000000000000000e+00  3.9681955337137875e+00 7.2860225990334584e+00 0.0000000000000000e+00  3.9577430404602203e+00 7.3742976294837828e+00 0.0000000000000000e+00  3.9719646372996342e+00 7.2981801841972587e+00 0.0000000000000000e+00  3.9838701009648583e+00 7.4051464218830212e+00 0.0000000000000000e+00  3.9455461119818542e+00 7.2936808831679958e+00 0.0000000000000000e+00  3.9419122374493796e+00 7.3366857681972428e+00 0.0000000000000000e+00  4.0278068352769267e+00 7.4320486378094781e+00 0.0000000000000000e+00  3.8979922191232839e+00 7.2361352259356400e+00 0.0000000000000000e+00  3.9867783272564221e+00 7.3718717296409135e+00 0.0000000000000000e+00  3.9858212506712372e+00 7.3833019827135606e+00 0.0000000000000000e+00  3.9790456894338710e+00 7.2850841404150524e+00 0.0000000000000000e+00  3.8778580982755648e+00 7.2913549776415847e+00 0.0000000000000000e+00  4.0882310465683309e+00 7.4319767920198982e+00 0.0000000000000000e+00  3.8980812002968599e+00 7.2581710791955025e+00 0.0000000000000000e+00  3.9703874117263993e+00 7.3032957945868553e+00 0.0000000000000000e+00  3.9515747550926763e+00 7.3285211851637682e+00 0.0000000000000000e+00  4.0304416042707283e+00 7.4148422241823626e+00 0.0000000000000000e+00  3.9313727848265225e+00 7.2145508407783874e+00 0.0000000000000000e+00  3.9999542804349271e+00 7.0651385234115427e+00 0.0000000000000000e+00  3.5956201646428432e+00 8.1060679089691448e+00 0.0000000000000000e+00  9.5541651441067561e+00 6.4017590632911084e-02 0.0000000000000000e+00  8.6718816582535467e+00 8.2423144508107893e-01 0.0000000000000000e+00  9.8794875321035764e+00 -9.2603322179438929e-01 0.0000000000000000e+00  9.6404607899752737e+00 0.0000000000000000e+00 -3.0024833417865388e-01  9.6931655269330061e+00 0.0000000000000000e+00 1.4832277907553731e-01  8.8064222949136699e+00 0.0000000000000000e+00 -3.9323984486463927e-03  9.8477710517188246e+00 0.0000000000000000e+00 -4.8706568640683462e-01  9.6938984422931860e+00 0.0000000000000000e+00 1.1524961529523063e-01  9.7819031601242106e+00 0.0000000000000000e+00 3.3055870162915180e-01  8.6550838033169040e+00 0.0000000000000000e+00 -1.1820994215326061e-01  9.7587841551170147e+00 0.0000000000000000e+00 -1.6373832836766949e-01  9.5299111533667240e+00 0.0000000000000000e+00 -1.6282485514030534e-01  9.7819133638490925e+00 0.0000000000000000e+00 2.3869062115817957e-01  9.2448827110970981e+00 0.0000000000000000e+00 3.8989228995940450e-01  9.4156669879059915e+00 0.0000000000000000e+00 -5.5661355791363687e-01  8.9791768777130621e+00 0.0000000000000000e+00 -2.6658045228855193e-01  9.7639023347214238e+00 0.0000000000000000e+00 -9.4251547543488981e-02  9.0378417043501074e+00 0.0000000000000000e+00 1.2503103494637446e-01  9.3599342575784679e+00 0.0000000000000000e+00 3.7205906962762997e-01  9.1608154374187709e+00 0.0000000000000000e+00 -5.1616751718164322e-01  9.7132167507191483e+00 0.0000000000000000e+00 -3.8821797534972380e-01  9.5603016798319818e+00 0.0000000000000000e+00 -8.8268069204074946e-03  9.8596722820104468e+00 0.0000000000000000e+00 2.7466319606556172e-01  8.4724711234962697e+00 0.0000000000000000e+00 -9.4752610302058213e-02  9.8260287361024083e+00 0.0000000000000000e+00 -3.6355469001231316e-01  9.7417470370868973e+00 0.0000000000000000e+00 -8.1699748873967137e-02  9.6602712779000903e+00 0.0000000000000000e+00 1.0176449219263844e-01  9.2094436083005782e+00 0.0000000000000000e+00 1.6006315648594338e-01  9.4696105329164464e+00 0.0000000000000000e+00 -3.5810604910509930e-01  9.0734110282084863e+00 0.0000000000000000e+00 3.4294313343286964e-01  9.1851121788140926e+00 0.0000000000000000e+00 -1.8888882303222221e-01  8.8873251122111778e+00 0.0000000000000000e+00 1.6581740807583258e-02  9.1422485886932687e+00 0.0000000000000000e+00 -4.5278032125724142e-02  9.0847269039800462e+00 0.0000000000000000e+00 5.2102508697940884e-02  9.0492657446896487e+00 0.0000000000000000e+00 5.4057528102737562e-02  9.0220338860537215e+00 0.0000000000000000e+00 4.9265718382257233e-02  8.9501061933171844e+00 0.0000000000000000e+00 -1.5204258430604861e-01  9.0969668112166175e+00 0.0000000000000000e+00 -8.7662775043829050e-02  9.0334852610331708e+00 0.0000000000000000e+00 1.0963632330456205e-01  8.8185295855727421e+00 0.0000000000000000e+00 -3.5677976563788011e-01  9.3802322309681809e+00 0.0000000000000000e+00 -8.0605399216562693e-02  9.4632519485510063e+00 0.0000000000000000e+00 -9.2363748307290128e-04  1.0009441616210230e+01 -8.7919728909223793e-01 0.0000000000000000e+00  8.3164294846010733e+00 8.7627700403567932e-01 0.0000000000000000e+00  9.8370997501935875e+00 -3.8865954218893090e-01 0.0000000000000000e+00  3.5151865726708236e+00 7.8415610983824200e+00 0.0000000000000000e+00  4.0827799402077440e+00 6.7152194997059134e+00 0.0000000000000000e+00  3.9337140905789068e+00 7.2368555993974351e+00 0.0000000000000000e+00  3.8644684776634084e+00 7.2011331536588985e+00 0.0000000000000000e+00  3.9443556781792628e+00 7.1201206683115954e+00 0.0000000000000000e+00  3.9233898904120910e+00 7.2514895884889121e+00 0.0000000000000000e+00  3.9294193139558904e+00 6.9458748264121102e+00 0.0000000000000000e+00  3.9914906120397733e+00 7.2499744452238843e+00 0.0000000000000000e+00  3.8883257758914467e+00 6.9175776906853788e+00 0.0000000000000000e+00  3.9967648389907717e+00 7.2222612168365812e+00 0.0000000000000000e+00  3.8642933329442046e+00 7.0600196505285853e+00 0.0000000000000000e+00  4.0352854245346892e+00 7.1553891665436895e+00 0.0000000000000000e+00  3.9205259674114679e+00 7.0619904623429335e+00 0.0000000000000000e+00  3.9595508229537941e+00 7.1969599720190676e+00 0.0000000000000000e+00  3.9276247286472548e+00 7.1432020181964928e+00 0.0000000000000000e+00  3.9910552131091350e+00 7.1942975441225316e+00 0.0000000000000000e+00  3.8954145790828063e+00 7.2335368581945056e+00 0.0000000000000000e+00  3.9513423220097184e+00 7.2643943112603395e+00 0.0000000000000000e+00  3.9443466845986421e+00 7.3103727359944592e+00 0.0000000000000000e+00  3.9226696649859139e+00 7.2112541172723565e+00 0.0000000000000000e+00  3.9800338456734017e+00 7.3530251036917109e+00 0.0000000000000000e+00  3.9114372434633200e+00 7.3329378287311906e+00 0.0000000000000000e+00  3.9565626306036825e+00 7.2834520377596306e+00 0.0000000000000000e+00  3.9443107035315217e+00 7.3341945338895504e+00 0.0000000000000000e+00  3.9625150322597409e+00 7.3868552156170271e+00 0.0000000000000000e+00  3.9134066420904619e+00 7.2923366048988676e+00 0.0000000000000000e+00  3.9828352012718877e+00 7.3855901544755849e+00 0.0000000000000000e+00  3.9420652542032997e+00 7.2931011033183797e+00 0.0000000000000000e+00  3.9551652468882073e+00 7.3122758606650669e+00 0.0000000000000000e+00  3.9557811285579483e+00 7.3536158789443302e+00 0.0000000000000000e+00  3.9505833850755745e+00 7.3167649350106334e+00 0.0000000000000000e+00  3.9409210550125517e+00 7.3289505084194086e+00 0.0000000000000000e+00  3.9638284361197567e+00 7.3365043918654651e+00 0.0000000000000000e+00  3.9694728565484176e+00 7.2367795642154116e+00 0.0000000000000000e+00  3.9555727082019798e+00 7.3136065112448074e+00 0.0000000000000000e+00  3.9596078897654778e+00 7.3410646449197170e+00 0.0000000000000000e+00  3.9553631684562340e+00 7.2717577796529298e+00 0.0000000000000000e+00  3.9735616971925141e+00 7.3111737099206415e+00 0.0000000000000000e+00  3.9478766668192939e+00 7.3210663010824115e+00 0.0000