<?xml version="1.0"?>
<VTKFile type="UnstructuredGrid"  version="0.1"  >
<UnstructuredGrid>
<Piece  NumberOfPoints="9509" NumberOfCells="18536">
<Points>
<DataArray  type="Float64"  NumberOfComponents="3"  format="ascii">-5 -1 0  5 -1 0  5 1 0  -5 1 0  -4.949999999999965 -1 0  -4.899999999999877 -1 0  -4.849999999999826 -1 0  -4.799999999999754 -1 0  -4.749999999999695 -1 0  -4.69999999999963 -1 0  -4.649999999999565 -1 0  -4.599999999999507 -1 0  -4.549999999999454 -1 0  -4.499999999999384 -1 0  -4.449999999999317 -1 0  -4.399999999999261 -1 0  -4.349999999999206 -1 0  -4.299999999999137 -1 0  -4.249999999999075 -1 0  -4.199999999999013 -1 0  -4.149999999998934 -1 0  -4.09999999999889 -1 0  -4.049999999998847 -1 0  -3.999999999998767 -1 0  -3.949999999998706 -1 0  -3.899999999998644 -1 0  -3.849999999998594 -1 0  -3.799999999998552 -1 0  -3.749999999998549 -1 0  -3.699999999998651 -1 0  -3.649999999998804 -1 0  -3.59999999999894 -1 0  -3.549999999999097 -1 0  -3.499999999999261 -1 0  -3.449999999999394 -1 0  -3.399999999999582 -1 0  -3.349999999999742 -1 0  -3.299999999999902 -1 0  -3.25000000000006 -1 0  -3.200000000000223 -1 0  -3.150000000000369 -1 0  -3.100000000000544 -1 0  -3.050000000000704 -1 0  -3.000000000000864 -1 0  -2.950000000001029 -1 0  -2.900000000001185 -1 0  -2.850000000001347 -1 0  -2.800000000001506 -1 0  -2.750000000001665 -1 0  -2.700000000001827 -1 0  -2.650000000001979 -1 0  -2.600000000002148 -1 0  -2.550000000002311 -1 0  -2.500000000002468 -1 0  -2.450000000002635 -1 0  -2.400000000002789 -1 0  -2.35000000000295 -1 0  -2.30000000000311 -1 0  -2.250000000003253 -1 0  -2.200000000003431 -1 0  -2.150000000003601 -1 0  -2.100000000003752 -1 0  -2.050000000003922 -1 0  -2.000000000004072 -1 0  -1.950000000004237 -1 0  -1.900000000004393 -1 0  -1.850000000004541 -1 0  -1.800000000004714 -1 0  -1.750000000004886 -1 0  -1.700000000005035 -1 0  -1.650000000005206 -1 0  -1.600000000005355 -1 0  -1.550000000005516 -1 0  -1.500000000005676 -1 0  -1.450000000005824 -1 0  -1.400000000005996 -1 0  -1.350000000006146 -1 0  -1.300000000006318 -1 0  -1.250000000006505 -1 0  -1.200000000006638 -1 0  -1.150000000006797 -1 0  -1.100000000006959 -1 0  -1.050000000007106 -1 0  -1.000000000007245 -1 0  -0.9500000000072193 -1 0  -0.9000000000072612 -1 0  -0.8500000000071966 -1 0  -0.8000000000071381 -1 0  -0.750000000007085 -1 0  -0.700000000007015 -1 0  -0.6500000000069521 -1 0  -0.6000000000068919 -1 0  -0.5500000000068104 -1 0  -0.5000000000067688 -1 0  -0.4500000000067104 -1 0  -0.4000000000066457 -1 0  -0.3500000000065757 -1 0  -0.3000000000065226 -1 0  -0.2500000000064961 -1 0  -0.2000000000063995 -1 0  -0.1500000000063775 -1 0  -0.1000000000062764 -1 0  -0.0500000000062597 -1 0  -6.153300091682468e-12 -1 0  0.04999999999390781 -1 0  0.09999999999396891 -1 0  0.14999999999403 -1 0  0.1999999999940929 -1 0  0.2499999999941318 -1 0  0.299999999994216 -1 0  0.349999999994254 -1 0  0.3999999999943391 -1 0  0.4499999999944038 -1 0  0.4999999999944613 -1 0  0.5499999999945429 -1 0  0.5999999999945853 -1 0  0.6499999999946606 -1 0  0.6999999999947084 -1 0  0.7499999999947651 -1 0  0.7999999999948315 -1 0  0.8499999999948926 -1 0  0.8999999999949537 -1 0  0.9499999999950148 -1 0  0.9999999999950768 -1 0  1.049999999995139 -1 0  1.0999999999952 -1 0  1.149999999995266 -1 0  1.199999999995324 -1 0  1.249999999995385 -1 0  1.299999999995446 -1 0  1.349999999995488 -1 0  1.399999999995569 -1 0  1.449999999995604 -1 0  1.499999999995692 -1 0  1.549999999995753 -1 0  1.599999999995816 -1 0  1.649999999995892 -1 0  1.699999999995939 -1 0  1.749999999996017 -1 0  1.799999999996063 -1 0  1.849999999996111 -1 0  1.899999999996185 -1 0  1.949999999996246 -1 0  1.999999999996308 -1 0  2.049999999996351 -1 0  2.099999999996431 -1 0  2.149999999996504 -1 0  2.199999999996555 -1 0  2.249999999996616 -1 0  2.299999999996677 -1 0  2.349999999996736 -1 0  2.3999999999968 -1 0  2.449999999996847 -1 0  2.499999999996923 -1 0  2.549999999997 -1 0  2.599999999997047 -1 0  2.649999999997093 -1 0  2.69999999999717 -1 0  2.749999999997245 -1 0  2.799999999997293 -1 0  2.849999999997344 -1 0  2.899999999997416 -1 0  2.949999999997469 -1 0  2.999999999997539 -1 0  3.049999999997576 -1 0  3.099999999997662 -1 0  3.149999999997725 -1 0  3.199999999997784 -1 0  3.249999999997829 -1 0  3.299999999997908 -1 0  3.349999999997921 -1 0  3.39999999999803 -1 0  3.4499999999981 -1 0  3.499999999998153 -1 0  3.549999999998214 -1 0  3.599999999998277 -1 0  3.649999999998409 -1 0  3.699999999998401 -1 0  3.749999999998444 -1 0  3.799999999998523 -1 0  3.849999999998602 -1 0  3.899999999998645 -1 0  3.949999999998658 -1 0  3.999999999998769 -1 0  4.049999999998814 -1 0  4.099999999998893 -1 0  4.149999999998883 -1 0  4.199999999999015 -1 0  4.249999999999064 -1 0  4.299999999999137 -1 0  4.349999999999152 -1 0  4.399999999999261 -1 0  4.44999999999933 -1 0  4.499999999999385 -1 0  4.549999999999446 -1 0  4.599999999999508 -1 0  4.649999999999633 -1 0  4.699999999999632 -1 0  4.749999999999723 -1 0  4.799999999999754 -1 0  4.849999999999801 -1 0  4.899999999999876 -1 0  4.949999999999925 -1 0  5 -0.950000000000111 0  5 -0.9000000000002774 0  5 -0.8500000000004283 0  5 -0.8000000000005548 0  5 -0.7500000000006787 0  5 -0.7000000000008322 0  5 -0.6500000000009709 0  5 -0.6000000000011096 0  5 -0.5500000000012484 0  5 -0.500000000001387 0  5 -0.4500000000015256 0  5 -0.4000000000016644 0  5 -0.3500000000018031 0  5 -0.3000000000019418 0  5 -0.2500000000020806 0  5 -0.2000000000022192 0  5 -0.1500000000023578 0  5 -0.1000000000024964 0  5 -0.05000000000262439 0  5 -2.752242878045763e-12 0  5 0.0499999999973757 0  5 0.09999999999750342 0  5 0.1499999999976422 0  5 0.1999999999977808 0  5 0.2499999999979194 0  5 0.2999999999980583 0  5 0.3499999999981969 0  5 0.3999999999983355 0  5 0.4499999999984743 0  5 0.4999999999986129 0  5 0.5499999999987515 0  5 0.5999999999988903 0  5 0.6499999999990291 0  5 0.699999999999168 0  5 0.7499999999993068 0  5 0.7999999999994454 0  5 0.849999999999584 0  5 0.8999999999997226 0  5 0.9499999999998612 0  4.949999999999965 1 0  4.899999999999877 1 0  4.849999999999826 1 0  4.799999999999754 1 0  4.749999999999695 1 0  4.69999999999963 1 0  4.649999999999565 1 0  4.599999999999507 1 0  4.549999999999454 1 0  4.499999999999384 1 0  4.449999999999317 1 0  4.399999999999261 1 0  4.349999999999206 1 0  4.299999999999137 1 0  4.249999999999075 1 0  4.199999999999013 1 0  4.149999999998934 1 0  4.09999999999889 1 0  4.049999999998847 1 0  3.999999999998767 1 0  3.949999999998706 1 0  3.899999999998644 1 0  3.849999999998594 1 0  3.799999999998552 1 0  3.749999999998549 1 0  3.699999999998651 1 0  3.649999999998804 1 0  3.59999999999894 1 0  3.549999999999097 1 0  3.499999999999261 1 0  3.449999999999394 1 0  3.399999999999582 1 0  3.349999999999742 1 0  3.299999999999902 1 0  3.25000000000006 1 0  3.200000000000223 1 0  3.150000000000369 1 0  3.100000000000544 1 0  3.050000000000704 1 0  3.000000000000864 1 0  2.950000000001029 1 0  2.900000000001185 1 0  2.850000000001347 1 0  2.800000000001506 1 0  2.750000000001665 1 0  2.700000000001827 1 0  2.650000000001979 1 0  2.600000000002148 1 0  2.550000000002311 1 0  2.500000000002468 1 0  2.450000000002635 1 0  2.400000000002789 1 0  2.35000000000295 1 0  2.30000000000311 1 0  2.250000000003253 1 0  2.200000000003431 1 0  2.150000000003601 1 0  2.100000000003752 1 0  2.050000000003922 1 0  2.000000000004072 1 0  1.950000000004237 1 0  1.900000000004393 1 0  1.850000000004541 1 0  1.800000000004714 1 0  1.750000000004886 1 0  1.700000000005035 1 0  1.650000000005206 1 0  1.600000000005355 1 0  1.550000000005516 1 0  1.500000000005676 1 0  1.450000000005824 1 0  1.400000000005996 1 0  1.350000000006146 1 0  1.300000000006318 1 0  1.250000000006505 1 0  1.200000000006638 1 0  1.150000000006797 1 0  1.100000000006959 1 0  1.050000000007106 1 0  1.000000000007245 1 0  0.9500000000072193 1 0  0.9000000000072612 1 0  0.8500000000071966 1 0  0.8000000000071381 1 0  0.750000000007085 1 0  0.700000000007015 1 0  0.6500000000069521 1 0  0.6000000000068919 1 0  0.5500000000068104 1 0  0.5000000000067688 1 0  0.4500000000067104 1 0  0.4000000000066457 1 0  0.3500000000065757 1 0  0.3000000000065226 1 0  0.2500000000064961 1 0  0.2000000000063995 1 0  0.1500000000063775 1 0  0.1000000000062764 1 0  0.0500000000062597 1 0  6.153300091682468e-12 1 0  -0.04999999999390781 1 0  -0.09999999999396891 1 0  -0.14999999999403 1 0  -0.1999999999940929 1 0  -0.2499999999941318 1 0  -0.299999999994216 1 0  -0.349999999994254 1 0  -0.3999999999943391 1 0  -0.4499999999944038 1 0  -0.4999999999944613 1 0  -0.5499999999945429 1 0  -0.5999999999945853 1 0  -0.6499999999946606 1 0  -0.6999999999947084 1 0  -0.7499999999947651 1 0  -0.7999999999948315 1 0  -0.8499999999948926 1 0  -0.8999999999949537 1 0  -0.9499999999950148 1 0  -0.9999999999950768 1 0  -1.049999999995139 1 0  -1.0999999999952 1 0  -1.149999999995266 1 0  -1.199999999995324 1 0  -1.249999999995385 1 0  -1.299999999995446 1 0  -1.349999999995488 1 0  -1.399999999995569 1 0  -1.449999999995604 1 0  -1.499999999995692 1 0  -1.549999999995753 1 0  -1.599999999995816 1 0  -1.649999999995892 1 0  -1.699999999995939 1 0  -1.749999999996017 1 0  -1.799999999996063 1 0  -1.849999999996111 1 0  -1.899999999996185 1 0  -1.949999999996246 1 0  -1.999999999996308 1 0  -2.049999999996351 1 0  -2.099999999996431 1 0  -2.149999999996504 1 0  -2.199999999996555 1 0  -2.249999999996616 1 0  -2.299999999996677 1 0  -2.349999999996736 1 0  -2.3999999999968 1 0  -2.449999999996847 1 0  -2.499999999996923 1 0  -2.549999999997 1 0  -2.599999999997047 1 0  -2.649999999997093 1 0  -2.69999999999717 1 0  -2.749999999997245 1 0  -2.799999999997293 1 0  -2.849999999997344 1 0  -2.899999999997416 1 0  -2.949999999997469 1 0  -2.999999999997539 1 0  -3.049999999997576 1 0  -3.099999999997662 1 0  -3.149999999997725 1 0  -3.199999999997784 1 0  -3.249999999997829 1 0  -3.29999
[...]
<PointData  Vectors="(h, u)"> 
<DataArray  type="Float64"  Name="(h, u)"  NumberOfComponents="3" format="ascii">5.6360358563606674e+00 0.0000000000000000e+00 0.0000000000000000e+00  9.4909770628733519e+00 0.0000000000000000e+00 0.0000000000000000e+00  9.5312672607165734e+00 0.0000000000000000e+00 0.0000000000000000e+00  5.6337361683185625e+00 0.0000000000000000e+00 0.0000000000000000e+00  5.6381604853553782e+00 6.9002638884223685e-02 0.0000000000000000e+00  5.6351870050042550e+00 1.7153342356043669e-01 0.0000000000000000e+00  5.6382741913168806e+00 2.1282966847656323e-01 0.0000000000000000e+00  5.6356007656416827e+00 3.0641458764518542e-01 0.0000000000000000e+00  5.6348642730691347e+00 3.9099534385444029e-01 0.0000000000000000e+00  5.6350179488180903e+00 4.6734491041941628e-01 0.0000000000000000e+00  5.6349214834733194e+00 5.3469329099923724e-01 0.0000000000000000e+00  5.6299210223221179e+00 6.3701914506293167e-01 0.0000000000000000e+00  5.6342106784313772e+00 6.6913163194400016e-01 0.0000000000000000e+00  5.6271353130840023e+00 7.7746493576150044e-01 0.0000000000000000e+00  5.6265366665887928e+00 8.3694741831991282e-01 0.0000000000000000e+00  5.6276454471528687e+00 9.4218343625723211e-01 0.0000000000000000e+00  5.6241093652613632e+00 9.4884318477437912e-01 0.0000000000000000e+00  5.6163908991672322e+00 1.1461179526052374e+00 0.0000000000000000e+00  5.6252017689006726e+00 1.0877518796044654e+00 0.0000000000000000e+00  5.6145187641882499e+00 1.2546180610706184e+00 0.0000000000000000e+00  5.6106312138145551e+00 1.3072812849487898e+00 0.0000000000000000e+00  5.6157103478539767e+00 1.3858396893686795e+00 0.0000000000000000e+00  5.6104535196077832e+00 1.4095372435268685e+00 0.0000000000000000e+00  5.5959388560527739e+00 1.5976169301028440e+00 0.0000000000000000e+00  5.6141237627007650e+00 1.5824076022006612e+00 0.0000000000000000e+00  5.5947759147561644e+00 1.6348792448589244e+00 0.0000000000000000e+00  5.5931656233843476e+00 1.8429583742493651e+00 0.0000000000000000e+00  5.5971930085993806e+00 1.8028241910142841e+00 0.0000000000000000e+00  5.5940442250578322e+00 1.8592742177122321e+00 0.0000000000000000e+00  5.5725797358265288e+00 2.0773766371464570e+00 0.0000000000000000e+00  5.5970675868770536e+00 2.0188732693517375e+00 0.0000000000000000e+00  5.5734074517442815e+00 2.0955321847647710e+00 0.0000000000000000e+00  5.5702980760946543e+00 2.3082563744994031e+00 0.0000000000000000e+00  5.5754575635611472e+00 2.1986280932204250e+00 0.0000000000000000e+00  5.5714641523081276e+00 2.3892427576970925e+00 0.0000000000000000e+00  5.5457650344640426e+00 2.4805989021212995e+00 0.0000000000000000e+00  5.5729811158251907e+00 2.4323402788111097e+00 0.0000000000000000e+00  5.5463096958047684e+00 2.6373110043710088e+00 0.0000000000000000e+00  5.5405691108298099e+00 2.6803595033043033e+00 0.0000000000000000e+00  5.5482013831034767e+00 2.6626501332485026e+00 0.0000000000000000e+00  5.5388918867249632e+00 2.8799670935420294e+00 0.0000000000000000e+00  5.5147373660361740e+00 2.8542239139754026e+00 0.0000000000000000e+00  5.5388610547984589e+00 2.9494470292523007e+00 0.0000000000000000e+00  5.5125138986611706e+00 3.0417169767513892e+00 0.0000000000000000e+00  5.5019263846284723e+00 3.1069176570170987e+00 0.0000000000000000e+00  5.5128212718655210e+00 3.1684764084090800e+00 0.0000000000000000e+00  5.4963548484354972e+00 3.2469253597814149e+00 0.0000000000000000e+00  5.4758156432267544e+00 3.3298811144321103e+00 0.0000000000000000e+00  5.4936604421731374e+00 3.4048198096033739e+00 0.0000000000000000e+00  5.4704172242962068e+00 3.4290003460507648e+00 0.0000000000000000e+00  5.4537903161402426e+00 3.5795831817816324e+00 0.0000000000000000e+00  5.4674379528679129e+00 3.5880300123312638e+00 0.0000000000000000e+00  5.4441327793873810e+00 3.6793595747253942e+00 0.0000000000000000e+00  5.4299277708873896e+00 3.7449044356227903e+00 0.0000000000000000e+00  5.4361267544110277e+00 3.8500550891415588e+00 0.0000000000000000e+00  5.4181177433583505e+00 3.8479280757878365e+00 0.0000000000000000e+00  5.3989142355549458e+00 3.9774095457414380e+00 0.0000000000000000e+00  5.4087034436609027e+00 4.0531926521046975e+00 0.0000000000000000e+00  5.3784193317707887e+00 4.0521543643721536e+00 0.0000000000000000e+00  5.3764128390159298e+00 4.1854537928722708e+00 0.0000000000000000e+00  5.3661011344655609e+00 4.2587666393177059e+00 0.0000000000000000e+00  5.3468987584640084e+00 4.2511186849531368e+00 0.0000000000000000e+00  5.3376997070430994e+00 4.3993016905262117e+00 0.0000000000000000e+00  5.3350528353809841e+00 4.4344330954575213e+00 0.0000000000000000e+00  5.2955982458280992e+00 4.4801649718389331e+00 0.0000000000000000e+00  5.3108586819046710e+00 4.5727423563128324e+00 0.0000000000000000e+00  5.2873877776201041e+00 4.6298119167253917e+00 0.0000000000000000e+00  5.2532052641461195e+00 4.6902740058469705e+00 0.0000000000000000e+00  5.2670670647048148e+00 4.7432617947594578e+00 0.0000000000000000e+00  5.2478795042976927e+00 4.8242862635138648e+00 0.0000000000000000e+00  5.1970055612315704e+00 4.8882419557046974e+00 0.0000000000000000e+00  5.2222104932649787e+00 4.9163656106569196e+00 0.0000000000000000e+00  5.1994532528832469e+00 5.0185043716257756e+00 0.0000000000000000e+00  5.1460249102426072e+00 5.0551142465529058e+00 0.0000000000000000e+00  5.1643422191012078e+00 5.1215932291868800e+00 0.0000000000000000e+00  5.1484360339307313e+00 5.1650652684563836e+00 0.0000000000000000e+00  5.1008084210478009e+00 5.2559830743326916e+00 0.0000000000000000e+00  5.0924079850376600e+00 5.2692690453132878e+00 0.0000000000000000e+00  5.0976257129480063e+00 5.3724804735503122e+00 0.0000000000000000e+00  5.0510509164875605e+00 5.3749480989278684e+00 0.0000000000000000e+00  5.0281904770555457e+00 5.4711162689644857e+00 0.0000000000000000e+00  5.0235316581277223e+00 5.5245208877501577e+00 0.0000000000000000e+00  5.0181453486205783e+00 5.5357507400280817e+00 0.0000000000000000e+00  4.9447860475439454e+00 5.6060754508882429e+00 0.0000000000000000e+00  4.9705118434965110e+00 5.7227939962117294e+00 0.0000000000000000e+00  4.9295791158390925e+00 5.6694234512226638e+00 0.0000000000000000e+00  4.9059117172490501e+00 5.7601658381642311e+00 0.0000000000000000e+00  4.8793056935925057e+00 5.8741152860427261e+00 0.0000000000000000e+00  4.8624404791161346e+00 5.8436610161204205e+00 0.0000000000000000e+00  4.8114975044367450e+00 5.9048646879363895e+00 0.0000000000000000e+00  4.8368030650487643e+00 6.0186066328777388e+00 0.0000000000000000e+00  4.7493824799710325e+00 6.0006435475136470e+00 0.0000000000000000e+00  4.7537348583969239e+00 6.0587543242292723e+00 0.0000000000000000e+00  4.7331930197961469e+00 6.1773466546176321e+00 0.0000000000000000e+00  4.6949570987397644e+00 6.1142212833939800e+00 0.0000000000000000e+00  4.6485355047482750e+00 6.2398837951377173e+00 0.0000000000000000e+00  4.6800835773971965e+00 6.2732036152088186e+00 0.0000000000000000e+00  4.6235015049389405e+00 6.2287849670176403e+00 0.0000000000000000e+00  4.5596376754705901e+00 6.4096683231244684e+00 0.0000000000000000e+00  4.5912122067908463e+00 6.3916242602843969e+00 0.0000000000000000e+00  4.5305212979569029e+00 6.4007959407298012e+00 0.0000000000000000e+00  4.4663461280935550e+00 6.5501407960766178e+00 0.0000000000000000e+00  4.5086617647539065e+00 6.5233408180125361e+00 0.0000000000000000e+00  4.4647333867978354e+00 6.5027946919314035e+00 0.0000000000000000e+00  4.3774912833506034e+00 6.7031165343696628e+00 0.0000000000000000e+00  4.3631351915451182e+00 6.7231555309296400e+00 0.0000000000000000e+00  4.3765572474849206e+00 6.6547510340508609e+00 0.0000000000000000e+00  4.2883476893434436e+00 6.8370043627896564e+00 0.0000000000000000e+00  4.3157199763147291e+00 6.7916982175078386e+00 0.0000000000000000e+00  4.2695560253160725e+00 6.8325198114924115e+00 0.0000000000000000e+00  4.2808434020038755e+00 6.8496043079755138e+00 0.0000000000000000e+00  4.1883202683722081e+00 6.9962022898979228e+00 0.0000000000000000e+00  4.1816295261316290e+00 6.9570609576466671e+00 0.0000000000000000e+00  4.1907717757385363e+00 7.0111828492326298e+00 0.0000000000000000e+00  4.1695813093421421e+00 7.0040685820090252e+00 0.0000000000000000e+00  4.1162864934750969e+00 7.1050854797575456e+00 0.0000000000000000e+00  4.0445434964629925e+00 7.1702528231066713e+00 0.0000000000000000e+00  4.0707700226805050e+00 7.2167367262958022e+00 0.0000000000000000e+00  4.0373616854350809e+00 7.1612131363532061e+00 0.0000000000000000e+00  4.0490671307729684e+00 7.2199302407627348e+00 0.0000000000000000e+00  3.9624722989632013e+00 7.3573693575842904e+00 0.0000000000000000e+00  3.9397351321424958e+00 7.3208709446491493e+00 0.0000000000000000e+00  3.9697776419441522e+00 7.3615865173104762e+00 0.0000000000000000e+00  3.8072344091405350e+00 7.5609866236510515e+00 0.0000000000000000e+00  3.9551343005163244e+00 7.3236589567156072e+00 0.0000000000000000e+00  3.8385153342778198e+00 7.5593463800690648e+00 0.0000000000000000e+00  3.7708051647008491e+00 7.5955413589777097e+00 0.0000000000000000e+00  3.7098949219576918e+00 7.7338415968457452e+00 0.0000000000000000e+00  3.7235062401191379e+00 7.7044731648615610e+00 0.0000000000000000e+00  3.8801394433446883e+00 7.5202940668544258e+00 0.0000000000000000e+00  3.8228140951085621e+00 7.5398648345634669e+00 0.0000000000000000e+00  4.0154500383209069e+00 7.2476553214946078e+00 0.0000000000000000e+00  3.9302376566344650e+00 7.3988376400138209e+00 0.0000000000000000e+00  3.9689717102028745e+00 7.2952161293841566e+00 0.0000000000000000e+00  4.0735183134534712e+00 7.1735401767295217e+00 0.0000000000000000e+00  3.9579955914445781e+00 7.3770204309145857e+00 0.0000000000000000e+00  3.9592298697813164e+00 7.2722858334236644e+00 0.0000000000000000e+00  3.9710916236305818e+00 7.3847450705717348e+00 0.0000000000000000e+00  3.8824903665856545e+00 7.4126973951010164e+00 0.0000000000000000e+00  4.0146562732263380e+00 7.2620151785097731e+00 0.0000000000000000e+00  3.9984164156663389e+00 7.3093876394392767e+00 0.0000000000000000e+00  3.8915427872187580e+00 7.4045189427348559e+00 0.0000000000000000e+00  3.9861402910394212e+00 7.3201391131971132e+00 0.0000000000000000e+00  3.9518047834245187e+00 7.3365325571452837e+00 0.0000000000000000e+00  3.9397236984138893e+00 7.3724490192535823e+00 0.0000000000000000e+00  4.0056441430929004e+00 7.2831605000592203e+00 0.0000000000000000e+00  3.9306231366645585e+00 7.3558821366801510e+00 0.0000000000000000e+00  3.9936209084305179e+00 7.3168968648029162e+00 0.0000000000000000e+00  3.9693851699082163e+00 7.3052509661773941e+00 0.0000000000000000e+00  3.9458697788964798e+00 7.3569628268029730e+00 0.0000000000000000e+00  3.9623864195208758e+00 7.3388343874146562e+00 0.0000000000000000e+00  3.9703141787414422e+00 7.3202212674739338e+00 0.0000000000000000e+00  3.9498064520698466e+00 7.3404382560301835e+00 0.0000000000000000e+00  3.9628577983487627e+00 7.3276551522384450e+00 0.0000000000000000e+00  3.9588467082662189e+00 7.3401811073598546e+00 0.0000000000000000e+00  3.9522120435137631e+00 7.3309047949766093e+00 0.0000000000000000e+00  3.9519568703508998e+00 7.3455637461216803e+00 0.0000000000000000e+00  3.9796123323704333e+00 7.3103814209289526e+00 0.0000000000000000e+00  3.9531936590113692e+00 7.3338222960002248e+00 0.0000000000000000e+00  3.9270999083069373e+00 7.3732545814267523e+00 0.0000000000000000e+00  3.9612117147972774e+00 7.3336944924023673e+00 0.0000000000000000e+00  3.9967663350938469e+00 7.2810814366748486e+00 0.0000000000000000e+00  3.9427836099856113e+00 7.3562068688505704e+00 0.0000000000000000e+00  3.9400022286608096e+00 7.3562861503439478e+00 0.0000000000000000e+00  3.9737503830215877e+00 7.3157043162451840e+00 0.0000000000000000e+00  3.9542063552133850e+00 7.3570566619552809e+00 0.0000000000000000e+00  3.9351985652587049e+00 7.3372166918199326e+00 0.0000000000000000e+00  3.9823891684526420e+00 7.3075001583330161e+00 0.0000000000000000e+00  3.9713147143306484e+00 7.3908533485744883e+00 0.0000000000000000e+00  3.9305302855825452e+00 7.2656077265892858e+00 0.0000000000000000e+00  3.9826809266468821e+00 7.2143304456962376e+00 0.0000000000000000e+00  3.6132670261074620e+00 8.3729446986652363e+00 0.0000000000000000e+00  7.4832266981703057e+00 1.8166734133588847e+00 0.0000000000000000e+00  9.3283671164498774e+00 1.4508553633613852e-01 0.0000000000000000e+00  9.6403886164950237e+00 -1.4816794638269107e-01 0.0000000000000000e+00  9.2883377447392501e+00 2.1690309832461782e-01 0.0000000000000000e+00  9.6014516783856418e+00 -1.0694185545763285e-01 0.0000000000000000e+00  9.4196531430791755e+00 8.3160475449566312e-02 0.0000000000000000e+00  9.5074669962754683e+00 -2.0613815366481176e-02 0.0000000000000000e+00  9.4654006258008732e+00 4.8672874096527922e-02 0.0000000000000000e+00  9.4683567064651815e+00 3.1942732641963789e-02 0.0000000000000000e+00  9.5000145421644326e+00 1.1677025370227360e-03 0.0000000000000000e+00  9.4589190723729750e+00 3.0805321393556562e-02 0.0000000000000000e+00  9.4870826098196304e+00 1.7316042851060139e-02 0.0000000000000000e+00  9.4671572214525259e+00 1.7582447501268621e-02 0.0000000000000000e+00  9.4852930064721122e+00 2.2434434296316731e-02 0.0000000000000000e+00  9.4659530540869188e+00 1.5375276550014718e-02 0.0000000000000000e+00  9.4878645101983761e+00 1.6018191475255326e-02 0.0000000000000000e+00  9.4630715999522987e+00 1.1767513559806988e-02 0.0000000000000000e+00  9.4859239964028710e+00 2.4640253816829265e-02 0.0000000000000000e+00  9.4712371127039638e+00 -2.0273317526246058e-04 0.0000000000000000e+00  9.4818380677051195e+00 3.1162424431970918e-02 0.0000000000000000e+00  9.4687377854902994e+00 4.0674545315938972e-03 0.0000000000000000e+00  9.4883504489810235e+00 2.6130576801613903e-02 0.0000000000000000e+00  9.4674030722559976e+00 7.7615124253156394e-03 0.0000000000000000e+00  9.4873873232736834e+00 1.8309090330274495e-02 0.0000000000000000e+00  9.4716013866337985e+00 4.4409091796284402e-05 0.0000000000000000e+00  9.4854057236307465e+00 -4.7496986510145367e-03 0.0000000000000000e+00  9.4734339903360354e+00 3.3260414296733272e-02 0.0000000000000000e+00  9.4879741447354640e+00 -6.6073762061942390e-02 0.0000000000000000e+00  9.4704757563886393e+00 1.7168643461590465e-02 0.0000000000000000e+00  9.4924317711195254e+00 -3.6042880801173405e-02 0.0000000000000000e+00  9.4724589532002241e+00 -1.8533539426287229e-01 0.0000000000000000e+00  9.4706821110149537e+00 0.0000000000000000e+00 -7.4312121485629518e-02  9.4903965493088407e+00 0.0000000000000000e+00 -1.1815616998022110e-02  9.4738751939685812e+00 0.0000000000000000e+00 -2.8069107889270997e-02  9.4925077868029604e+00 0.0000000000000000e+00 -1.0626298853447941e-01  9.4742228989188781e+00 0.0000000000000000e+00 3.8511784122252694e-02  9.4910269927338256e+00 0.0000000000000000e+00 8.9131356820982818e-02  9.4799145594457919e+00 0.0000000000000000e+00 2.0634970485333276e-03  9.4939395021531876e+00 0.0000000000000000e+00 -1.0461189724492363e-01  9.4830815094455652e+00 0.0000000000000000e+00 -9.1318464336545155e-02  9.4898078992586896e+00 0.0000000000000000e+00 1.5928327632165043e-01  9.4921027867993182e+00 0.0000000000000000e+00 -3.3045669150447809e-03  9.4918013413752842e+00 0.0000000000000000e+00 7.1492825836941025e-03  9.4957115847784141e+00 0.0000000000000000e+00 -3.3541009335426461e-02  9.4938463398014399e+00 0.0000000000000000e+00 -3.2760248555827536e-02  9.4919590112685484e+00 0.0000000000000000e+00 -5.5715989841447114e-02  9.4929356426545155e+00 0.0000000000000000e+00 -1.6135561891240816e-01  9.5017521711026287e+00 0.0000000000000000e+00 -8.6494404224506855e-02  9.4903369471922971e+00 0.0000000000000000e+00 -2.9172763071201185e-01  9.4971198497103888e+00 0.0000000000000000e+00 6.0127287194219052e-02  9.4982395874630505e+00 0.0000000000000000e+00 6.7150401133085583e-02  9.5038139876005996e+00 0.0000000000000000e+00 -4.8727997397692548e-02  9.5073894943170725e+00 0.0000000000000000e+00 -2.1907502205387838e-01  9.5040535968826063e+00 0.0000000000000000e+00 -3.6264376699660643e-02  9.5045693298304368e+00 0.0000000000000000e+00 2.2219653536442646e-01  9.5073561891946170e+00 0.0000000000000000e+00 2.5205385762877086e-03  9.5144283446306606e+00 0.0000000000000000e+00 6.6071894253863769e-02  9.5069244727787527e+00 0.0000000000000000e+00 -1.3086731942830753e-03  9.5115857810910764e+00 0.0000000000000000e+00 -1.2820490965318004e-01  9.5105058648776524e+00 0.0000000000000000e+00 -1.1012912579925116e-01  9.5164263579549111e+00 0.0000000000000000e+00 7.2148883090632263e-02  9.5032812232145876e+00 0.0000000000000000e+00 -3.6130159742987174e-02  9.5236339515029726e+00 0.0000000000000000e+00 -1.5251403145383821e-01  9.5056736826468846e+00 0.0000000000000000e+00 -4.9534519063640182e-02  9.5221863281944970e+00 0.0000000000000000e+00 -1.2727607157162693e-01  9.5083058717325972e+00 0.0000000000000000e+00 -9.5147615431277158e-02  9.5200497282267058e+00 0.0000000000000000e+00 -1.3327039936538584e-01  9.5035249692261061e+00 0.0000000000000000e+00 -1.3800107392568192e-01  9.5252298111543698e+00 0.0000000000000000e+00 -2.2027730826797806e-01  9.5048831905063516e+00 0.0000000000000000e+00 8.3531715809045583e-03  9.5016913345412952e+00 -3.5865380461989188e-01 0.0000000000000000e+00  9.5184398505675958e+00 -3.6486606754310630e-01 0.0000000000000000e+00  9.5072240677288544e+00 -2.0794539661402364e-01 0.0000000000000000e+00  9.5277035874819198e+00 -5.4971745049364855e-02 0.0000000000000000e+00  9.5104515170120685e+00 -4.1965723767695406e-01 0.0000000000000000e+00  9.4967145416732119e+00 -8.0076388482998340e-01 0.0000000000000000e+00  9.5091190379333614e+00 -3.4215772366025426e-01 0.0000000000000000e+00  9.5245866759974529e+00 -5.0483741657031000e-01 0.0000000000000000e+00  9.4990499445283483e+00 -5.1375934208795038e-01 0.0000000000000000e+00  9.5138247934826605e+00 -2.9973389945980933e-01 0.0000000000000000e+00  9.5186821456212449e+00 -1.7402962675847125e-01 0.0000000000000000e+00  9.5013527251245069e+00 -8.9980025927024532e-02 0.0000000000000000e+00  9.5186543665437053e+00 -3.8950954286006263e-02 0.0000000000000000e+00  9.5187782985837348e+00 1.4864880669122885e-01 0.0000000000000000e+00  9.4985209530855457e+00 8.7616861033575744e-02 0.0000000000000000e+00  9.5175256006456568e+00 1.7397127221330683e-01 0.0000000000000000e+00  9.5263826474555273e+00 5.8691515178228980e-02 0.0000000000000000e+00  9.4998137901122064e+00 6.0987342138377469e-02 0.0000000000000000e+00  9.5375488735305591e+00 -7.2454090499488449e-02 0.0000000000000000e+00  9.5086753265283921e+00 9.0274195952607966e-02 0.0000000000000000e+00  9.4890695329174193e+00 -2.4939272289435384e-02 0.0000000000000000e+00  9.5642277157474336e+00 -9.7441545846225566e-02 0.0000000000000000e+00  9.5029287993470515e+00 -5.3610809895048468e-02 0.0000000000000000e+00  9.4958769065151163e+00 7.4394940354402042e-02 0.0000000000000000e+00  9.6530676187495654e+00 2.8226845392514920e-02 0.0000000000000000e+00  9.2891898040363134e+00 2.5054392309210138e-01 0.0000000000000000e+00  9.9200601547406215e+00 -1.3513806493400532e-01 0.0000000000000000e+00  9.0747941647999983e+00 5.7070436218577869e-01 0.0000000000000000e+00  9.7228330797566791e+00 -2.9225459760031558e-01 0.0000000000000000e+00  9.4916431656955531e+00 6.5785159459100059e-02 0.0000000000000000e+00  7.5689906779317875e+00 1.7405563336538845e+00 0.0000000000000000e+00  3.5725834294841055e+00 8.2718524450577551e+00 0.0000000000000000e+00  4.1278962787928455e+00 7.2833345666622931e+00 0.0000000000000000e+00  3.8944204133797573e+00 6.9846625724935354e+00 0.0000000000000000e+00  4.0813222520209100e+00 7.7495089301898838e+00 0.0000000000000000e+00  3.9375513440110161e+00 6.9436699953167187e+00 0.0000000000000000e+00  4.0743127021337751e+00 7.4187118642411871e+00 0.0000000000000000e+00  4.0392299121799562e+00 7.3348879792770543e+00 0.0000000000000000e+00  4.0311116811127272e+00 7.2321595110637471e+00 0.0000000000000000e+00  4.0585608781419973e+00 7.3254311847248026e+00 0.0000000000000000e+00  3.9963196656764763e+00 7.3111946259908391e+00 0.0000000000000000e+00  4.0269138104948068e+00 7