<?xml version="1.0"?>
<VTKFile type="UnstructuredGrid"  version="0.1"  >
<UnstructuredGrid>
<Piece  NumberOfPoints="9509" NumberOfCells="18536">
<Points>
<DataArray  type="Float64"  NumberOfComponents="3"  format="ascii">-5 -1 0  5 -1 0  5 1 0  -5 1 0  -4.949999999999965 -1 0  -4.899999999999877 -1 0  -4.849999999999826 -1 0  -4.799999999999754 -1 0  -4.749999999999695 -1 0  -4.69999999999963 -1 0  -4.649999999999565 -1 0  -4.599999999999507 -1 0  -4.549999999999454 -1 0  -4.499999999999384 -1 0  -4.449999999999317 -1 0  -4.399999999999261 -1 0  -4.349999999999206 -1 0  -4.299999999999137 -1 0  -4.249999999999075 -1 0  -4.199999999999013 -1 0  -4.149999999998934 -1 0  -4.09999999999889 -1 0  -4.049999999998847 -1 0  -3.999999999998767 -1 0  -3.949999999998706 -1 0  -3.899999999998644 -1 0  -3.849999999998594 -1 0  -3.799999999998552 -1 0  -3.749999999998549 -1 0  -3.699999999998651 -1 0  -3.649999999998804 -1 0  -3.59999999999894 -1 0  -3.549999999999097 -1 0  -3.499999999999261 -1 0  -3.449999999999394 -1 0  -3.399999999999582 -1 0  -3.349999999999742 -1 0  -3.299999999999902 -1 0  -3.25000000000006 -1 0  -3.200000000000223 -1 0  -3.150000000000369 -1 0  -3.100000000000544 -1 0  -3.050000000000704 -1 0  -3.000000000000864 -1 0  -2.950000000001029 -1 0  -2.900000000001185 -1 0  -2.850000000001347 -1 0  -2.800000000001506 -1 0  -2.750000000001665 -1 0  -2.700000000001827 -1 0  -2.650000000001979 -1 0  -2.600000000002148 -1 0  -2.550000000002311 -1 0  -2.500000000002468 -1 0  -2.450000000002635 -1 0  -2.400000000002789 -1 0  -2.35000000000295 -1 0  -2.30000000000311 -1 0  -2.250000000003253 -1 0  -2.200000000003431 -1 0  -2.150000000003601 -1 0  -2.100000000003752 -1 0  -2.050000000003922 -1 0  -2.000000000004072 -1 0  -1.950000000004237 -1 0  -1.900000000004393 -1 0  -1.850000000004541 -1 0  -1.800000000004714 -1 0  -1.750000000004886 -1 0  -1.700000000005035 -1 0  -1.650000000005206 -1 0  -1.600000000005355 -1 0  -1.550000000005516 -1 0  -1.500000000005676 -1 0  -1.450000000005824 -1 0  -1.400000000005996 -1 0  -1.350000000006146 -1 0  -1.300000000006318 -1 0  -1.250000000006505 -1 0  -1.200000000006638 -1 0  -1.150000000006797 -1 0  -1.100000000006959 -1 0  -1.050000000007106 -1 0  -1.000000000007245 -1 0  -0.9500000000072193 -1 0  -0.9000000000072612 -1 0  -0.8500000000071966 -1 0  -0.8000000000071381 -1 0  -0.750000000007085 -1 0  -0.700000000007015 -1 0  -0.6500000000069521 -1 0  -0.6000000000068919 -1 0  -0.5500000000068104 -1 0  -0.5000000000067688 -1 0  -0.4500000000067104 -1 0  -0.4000000000066457 -1 0  -0.3500000000065757 -1 0  -0.3000000000065226 -1 0  -0.2500000000064961 -1 0  -0.2000000000063995 -1 0  -0.1500000000063775 -1 0  -0.1000000000062764 -1 0  -0.0500000000062597 -1 0  -6.153300091682468e-12 -1 0  0.04999999999390781 -1 0  0.09999999999396891 -1 0  0.14999999999403 -1 0  0.1999999999940929 -1 0  0.2499999999941318 -1 0  0.299999999994216 -1 0  0.349999999994254 -1 0  0.3999999999943391 -1 0  0.4499999999944038 -1 0  0.4999999999944613 -1 0  0.5499999999945429 -1 0  0.5999999999945853 -1 0  0.6499999999946606 -1 0  0.6999999999947084 -1 0  0.7499999999947651 -1 0  0.7999999999948315 -1 0  0.8499999999948926 -1 0  0.8999999999949537 -1 0  0.9499999999950148 -1 0  0.9999999999950768 -1 0  1.049999999995139 -1 0  1.0999999999952 -1 0  1.149999999995266 -1 0  1.199999999995324 -1 0  1.249999999995385 -1 0  1.299999999995446 -1 0  1.349999999995488 -1 0  1.399999999995569 -1 0  1.449999999995604 -1 0  1.499999999995692 -1 0  1.549999999995753 -1 0  1.599999999995816 -1 0  1.649999999995892 -1 0  1.699999999995939 -1 0  1.749999999996017 -1 0  1.799999999996063 -1 0  1.849999999996111 -1 0  1.899999999996185 -1 0  1.949999999996246 -1 0  1.999999999996308 -1 0  2.049999999996351 -1 0  2.099999999996431 -1 0  2.149999999996504 -1 0  2.199999999996555 -1 0  2.249999999996616 -1 0  2.299999999996677 -1 0  2.349999999996736 -1 0  2.3999999999968 -1 0  2.449999999996847 -1 0  2.499999999996923 -1 0  2.549999999997 -1 0  2.599999999997047 -1 0  2.649999999997093 -1 0  2.69999999999717 -1 0  2.749999999997245 -1 0  2.799999999997293 -1 0  2.849999999997344 -1 0  2.899999999997416 -1 0  2.949999999997469 -1 0  2.999999999997539 -1 0  3.049999999997576 -1 0  3.099999999997662 -1 0  3.149999999997725 -1 0  3.199999999997784 -1 0  3.249999999997829 -1 0  3.299999999997908 -1 0  3.349999999997921 -1 0  3.39999999999803 -1 0  3.4499999999981 -1 0  3.499999999998153 -1 0  3.549999999998214 -1 0  3.599999999998277 -1 0  3.649999999998409 -1 0  3.699999999998401 -1 0  3.749999999998444 -1 0  3.799999999998523 -1 0  3.849999999998602 -1 0  3.899999999998645 -1 0  3.949999999998658 -1 0  3.999999999998769 -1 0  4.049999999998814 -1 0  4.099999999998893 -1 0  4.149999999998883 -1 0  4.199999999999015 -1 0  4.249999999999064 -1 0  4.299999999999137 -1 0  4.349999999999152 -1 0  4.399999999999261 -1 0  4.44999999999933 -1 0  4.499999999999385 -1 0  4.549999999999446 -1 0  4.599999999999508 -1 0  4.649999999999633 -1 0  4.699999999999632 -1 0  4.749999999999723 -1 0  4.799999999999754 -1 0  4.849999999999801 -1 0  4.899999999999876 -1 0  4.949999999999925 -1 0  5 -0.950000000000111 0  5 -0.9000000000002774 0  5 -0.8500000000004283 0  5 -0.8000000000005548 0  5 -0.7500000000006787 0  5 -0.7000000000008322 0  5 -0.6500000000009709 0  5 -0.6000000000011096 0  5 -0.5500000000012484 0  5 -0.500000000001387 0  5 -0.4500000000015256 0  5 -0.4000000000016644 0  5 -0.3500000000018031 0  5 -0.3000000000019418 0  5 -0.2500000000020806 0  5 -0.2000000000022192 0  5 -0.1500000000023578 0  5 -0.1000000000024964 0  5 -0.05000000000262439 0  5 -2.752242878045763e-12 0  5 0.0499999999973757 0  5 0.09999999999750342 0  5 0.1499999999976422 0  5 0.1999999999977808 0  5 0.2499999999979194 0  5 0.2999999999980583 0  5 0.3499999999981969 0  5 0.3999999999983355 0  5 0.4499999999984743 0  5 0.4999999999986129 0  5 0.5499999999987515 0  5 0.5999999999988903 0  5 0.6499999999990291 0  5 0.699999999999168 0  5 0.7499999999993068 0  5 0.7999999999994454 0  5 0.849999999999584 0  5 0.8999999999997226 0  5 0.9499999999998612 0  4.949999999999965 1 0  4.899999999999877 1 0  4.849999999999826 1 0  4.799999999999754 1 0  4.749999999999695 1 0  4.69999999999963 1 0  4.649999999999565 1 0  4.599999999999507 1 0  4.549999999999454 1 0  4.499999999999384 1 0  4.449999999999317 1 0  4.399999999999261 1 0  4.349999999999206 1 0  4.299999999999137 1 0  4.249999999999075 1 0  4.199999999999013 1 0  4.149999999998934 1 0  4.09999999999889 1 0  4.049999999998847 1 0  3.999999999998767 1 0  3.949999999998706 1 0  3.899999999998644 1 0  3.849999999998594 1 0  3.799999999998552 1 0  3.749999999998549 1 0  3.699999999998651 1 0  3.649999999998804 1 0  3.59999999999894 1 0  3.549999999999097 1 0  3.499999999999261 1 0  3.449999999999394 1 0  3.399999999999582 1 0  3.349999999999742 1 0  3.299999999999902 1 0  3.25000000000006 1 0  3.200000000000223 1 0  3.150000000000369 1 0  3.100000000000544 1 0  3.050000000000704 1 0  3.000000000000864 1 0  2.950000000001029 1 0  2.900000000001185 1 0  2.850000000001347 1 0  2.800000000001506 1 0  2.750000000001665 1 0  2.700000000001827 1 0  2.650000000001979 1 0  2.600000000002148 1 0  2.550000000002311 1 0  2.500000000002468 1 0  2.450000000002635 1 0  2.400000000002789 1 0  2.35000000000295 1 0  2.30000000000311 1 0  2.250000000003253 1 0  2.200000000003431 1 0  2.150000000003601 1 0  2.100000000003752 1 0  2.050000000003922 1 0  2.000000000004072 1 0  1.950000000004237 1 0  1.900000000004393 1 0  1.850000000004541 1 0  1.800000000004714 1 0  1.750000000004886 1 0  1.700000000005035 1 0  1.650000000005206 1 0  1.600000000005355 1 0  1.550000000005516 1 0  1.500000000005676 1 0  1.450000000005824 1 0  1.400000000005996 1 0  1.350000000006146 1 0  1.300000000006318 1 0  1.250000000006505 1 0  1.200000000006638 1 0  1.150000000006797 1 0  1.100000000006959 1 0  1.050000000007106 1 0  1.000000000007245 1 0  0.9500000000072193 1 0  0.9000000000072612 1 0  0.8500000000071966 1 0  0.8000000000071381 1 0  0.750000000007085 1 0  0.700000000007015 1 0  0.6500000000069521 1 0  0.6000000000068919 1 0  0.5500000000068104 1 0  0.5000000000067688 1 0  0.4500000000067104 1 0  0.4000000000066457 1 0  0.3500000000065757 1 0  0.3000000000065226 1 0  0.2500000000064961 1 0  0.2000000000063995 1 0  0.1500000000063775 1 0  0.1000000000062764 1 0  0.0500000000062597 1 0  6.153300091682468e-12 1 0  -0.04999999999390781 1 0  -0.09999999999396891 1 0  -0.14999999999403 1 0  -0.1999999999940929 1 0  -0.2499999999941318 1 0  -0.299999999994216 1 0  -0.349999999994254 1 0  -0.3999999999943391 1 0  -0.4499999999944038 1 0  -0.4999999999944613 1 0  -0.5499999999945429 1 0  -0.5999999999945853 1 0  -0.6499999999946606 1 0  -0.6999999999947084 1 0  -0.7499999999947651 1 0  -0.7999999999948315 1 0  -0.8499999999948926 1 0  -0.8999999999949537 1 0  -0.9499999999950148 1 0  -0.9999999999950768 1 0  -1.049999999995139 1 0  -1.0999999999952 1 0  -1.149999999995266 1 0  -1.199999999995324 1 0  -1.249999999995385 1 0  -1.299999999995446 1 0  -1.349999999995488 1 0  -1.399999999995569 1 0  -1.449999999995604 1 0  -1.499999999995692 1 0  -1.549999999995753 1 0  -1.599999999995816 1 0  -1.649999999995892 1 0  -1.699999999995939 1 0  -1.749999999996017 1 0  -1.799999999996063 1 0  -1.849999999996111 1 0  -1.899999999996185 1 0  -1.949999999996246 1 0  -1.999999999996308 1 0  -2.049999999996351 1 0  -2.099999999996431 1 0  -2.149999999996504 1 0  -2.199999999996555 1 0  -2.249999999996616 1 0  -2.299999999996677 1 0  -2.349999999996736 1 0  -2.3999999999968 1 0  -2.449999999996847 1 0  -2.499999999996923 1 0  -2.549999999997 1 0  -2.599999999997047 1 0  -2.649999999997093 1 0  -2.69999999999717 1 0  -2.749999999997245 1 0  -2.799999999997293 1 0  -2.849999999997344 1 0  -2.899999999997416 1 0  -2.949999999997469 1 0  -2.999999999997539 1 0  -3.049999999997576 1 0  -3.099999999997662 1 0  -3.149999999997725 1 0  -3.199999999997784 1 0  -3.249999999997829 1 0  -3.29999
[...]
<PointData  Vectors="(h, u)"> 
<DataArray  type="Float64"  Name="(h, u)"  NumberOfComponents="3" format="ascii">9.9645847991278718e+00 0.0000000000000000e+00 0.0000000000000000e+00  9.9999991683808365e-01 0.0000000000000000e+00 0.0000000000000000e+00  9.9999999795678163e-01 0.0000000000000000e+00 0.0000000000000000e+00  9.9648387364828999e+00 0.0000000000000000e+00 0.0000000000000000e+00  1.0032230737470964e+01 -1.3223567384604805e-03 0.0000000000000000e+00  9.9678611097008929e+00 7.1341092226556843e-03 0.0000000000000000e+00  1.0012925210643974e+01 -3.6345814248500371e-04 0.0000000000000000e+00  9.9524277280046860e+00 -2.9638301791885440e-03 0.0000000000000000e+00  1.0042438975421796e+01 1.6253149008686580e-03 0.0000000000000000e+00  9.9615917275377264e+00 4.2667102233517155e-03 0.0000000000000000e+00  1.0001436858924702e+01 5.9979667870158212e-04 0.0000000000000000e+00  9.9752574080579102e+00 1.4129807808259249e-02 0.0000000000000000e+00  1.0002296160631007e+01 -4.9701641353447476e-04 0.0000000000000000e+00  9.9378005426568503e+00 1.0185301925145307e-02 0.0000000000000000e+00  1.0031499049803164e+01 1.0945000034346931e-02 0.0000000000000000e+00  9.9394126131154881e+00 1.3104730224771904e-02 0.0000000000000000e+00  9.9669951490461912e+00 1.4015859043074046e-02 0.0000000000000000e+00  9.9857933491049415e+00 2.1978954493103664e-02 0.0000000000000000e+00  9.9616066402110111e+00 2.5414389709047972e-02 0.0000000000000000e+00  9.9048048944374418e+00 3.4198422562882601e-02 0.0000000000000000e+00  1.0009380257233680e+01 3.9638854246044596e-02 0.0000000000000000e+00  9.8950949504749950e+00 5.5736812291911964e-02 0.0000000000000000e+00  9.9085799171862874e+00 6.6667259567989010e-02 0.0000000000000000e+00  9.9387804806051676e+00 7.9294403475036121e-02 0.0000000000000000e+00  9.8879866951901860e+00 1.0080538551059405e-01 0.0000000000000000e+00  9.8194216795944556e+00 1.2336951399999282e-01 0.0000000000000000e+00  9.9170509527561670e+00 1.3979453992639387e-01 0.0000000000000000e+00  9.7868176378698681e+00 1.7047160487267796e-01 0.0000000000000000e+00  9.7751181523522401e+00 2.0485233763564020e-01 0.0000000000000000e+00  9.7989621859558795e+00 2.2687009068862929e-01 0.0000000000000000e+00  9.7243727410529104e+00 2.6778294690102689e-01 0.0000000000000000e+00  9.6384225824531065e+00 3.1055430608322376e-01 0.0000000000000000e+00  9.7131694201663361e+00 3.4713988028071657e-01 0.0000000000000000e+00  9.5717471064896831e+00 3.8682334953523306e-01 0.0000000000000000e+00  9.5348965038231146e+00 4.5085257475989016e-01 0.0000000000000000e+00  9.5381233153018350e+00 4.8852468465870830e-01 0.0000000000000000e+00  9.4519472065439487e+00 5.4169169274966400e-01 0.0000000000000000e+00  9.3478627058567447e+00 6.0600584941091062e-01 0.0000000000000000e+00  9.3950131194251956e+00 6.6920161914776055e-01 0.0000000000000000e+00  9.2516057287432059e+00 7.0750420631766664e-01 0.0000000000000000e+00  9.1974128476566115e+00 8.0070306167271155e-01 0.0000000000000000e+00  9.1725812989900675e+00 8.5731608579505159e-01 0.0000000000000000e+00  9.0903815269399448e+00 9.1373192058178698e-01 0.0000000000000000e+00  8.9713954052236780e+00 9.9427456639834622e-01 0.0000000000000000e+00  8.9918107898877917e+00 1.0864041530771158e+00 0.0000000000000000e+00  8.8543184035436173e+00 1.1161441735299091e+00 0.0000000000000000e+00  8.7920088219327148e+00 1.2289675470043415e+00 0.0000000000000000e+00  8.7374759769440988e+00 1.3084457492290349e+00 0.0000000000000000e+00  8.6673976040052647e+00 1.3588901442015464e+00 0.0000000000000000e+00  8.5404353028265785e+00 1.4519300473676209e+00 0.0000000000000000e+00  8.5362714804651549e+00 1.5650316290747057e+00 0.0000000000000000e+00  8.4081582532199004e+00 1.5921483348923202e+00 0.0000000000000000e+00  8.3446789775770043e+00 1.7071613301397566e+00 0.0000000000000000e+00  8.2653516259214737e+00 1.8136622456549671e+00 0.0000000000000000e+00  8.2063300783791409e+00 1.8539675946046865e+00 0.0000000000000000e+00  8.0789164282886450e+00 1.9547086445987489e+00 0.0000000000000000e+00  8.0557207403705782e+00 2.0858325413466301e+00 0.0000000000000000e+00  7.9345292734611723e+00 2.1024658379933032e+00 0.0000000000000000e+00  7.8751869357947220e+00 2.2377876418264084e+00 0.0000000000000000e+00  7.7779862497965926e+00 2.3278089503480377e+00 0.0000000000000000e+00  7.7269689775877524e+00 2.4083781744618866e+00 0.0000000000000000e+00  7.6013287398895626e+00 2.4665932410608309e+00 0.0000000000000000e+00  7.5673164340211807e+00 2.6447336143424778e+00 0.0000000000000000e+00  7.4501924262696155e+00 2.6481405786821486e+00 0.0000000000000000e+00  7.3939336936010562e+00 2.7633943430217065e+00 0.0000000000000000e+00  7.2897083174408790e+00 2.9213563893975629e+00 0.0000000000000000e+00  7.2404364199044524e+00 2.9179773857207771e+00 0.0000000000000000e+00  7.1207756546548611e+00 3.0605874540605265e+00 0.0000000000000000e+00  7.0781174511375831e+00 3.1824965124654980e+00 0.0000000000000000e+00  6.9689790550602195e+00 3.2321396930182171e+00 0.0000000000000000e+00  6.9116237998722632e+00 3.2960873819826562e+00 0.0000000000000000e+00  6.8085945340649614e+00 3.5363351135050949e+00 0.0000000000000000e+00  6.7585561208335001e+00 3.4190165422769949e+00 0.0000000000000000e+00  6.6488311346808207e+00 3.7125949717806885e+00 0.0000000000000000e+00  6.5961441586330318e+00 3.6655760185355599e+00 0.0000000000000000e+00  6.4971000507053249e+00 3.8673456818829837e+00 0.0000000000000000e+00  6.4399138554405457e+00 3.8614994439514199e+00 0.0000000000000000e+00  6.3350494129247021e+00 4.0636768012211926e+00 0.0000000000000000e+00  6.2855006579389343e+00 4.0809900986626655e+00 0.0000000000000000e+00  6.1851781204558165e+00 4.2067096950291365e+00 0.0000000000000000e+00  6.1225316375183185e+00 4.3212473075486244e+00 0.0000000000000000e+00  6.0288238689994103e+00 4.4060813847273570e+00 0.0000000000000000e+00  5.9786088882251720e+00 4.4806105193701695e+00 0.0000000000000000e+00  5.8672821350676818e+00 4.6325325561904780e+00 0.0000000000000000e+00  5.8212120543949428e+00 4.6960723640260138e+00 0.0000000000000000e+00  5.7307704940324120e+00 4.7893535882432028e+00 0.0000000000000000e+00  5.6641045500952467e+00 4.9122859654762951e+00 0.0000000000000000e+00  5.5729404235161102e+00 5.0158044049623154e+00 0.0000000000000000e+00  5.5379279583025838e+00 5.0511077797152950e+00 0.0000000000000000e+00  5.4175093539541130e+00 5.2508844128077587e+00 0.0000000000000000e+00  5.3850562700500495e+00 5.2522537676226442e+00 0.0000000000000000e+00  5.2996100076547616e+00 5.4033713715871414e+00 0.0000000000000000e+00  5.2264149060913265e+00 5.4851724556430410e+00 0.0000000000000000e+00  5.1597015936059138e+00 5.5875024545420944e+00 0.0000000000000000e+00  5.1211966777235158e+00 5.6376179447157995e+00 0.0000000000000000e+00  4.9726127587850186e+00 5.8457193872938529e+00 0.0000000000000000e+00  4.9805034202265563e+00 5.8375892324045795e+00 0.0000000000000000e+00  4.8994668513800610e+00 5.9482125607703864e+00 0.0000000000000000e+00  4.7478422377938854e+00 6.1672537422615177e+00 0.0000000000000000e+00  4.7653187904185277e+00 6.1408864833961871e+00 0.0000000000000000e+00  4.7226988181660872e+00 6.2031919148463386e+00 0.0000000000000000e+00  4.4689904500684552e+00 6.5624619096393477e+00 0.0000000000000000e+00  4.5818643748252512e+00 6.4144953390143415e+00 0.0000000000000000e+00  4.4909137057608230e+00 6.5312176546497440e+00 0.0000000000000000e+00  4.3982001493353025e+00 6.6757073070702697e+00 0.0000000000000000e+00  4.3583633490647298e+00 6.7556037298948484e+00 0.0000000000000000e+00  4.2349320970589455e+00 6.9010959646890653e+00 0.0000000000000000e+00  4.2106739668357900e+00 6.9660328299140062e+00 0.0000000000000000e+00  4.1122642789722219e+00 7.0852561651139840e+00 0.0000000000000000e+00  4.0952367829982483e+00 7.1498888697519769e+00 0.0000000000000000e+00  3.9244128374913099e+00 7.3632431603496169e+00 0.0000000000000000e+00  3.9631661685570676e+00 7.3638218864882772e+00 0.0000000000000000e+00  3.8396349106467200e+00 7.5218084952758684e+00 0.0000000000000000e+00  3.8599458183725832e+00 7.4954005213488655e+00 0.0000000000000000e+00  3.8682908714738735e+00 7.5348007026872512e+00 0.0000000000000000e+00  3.6255466900078241e+00 7.8224084824656090e+00 0.0000000000000000e+00  3.6878816937603478e+00 7.7880299022233013e+00 0.0000000000000000e+00  3.7559463582927783e+00 7.6043409643522182e+00 0.0000000000000000e+00  3.9437295577804004e+00 7.3796489478447436e+00 0.0000000000000000e+00  3.8576662017326209e+00 7.4565442139005143e+00 0.0000000000000000e+00  3.9290994850751555e+00 7.3859593313259815e+00 0.0000000000000000e+00  3.8231403230439138e+00 7.5024782483683996e+00 0.0000000000000000e+00  3.8934727940557594e+00 7.4120109121531454e+00 0.0000000000000000e+00  3.8956914017711042e+00 7.4141483907665746e+00 0.0000000000000000e+00  3.8823142578413230e+00 7.4137776152054427e+00 0.0000000000000000e+00  3.8952222815096427e+00 7.4053995041546674e+00 0.0000000000000000e+00  3.8967666538659911e+00 7.3915824530546974e+00 0.0000000000000000e+00  3.9043691178914202e+00 7.3959774539283130e+00 0.0000000000000000e+00  3.8858915306838253e+00 7.3966022923158690e+00 0.0000000000000000e+00  3.8957553533057974e+00 7.3987016428789998e+00 0.0000000000000000e+00  3.8594930144554671e+00 7.4206622975351770e+00 0.0000000000000000e+00  3.8628226027856747e+00 7.4251101726011148e+00 0.0000000000000000e+00  3.8728070215259787e+00 7.3974230770307363e+00 0.0000000000000000e+00  3.9312951389855342e+00 7.3439154318464706e+00 0.0000000000000000e+00  3.9502348004182330e+00 7.3176602850261068e+00 0.0000000000000000e+00  3.9665114787894660e+00 7.3124976568546503e+00 0.0000000000000000e+00  3.9654384773267570e+00 7.3138229253999603e+00 0.0000000000000000e+00  3.9877455571545020e+00 7.2988264275802583e+00 0.0000000000000000e+00  3.9997522797360312e+00 7.2876463036190682e+00 0.0000000000000000e+00  4.0070501453149330e+00 7.2866046241415852e+00 0.0000000000000000e+00  4.0009445881043826e+00 7.2956742342936804e+00 0.0000000000000000e+00  4.0001238683506894e+00 7.2996823004724760e+00 0.0000000000000000e+00  4.0028888517143084e+00 7.2971216290167682e+00 0.0000000000000000e+00  4.0076301066065456e+00 7.2935148867265216e+00 0.0000000000000000e+00  4.0065155245863622e+00 7.2956680313554934e+00 0.0000000000000000e+00  4.0006453356716989e+00 7.3025136525014558e+00 0.0000000000000000e+00  3.9935052393318555e+00 7.3101185883493089e+00 0.0000000000000000e+00  3.9902002425414094e+00 7.3128474645897930e+00 0.0000000000000000e+00  3.9919858576699934e+00 7.3089027856772617e+00 0.0000000000000000e+00  3.9952959030020434e+00 7.3037541458015030e+00 0.0000000000000000e+00  3.9952367893068774e+00 7.3034232118041187e+00 0.0000000000000000e+00  3.9910348920397518e+00 7.3073976727633374e+00 0.0000000000000000e+00  3.9846701647497338e+00 7.3133868616405078e+00 0.0000000000000000e+00  3.9789330023009311e+00 7.3188306728317407e+00 0.0000000000000000e+00  3.9752954880457851e+00 7.3220323343243727e+00 0.0000000000000000e+00  3.9736613758732684e+00 7.3233444754481276e+00 0.0000000000000000e+00  3.9721178165597850e+00 7.3253192541059677e+00 0.0000000000000000e+00  3.9700706657041160e+00 7.3273683073346936e+00 0.0000000000000000e+00  3.9675736980198621e+00 7.3290697320481328e+00 0.0000000000000000e+00  3.9650184154873713e+00 7.3296980686682609e+00 0.0000000000000000e+00  3.9617597578536738e+00 7.3297772723022057e+00 0.0000000000000000e+00  3.9583874116023376e+00 7.3279009845158427e+00 0.0000000000000000e+00  3.9550949340369121e+00 7.3246259266548188e+00 0.0000000000000000e+00  3.9517366087930057e+00 7.3192546693909861e+00 0.0000000000000000e+00  3.9475770938190817e+00 7.3129699563306687e+00 0.0000000000000000e+00  3.9431553198993323e+00 7.3039795996680672e+00 0.0000000000000000e+00  3.9372155058403870e+00 7.2920758175278353e+00 0.0000000000000000e+00  3.9275795409939698e+00 7.2738218242953607e+00 0.0000000000000000e+00  3.9102197717636469e+00 7.2438698581612240e+00 0.0000000000000000e+00  3.8777503297997806e+00 7.1877720968035996e+00 0.0000000000000000e+00  3.8099962761062498e+00 7.0757354203271499e+00 0.0000000000000000e+00  3.6645463057311130e+00 6.8331866376998383e+00 0.0000000000000000e+00  3.3670298560495637e+00 6.3125938740651675e+00 0.0000000000000000e+00  2.7992633480605695e+00 5.1967307704538639e+00 0.0000000000000000e+00  1.9156499896095136e+00 2.9867513862485398e+00 0.0000000000000000e+00  1.1223133553722295e+00 3.3732540166205743e-01 0.0000000000000000e+00  9.9514011873730868e-01 5.1007711651134798e-03 0.0000000000000000e+00  1.0007010438293229e+00 -2.7447201302602526e-03 0.0000000000000000e+00  9.9993762947446352e-01 8.1559098862722611e-05 0.0000000000000000e+00  9.9996879848069975e-01 1.6686312213335701e-04 0.0000000000000000e+00  9.9999804041934359e-01 -5.8265847991210473e-05 0.0000000000000000e+00  1.0000199913077585e+00 -7.5491285555423778e-06 0.0000000000000000e+00  9.9998096464149089e-01 1.4343400520233403e-05 0.0000000000000000e+00  1.0000121173138306e+00 -2.1920472552932360e-06 0.0000000000000000e+00  9.9999396473005486e-01 -8.2914606561755829e-06 0.0000000000000000e+00  1.0000022506596786e+00 1.2896480700268803e-05 0.0000000000000000e+00  9.9999979978941600e-01 -1.3498731906720335e-05 0.0000000000000000e+00  9.9999907825526380e-01 1.2543031797568066e-05 0.0000000000000000e+00  1.0000015893796781e+00 -1.1334603524140091e-05 0.0000000000000000e+00  9.9999804006770276e-01 1.0148588381574404e-05 0.0000000000000000e+00  1.0000020605613529e+00 -8.8574531002023367e-06 0.0000000000000000e+00  9.9999807084440651e-01 7.3909839680499058e-06 0.0000000000000000e+00  1.0000016488206767e+00 -5.8522424726754380e-06 0.0000000000000000e+00  9.9999868252992630e-01 4.4222059043900324e-06 0.0000000000000000e+00  1.0000010070845951e+00 -3.2328588901112300e-06 0.0000000000000000e+00  9.9999924732721646e-01 2.3239762221421864e-06 0.0000000000000000e+00  1.0000005543619013e+00 -1.6531710670264279e-06 0.0000000000000000e+00  9.9999959215304168e-01 1.1738858354301325e-06 0.0000000000000000e+00  1.0000002907302143e+00 -8.0678318981344211e-07 0.0000000000000000e+00  9.9999979233113712e-01 5.6805205319956852e-07 0.0000000000000000e+00  1.0000001309706077e+00 -3.6047153215996593e-07 0.0000000000000000e+00  9.9999990107040382e-01 3.0164359290830212e-07 0.0000000000000000e+00  1.0000000524982484e+00 -1.3191873945902217e-07 0.0000000000000000e+00  1.0000000042196666e+00 0.0000000000000000e+00 -5.4861002767338375e-08  9.9999994386008884e-01 0.0000000000000000e+00 3.9746072436967516e-08  1.0000000015670039e+00 0.0000000000000000e+00 1.0588317483702015e-08  9.9999992918431069e-01 0.0000000000000000e+00 -8.8070466531739283e-08  9.9999999697906250e-01 0.0000000000000000e+00 -4.0362831675729961e-08  1.0000000115390646e+00 0.0000000000000000e+00 -6.9834973304824325e-08  1.0000000065473880e+00 0.0000000000000000e+00 9.3505744048275043e-08  9.9999994165139927e-01 0.0000000000000000e+00 -1.3034018702371396e-07  1.0000000104174871e+00 0.0000000000000000e+00 -4.3251262814392756e-08  1.0000000964945095e+00 0.0000000000000000e+00 -1.3468061444987293e-07  9.9999998447578764e-01 0.0000000000000000e+00 2.0005131232137583e-08  1.0000000237045854e+00 0.0000000000000000e+00 -1.4777851658579563e-07  1.0000001251131527e+00 0.0000000000000000e+00 1.3092181857819998e-07  1.0000000641914879e+00 0.0000000000000000e+00 -4.2427956979626473e-08  9.9999991718673087e-01 0.0000000000000000e+00 1.7926570877796420e-07  1.0000000845872883e+00 0.0000000000000000e+00 -1.7353553622655435e-07  1.0000000350513214e+00 0.0000000000000000e+00 1.0986098827247774e-07  9.9999997233609228e-01 0.0000000000000000e+00 -9.3692367642488636e-08  9.9999999346660973e-01 0.0000000000000000e+00 4.9399869005604996e-08  1.0000001013068087e+00 0.0000000000000000e+00 -1.9358370004399118e-07  9.9999998556348590e-01 0.0000000000000000e+00 1.9230891717865039e-07  9.9999998584832639e-01 0.0000000000000000e+00 -9.7789366115828679e-08  9.9999999319656718e-01 0.0000000000000000e+00 1.9229509923538306e-08  1.0000000430436939e+00 0.0000000000000000e+00 -7.9316269068435792e-08  9.9999998676258339e-01 0.0000000000000000e+00 7.2200153830035667e-08  9.9999999610909296e-01 0.0000000000000000e+00 -2.1139960706224625e-08  9.9999999250662019e-01 0.0000000000000000e+00 5.5763779955840809e-09  1.0000000050910856e+00 0.0000000000000000e+00 -1.2518611362920365e-08  9.9999998995268624e-01 0.0000000000000000e+00 2.0873370315701170e-08  9.9999999526761651e-01 0.0000000000000000e+00 -1.2486443174018627e-08  9.9999999379547766e-01 0.0000000000000000e+00 1.9689933498170670e-09  1.0000000015236470e+00 0.0000000000000000e+00 -1.1435315044572896e-08  9.9999999697208353e-01 0.0000000000000000e+00 7.5006066802191676e-09  9.9999999854008892e-01 0.0000000000000000e+00 4.4568574624921758e-10  9.9999999538678508e-01 0.0000000000000000e+00 1.4310152083992205e-09  9.9999999599683698e-01 0.0000000000000000e+00 -3.6881440907627840e-09  9.9999999965872377e-01 0.0000000000000000e+00 -8.3199338995065014e-10  9.9999999771681825e-01 0.0000000000000000e+00 -7.0485440498255155e-09  1.0000000012950077e+00 0.0000000000000000e+00 6.8173312499765764e-09  1.0000000038118120e+00 -8.5009056699118537e-09 0.0000000000000000e+00  9.9999999303630138e-01 2.4420004065691790e-08 0.0000000000000000e+00  1.0000000093519050e+00 -2.8166407481760063e-08 0.0000000000000000e+00  9.9999999191266553e-01 2.9004576674075130e-08 0.0000000000000000e+00  1.0000000080749942e+00 -2.2732985892928433e-08 0.0000000000000000e+00  1.0000000029293807e+00 -1.9449437826943435e-08 0.0000000000000000e+00  9.9999999609395196e-01 9.8598859909879986e-08 0.0000000000000000e+00  9.9999999518373817e-01 -1.4976759022770378e-07 0.0000000000000000e+00  1.0000001250349126e+00 -2.2760088541682556e-07 0.0000000000000000e+00  9.9999953945265407e-01 9.7321527950051272e-07 0.0000000000000000e+00  1.0000007999321026e+00 -2.4207800538539097e-06 0.0000000000000000e+00  9.9999875167035135e-01 3.8461000447163070e-06 0.0000000000000000e+00  1.0000012266381706e+00 -4.1897557718601737e-06 0.0000000000000000e+00  9.9999916920468357e-01 3.3967135309015232e-06 0.0000000000000000e+00  1.0000003505470154e+00 -1.7650681315163900e-06 0.0000000000000000e+00  9.9999967606507867e-01 -1.2430215456625696e-06 0.0000000000000000e+00  1.0000003420475025e+00 6.9925219808459387e-06 0.0000000000000000e+00  1.0000000649184799e+00 -3.8261663632974762e-06 0.0000000000000000e+00  1.0000046981126260e+00 -1.8191201049383765e-05 0.0000000000000000e+00  9.9998577215064721e-01 2.4947873624552152e-05 0.0000000000000000e+00  1.0000160499397297e+00 -2.4464639873367371e-05 0.0000000000000000e+00  9.9997096930178597e-01 1.5755872993145148e-05 0.0000000000000000e+00  1.0000538112583315e+00 -5.8952424466420753e-05 0.0000000000000000e+00  9.9991478895206187e-01 5.5018649973855683e-05 0.0000000000000000e+00  9.9985725501638845e-01 7.2218925752202338e-04 0.0000000000000000e+00  1.0011115536485369e+00 -4.5045389472561257e-03 0.0000000000000000e+00  9.9515950055361180e-01 5.8254512211471775e-03 0.0000000000000000e+00  1.1963240583712040e+00 5.9590885291427931e-01 0.0000000000000000e+00  2.0868258068266812e+00 3.4533066085745907e+00 0.0000000000000000e+00  2.9099929340201931e+00 5.4251044732086049e+00 0.0000000000000000e+00  3.4527772336324434e+00 6.3599484942527011e+00 0.0000000000000000e+00  3.7162228650766425e+00 6.7713877861397531e+00 0.0000000000000000e+00  3.8242248599151343e+00 7.0045624960036426e+00 0.0000000000000000e+00  3.8940132209876626e+00 7.0668263564401927e+00 0.0000000000000000e+00  3.9387247256932172e+00 7.0706931333802334e+00 0.0000000000000000e+00  3.9472360388600962e+00 7.0979555369568645e+00 0.0000000000000000e+00  3.9141209279852687e+00 6.9366132910138756e+00 0.0000000000000000e+00  3.9391498596337189e+00 7.0374009220721909e+00 0.0000000000000000e+00  3.9569562285651503e+00 7.1135296618530468e+00 0.0000000000000000e+00  3.9400074747019533e+00 7.0349791701552702e+00 0.0000000000000000e+00  3.9270111526787956e+00 7.0347470771896470e+00 0.0000000000000000e+00  3.9454715717806428e+00 7