<?xml version="1.0"?>
<VTKFile type="UnstructuredGrid"  version="0.1"  >
<UnstructuredGrid>
<Piece  NumberOfPoints="9509" NumberOfCells="18536">
<Points>
<DataArray  type="Float64"  NumberOfComponents="3"  format="ascii">-5 -1 0  5 -1 0  5 1 0  -5 1 0  -4.949999999999965 -1 0  -4.899999999999877 -1 0  -4.849999999999826 -1 0  -4.799999999999754 -1 0  -4.749999999999695 -1 0  -4.69999999999963 -1 0  -4.649999999999565 -1 0  -4.599999999999507 -1 0  -4.549999999999454 -1 0  -4.499999999999384 -1 0  -4.449999999999317 -1 0  -4.399999999999261 -1 0  -4.349999999999206 -1 0  -4.299999999999137 -1 0  -4.249999999999075 -1 0  -4.199999999999013 -1 0  -4.149999999998934 -1 0  -4.09999999999889 -1 0  -4.049999999998847 -1 0  -3.999999999998767 -1 0  -3.949999999998706 -1 0  -3.899999999998644 -1 0  -3.849999999998594 -1 0  -3.799999999998552 -1 0  -3.749999999998549 -1 0  -3.699999999998651 -1 0  -3.649999999998804 -1 0  -3.59999999999894 -1 0  -3.549999999999097 -1 0  -3.499999999999261 -1 0  -3.449999999999394 -1 0  -3.399999999999582 -1 0  -3.349999999999742 -1 0  -3.299999999999902 -1 0  -3.25000000000006 -1 0  -3.200000000000223 -1 0  -3.150000000000369 -1 0  -3.100000000000544 -1 0  -3.050000000000704 -1 0  -3.000000000000864 -1 0  -2.950000000001029 -1 0  -2.900000000001185 -1 0  -2.850000000001347 -1 0  -2.800000000001506 -1 0  -2.750000000001665 -1 0  -2.700000000001827 -1 0  -2.650000000001979 -1 0  -2.600000000002148 -1 0  -2.550000000002311 -1 0  -2.500000000002468 -1 0  -2.450000000002635 -1 0  -2.400000000002789 -1 0  -2.35000000000295 -1 0  -2.30000000000311 -1 0  -2.250000000003253 -1 0  -2.200000000003431 -1 0  -2.150000000003601 -1 0  -2.100000000003752 -1 0  -2.050000000003922 -1 0  -2.000000000004072 -1 0  -1.950000000004237 -1 0  -1.900000000004393 -1 0  -1.850000000004541 -1 0  -1.800000000004714 -1 0  -1.750000000004886 -1 0  -1.700000000005035 -1 0  -1.650000000005206 -1 0  -1.600000000005355 -1 0  -1.550000000005516 -1 0  -1.500000000005676 -1 0  -1.450000000005824 -1 0  -1.400000000005996 -1 0  -1.350000000006146 -1 0  -1.300000000006318 -1 0  -1.250000000006505 -1 0  -1.200000000006638 -1 0  -1.150000000006797 -1 0  -1.100000000006959 -1 0  -1.050000000007106 -1 0  -1.000000000007245 -1 0  -0.9500000000072193 -1 0  -0.9000000000072612 -1 0  -0.8500000000071966 -1 0  -0.8000000000071381 -1 0  -0.750000000007085 -1 0  -0.700000000007015 -1 0  -0.6500000000069521 -1 0  -0.6000000000068919 -1 0  -0.5500000000068104 -1 0  -0.5000000000067688 -1 0  -0.4500000000067104 -1 0  -0.4000000000066457 -1 0  -0.3500000000065757 -1 0  -0.3000000000065226 -1 0  -0.2500000000064961 -1 0  -0.2000000000063995 -1 0  -0.1500000000063775 -1 0  -0.1000000000062764 -1 0  -0.0500000000062597 -1 0  -6.153300091682468e-12 -1 0  0.04999999999390781 -1 0  0.09999999999396891 -1 0  0.14999999999403 -1 0  0.1999999999940929 -1 0  0.2499999999941318 -1 0  0.299999999994216 -1 0  0.349999999994254 -1 0  0.3999999999943391 -1 0  0.4499999999944038 -1 0  0.4999999999944613 -1 0  0.5499999999945429 -1 0  0.5999999999945853 -1 0  0.6499999999946606 -1 0  0.6999999999947084 -1 0  0.7499999999947651 -1 0  0.7999999999948315 -1 0  0.8499999999948926 -1 0  0.8999999999949537 -1 0  0.9499999999950148 -1 0  0.9999999999950768 -1 0  1.049999999995139 -1 0  1.0999999999952 -1 0  1.149999999995266 -1 0  1.199999999995324 -1 0  1.249999999995385 -1 0  1.299999999995446 -1 0  1.349999999995488 -1 0  1.399999999995569 -1 0  1.449999999995604 -1 0  1.499999999995692 -1 0  1.549999999995753 -1 0  1.599999999995816 -1 0  1.649999999995892 -1 0  1.699999999995939 -1 0  1.749999999996017 -1 0  1.799999999996063 -1 0  1.849999999996111 -1 0  1.899999999996185 -1 0  1.949999999996246 -1 0  1.999999999996308 -1 0  2.049999999996351 -1 0  2.099999999996431 -1 0  2.149999999996504 -1 0  2.199999999996555 -1 0  2.249999999996616 -1 0  2.299999999996677 -1 0  2.349999999996736 -1 0  2.3999999999968 -1 0  2.449999999996847 -1 0  2.499999999996923 -1 0  2.549999999997 -1 0  2.599999999997047 -1 0  2.649999999997093 -1 0  2.69999999999717 -1 0  2.749999999997245 -1 0  2.799999999997293 -1 0  2.849999999997344 -1 0  2.899999999997416 -1 0  2.949999999997469 -1 0  2.999999999997539 -1 0  3.049999999997576 -1 0  3.099999999997662 -1 0  3.149999999997725 -1 0  3.199999999997784 -1 0  3.249999999997829 -1 0  3.299999999997908 -1 0  3.349999999997921 -1 0  3.39999999999803 -1 0  3.4499999999981 -1 0  3.499999999998153 -1 0  3.549999999998214 -1 0  3.599999999998277 -1 0  3.649999999998409 -1 0  3.699999999998401 -1 0  3.749999999998444 -1 0  3.799999999998523 -1 0  3.849999999998602 -1 0  3.899999999998645 -1 0  3.949999999998658 -1 0  3.999999999998769 -1 0  4.049999999998814 -1 0  4.099999999998893 -1 0  4.149999999998883 -1 0  4.199999999999015 -1 0  4.249999999999064 -1 0  4.299999999999137 -1 0  4.349999999999152 -1 0  4.399999999999261 -1 0  4.44999999999933 -1 0  4.499999999999385 -1 0  4.549999999999446 -1 0  4.599999999999508 -1 0  4.649999999999633 -1 0  4.699999999999632 -1 0  4.749999999999723 -1 0  4.799999999999754 -1 0  4.849999999999801 -1 0  4.899999999999876 -1 0  4.949999999999925 -1 0  5 -0.950000000000111 0  5 -0.9000000000002774 0  5 -0.8500000000004283 0  5 -0.8000000000005548 0  5 -0.7500000000006787 0  5 -0.7000000000008322 0  5 -0.6500000000009709 0  5 -0.6000000000011096 0  5 -0.5500000000012484 0  5 -0.500000000001387 0  5 -0.4500000000015256 0  5 -0.4000000000016644 0  5 -0.3500000000018031 0  5 -0.3000000000019418 0  5 -0.2500000000020806 0  5 -0.2000000000022192 0  5 -0.1500000000023578 0  5 -0.1000000000024964 0  5 -0.05000000000262439 0  5 -2.752242878045763e-12 0  5 0.0499999999973757 0  5 0.09999999999750342 0  5 0.1499999999976422 0  5 0.1999999999977808 0  5 0.2499999999979194 0  5 0.2999999999980583 0  5 0.3499999999981969 0  5 0.3999999999983355 0  5 0.4499999999984743 0  5 0.4999999999986129 0  5 0.5499999999987515 0  5 0.5999999999988903 0  5 0.6499999999990291 0  5 0.699999999999168 0  5 0.7499999999993068 0  5 0.7999999999994454 0  5 0.849999999999584 0  5 0.8999999999997226 0  5 0.9499999999998612 0  4.949999999999965 1 0  4.899999999999877 1 0  4.849999999999826 1 0  4.799999999999754 1 0  4.749999999999695 1 0  4.69999999999963 1 0  4.649999999999565 1 0  4.599999999999507 1 0  4.549999999999454 1 0  4.499999999999384 1 0  4.449999999999317 1 0  4.399999999999261 1 0  4.349999999999206 1 0  4.299999999999137 1 0  4.249999999999075 1 0  4.199999999999013 1 0  4.149999999998934 1 0  4.09999999999889 1 0  4.049999999998847 1 0  3.999999999998767 1 0  3.949999999998706 1 0  3.899999999998644 1 0  3.849999999998594 1 0  3.799999999998552 1 0  3.749999999998549 1 0  3.699999999998651 1 0  3.649999999998804 1 0  3.59999999999894 1 0  3.549999999999097 1 0  3.499999999999261 1 0  3.449999999999394 1 0  3.399999999999582 1 0  3.349999999999742 1 0  3.299999999999902 1 0  3.25000000000006 1 0  3.200000000000223 1 0  3.150000000000369 1 0  3.100000000000544 1 0  3.050000000000704 1 0  3.000000000000864 1 0  2.950000000001029 1 0  2.900000000001185 1 0  2.850000000001347 1 0  2.800000000001506 1 0  2.750000000001665 1 0  2.700000000001827 1 0  2.650000000001979 1 0  2.600000000002148 1 0  2.550000000002311 1 0  2.500000000002468 1 0  2.450000000002635 1 0  2.400000000002789 1 0  2.35000000000295 1 0  2.30000000000311 1 0  2.250000000003253 1 0  2.200000000003431 1 0  2.150000000003601 1 0  2.100000000003752 1 0  2.050000000003922 1 0  2.000000000004072 1 0  1.950000000004237 1 0  1.900000000004393 1 0  1.850000000004541 1 0  1.800000000004714 1 0  1.750000000004886 1 0  1.700000000005035 1 0  1.650000000005206 1 0  1.600000000005355 1 0  1.550000000005516 1 0  1.500000000005676 1 0  1.450000000005824 1 0  1.400000000005996 1 0  1.350000000006146 1 0  1.300000000006318 1 0  1.250000000006505 1 0  1.200000000006638 1 0  1.150000000006797 1 0  1.100000000006959 1 0  1.050000000007106 1 0  1.000000000007245 1 0  0.9500000000072193 1 0  0.9000000000072612 1 0  0.8500000000071966 1 0  0.8000000000071381 1 0  0.750000000007085 1 0  0.700000000007015 1 0  0.6500000000069521 1 0  0.6000000000068919 1 0  0.5500000000068104 1 0  0.5000000000067688 1 0  0.4500000000067104 1 0  0.4000000000066457 1 0  0.3500000000065757 1 0  0.3000000000065226 1 0  0.2500000000064961 1 0  0.2000000000063995 1 0  0.1500000000063775 1 0  0.1000000000062764 1 0  0.0500000000062597 1 0  6.153300091682468e-12 1 0  -0.04999999999390781 1 0  -0.09999999999396891 1 0  -0.14999999999403 1 0  -0.1999999999940929 1 0  -0.2499999999941318 1 0  -0.299999999994216 1 0  -0.349999999994254 1 0  -0.3999999999943391 1 0  -0.4499999999944038 1 0  -0.4999999999944613 1 0  -0.5499999999945429 1 0  -0.5999999999945853 1 0  -0.6499999999946606 1 0  -0.6999999999947084 1 0  -0.7499999999947651 1 0  -0.7999999999948315 1 0  -0.8499999999948926 1 0  -0.8999999999949537 1 0  -0.9499999999950148 1 0  -0.9999999999950768 1 0  -1.049999999995139 1 0  -1.0999999999952 1 0  -1.149999999995266 1 0  -1.199999999995324 1 0  -1.249999999995385 1 0  -1.299999999995446 1 0  -1.349999999995488 1 0  -1.399999999995569 1 0  -1.449999999995604 1 0  -1.499999999995692 1 0  -1.549999999995753 1 0  -1.599999999995816 1 0  -1.649999999995892 1 0  -1.699999999995939 1 0  -1.749999999996017 1 0  -1.799999999996063 1 0  -1.849999999996111 1 0  -1.899999999996185 1 0  -1.949999999996246 1 0  -1.999999999996308 1 0  -2.049999999996351 1 0  -2.099999999996431 1 0  -2.149999999996504 1 0  -2.199999999996555 1 0  -2.249999999996616 1 0  -2.299999999996677 1 0  -2.349999999996736 1 0  -2.3999999999968 1 0  -2.449999999996847 1 0  -2.499999999996923 1 0  -2.549999999997 1 0  -2.599999999997047 1 0  -2.649999999997093 1 0  -2.69999999999717 1 0  -2.749999999997245 1 0  -2.799999999997293 1 0  -2.849999999997344 1 0  -2.899999999997416 1 0  -2.949999999997469 1 0  -2.999999999997539 1 0  -3.049999999997576 1 0  -3.099999999997662 1 0  -3.149999999997725 1 0  -3.199999999997784 1 0  -3.249999999997829 1 0  -3.29999
[...]
<PointData  Vectors="(h, u)"> 
<DataArray  type="Float64"  Name="(h, u)"  NumberOfComponents="3" format="ascii">4.6253295321329606e+00 0.0000000000000000e+00 0.0000000000000000e+00  9.5001863158346342e+00 0.0000000000000000e+00 0.0000000000000000e+00  9.5012070473427137e+00 0.0000000000000000e+00 0.0000000000000000e+00  4.6198962183959624e+00 0.0000000000000000e+00 0.0000000000000000e+00  4.6263510343225169e+00 4.5354598956872633e-02 0.0000000000000000e+00  4.6248837900961330e+00 1.6115575409831015e-01 0.0000000000000000e+00  4.6290272664212955e+00 2.0804743256067498e-01 0.0000000000000000e+00  4.6225046863184378e+00 2.0017620824529236e-01 0.0000000000000000e+00  4.6264475199097346e+00 3.3816768262572333e-01 0.0000000000000000e+00  4.6255957344387930e+00 4.3260756678212142e-01 0.0000000000000000e+00  4.6242166885982279e+00 3.9230547255498222e-01 0.0000000000000000e+00  4.6282333167294381e+00 6.1230665512485405e-01 0.0000000000000000e+00  4.6199611571051218e+00 5.6215056002045205e-01 0.0000000000000000e+00  4.6237413627143820e+00 6.3660525099683762e-01 0.0000000000000000e+00  4.6241877780077010e+00 7.3359956528761872e-01 0.0000000000000000e+00  4.6207332506584669e+00 8.3622446729520772e-01 0.0000000000000000e+00  4.6152605742726385e+00 7.3467849248139028e-01 0.0000000000000000e+00  4.6279937007264840e+00 1.0148794908439325e+00 0.0000000000000000e+00  4.6120097939700422e+00 9.6397128970694301e-01 0.0000000000000000e+00  4.6194523003554178e+00 1.0070652694980382e+00 0.0000000000000000e+00  4.6175546572794230e+00 1.1136400625715814e+00 0.0000000000000000e+00  4.6197129831956403e+00 1.2687987951758879e+00 0.0000000000000000e+00  4.6043674608943714e+00 1.1142548198010394e+00 0.0000000000000000e+00  4.6276125062165514e+00 1.3722582692207304e+00 0.0000000000000000e+00  4.6036480705007419e+00 1.3845511209263062e+00 0.0000000000000000e+00  4.6142551157451557e+00 1.4032984446778693e+00 0.0000000000000000e+00  4.6102342569238228e+00 1.5093586655612550e+00 0.0000000000000000e+00  4.6148700812501833e+00 1.5719462013819361e+00 0.0000000000000000e+00  4.5950030605557028e+00 1.6114396351873963e+00 0.0000000000000000e+00  4.6209526950308035e+00 1.7267553967562768e+00 0.0000000000000000e+00  4.5966348090382443e+00 1.7244091227022300e+00 0.0000000000000000e+00  4.6039021826371851e+00 1.8289394557856371e+00 0.0000000000000000e+00  4.6030685025383598e+00 1.9074689014811610e+00 0.0000000000000000e+00  4.6055338522654612e+00 1.9437167893673224e+00 0.0000000000000000e+00  4.5852070657333037e+00 2.0112636838553541e+00 0.0000000000000000e+00  4.6115013244398773e+00 2.0847848036980632e+00 0.0000000000000000e+00  4.5882170063715959e+00 2.1595910474045072e+00 0.0000000000000000e+00  4.5906572239024017e+00 2.1956450913697005e+00 0.0000000000000000e+00  4.5969488549709503e+00 2.2818846524495120e+00 0.0000000000000000e+00  4.5908762195932331e+00 2.3320357716161624e+00 0.0000000000000000e+00  4.5773007663652887e+00 2.4238720540750145e+00 0.0000000000000000e+00  4.5977752685122404e+00 2.4363793513277141e+00 0.0000000000000000e+00  4.5788287385847042e+00 2.5607784183153850e+00 0.0000000000000000e+00  4.5750612981464096e+00 2.5908308037003307e+00 0.0000000000000000e+00  4.5878233809326670e+00 2.6541295838483148e+00 0.0000000000000000e+00  4.5733680973268926e+00 2.7347575580918990e+00 0.0000000000000000e+00  4.5667475021475532e+00 2.8026233316043250e+00 0.0000000000000000e+00  4.5798808477922837e+00 2.8316242412457822e+00 0.0000000000000000e+00  4.5654012102654917e+00 2.9534145066031052e+00 0.0000000000000000e+00  4.5578026511204968e+00 2.9540729441660223e+00 0.0000000000000000e+00  4.5717889536211276e+00 3.0861816149919723e+00 0.0000000000000000e+00  4.5539107257008151e+00 3.0742895711320961e+00 0.0000000000000000e+00  4.5521488687436351e+00 3.2150783999381960e+00 0.0000000000000000e+00  4.5579263722072492e+00 3.2208668725231830e+00 0.0000000000000000e+00  4.5472046486992026e+00 3.3131299040923832e+00 0.0000000000000000e+00  4.5405415077598574e+00 3.3649943251974390e+00 0.0000000000000000e+00  4.5496515897183070e+00 3.4446876745063517e+00 0.0000000000000000e+00  4.5335614692229651e+00 3.4777519152666843e+00 0.0000000000000000e+00  4.5357685991256531e+00 3.5716471417939166e+00 0.0000000000000000e+00  4.5335608431942545e+00 3.6206709065940683e+00 0.0000000000000000e+00  4.5264419879231141e+00 3.6776510258183195e+00 0.0000000000000000e+00  4.5233983124604915e+00 3.7559887988908671e+00 0.0000000000000000e+00  4.5223752416243252e+00 3.8017627825258176e+00 0.0000000000000000e+00  4.5104212105104740e+00 3.8948149800893126e+00 0.0000000000000000e+00  4.5168854360347170e+00 3.9064197937554690e+00 0.0000000000000000e+00  4.5029246573533266e+00 4.0325113228721658e+00 0.0000000000000000e+00  4.4999491909171248e+00 4.0541217580053912e+00 0.0000000000000000e+00  4.5028779648241395e+00 4.1140800667039708e+00 0.0000000000000000e+00  4.4925135589868761e+00 4.2058764941022222e+00 0.0000000000000000e+00  4.4828596706516288e+00 4.2551272313441331e+00 0.0000000000000000e+00  4.4932470249719332e+00 4.2820141830269511e+00 0.0000000000000000e+00  4.4791076447638023e+00 4.4145903482848006e+00 0.0000000000000000e+00  4.4709734228382176e+00 4.4034947040290673e+00 0.0000000000000000e+00  4.4809432487344782e+00 4.5016225807549306e+00 0.0000000000000000e+00  4.4700939758407934e+00 4.5623051826228895e+00 0.0000000000000000e+00  4.4599268370750522e+00 4.5923667096710217e+00 0.0000000000000000e+00  4.4554529205862021e+00 4.7083148199910978e+00 0.0000000000000000e+00  4.4648542890672873e+00 4.7093924916503527e+00 0.0000000000000000e+00  4.4365592534591984e+00 4.8012940890459603e+00 0.0000000000000000e+00  4.4340288488713950e+00 4.8930938361603911e+00 0.0000000000000000e+00  4.4385279476370814e+00 4.8878136862762940e+00 0.0000000000000000e+00  4.4381844600555507e+00 4.9793209962445175e+00 0.0000000000000000e+00  4.3903320292133490e+00 5.0796892922333532e+00 0.0000000000000000e+00  4.4238078420284879e+00 5.0875056314984093e+00 0.0000000000000000e+00  4.4087737202745707e+00 5.1401151503959346e+00 0.0000000000000000e+00  4.3926378333190836e+00 5.2687338547878761e+00 0.0000000000000000e+00  4.3723424048886548e+00 5.2445308103157968e+00 0.0000000000000000e+00  4.3876965485633628e+00 5.3921707358675937e+00 0.0000000000000000e+00  4.3705861338043981e+00 5.3733535625736453e+00 0.0000000000000000e+00  4.3563429759991328e+00 5.4542310484663519e+00 0.0000000000000000e+00  4.3393609401552657e+00 5.5880891799468699e+00 0.0000000000000000e+00  4.3509617194837729e+00 5.5371109355550319e+00 0.0000000000000000e+00  4.3173287614189428e+00 5.6482817277037087e+00 0.0000000000000000e+00  4.3416874529152700e+00 5.7369066394904360e+00 0.0000000000000000e+00  4.2855991334486108e+00 5.7238054272432857e+00 0.0000000000000000e+00  4.3323598784590978e+00 5.8082270240438323e+00 0.0000000000000000e+00  4.2977554849975599e+00 5.8746078068560363e+00 0.0000000000000000e+00  4.3201516661172574e+00 5.8479324475984722e+00 0.0000000000000000e+00  4.2367340053182447e+00 6.0362658551445856e+00 0.0000000000000000e+00  4.2998815918003981e+00 6.0347132311728409e+00 0.0000000000000000e+00  4.2513146499720875e+00 6.0219039492032165e+00 0.0000000000000000e+00  4.2203158010691491e+00 6.2342828686498617e+00 0.0000000000000000e+00  4.2462047892835519e+00 6.1667286917090900e+00 0.0000000000000000e+00  4.2505477809277394e+00 6.1885056639076268e+00 0.0000000000000000e+00  4.1387959574423556e+00 6.4312182482659219e+00 0.0000000000000000e+00  4.1933375462657452e+00 6.3560581095158186e+00 0.0000000000000000e+00  4.1871670501036764e+00 6.4001456558944056e+00 0.0000000000000000e+00  4.1531240237403795e+00 6.4968664233270452e+00 0.0000000000000000e+00  4.1900780874414547e+00 6.4682012275134548e+00 0.0000000000000000e+00  4.1640534054898737e+00 6.5463972296792514e+00 0.0000000000000000e+00  4.1348319573601238e+00 6.6014013836283594e+00 0.0000000000000000e+00  4.0842773178967882e+00 6.7174955513739620e+00 0.0000000000000000e+00  4.1137559436232092e+00 6.7082641547810899e+00 0.0000000000000000e+00  4.0776548739939420e+00 6.7605581743910994e+00 0.0000000000000000e+00  4.1174688619590247e+00 6.7719489784031781e+00 0.0000000000000000e+00  4.0323965703129971e+00 6.8840955448340928e+00 0.0000000000000000e+00  4.0220182956327060e+00 6.9261111004969962e+00 0.0000000000000000e+00  3.9711367444537617e+00 7.0527432828413525e+00 0.0000000000000000e+00  4.0368867526915109e+00 6.9468608215164460e+00 0.0000000000000000e+00  4.0345489319276906e+00 6.9866695698218377e+00 0.0000000000000000e+00  3.9806211129957911e+00 7.1004283786385143e+00 0.0000000000000000e+00  3.9397360387723444e+00 7.1285274093126008e+00 0.0000000000000000e+00  3.9201268035242709e+00 7.2352417706432863e+00 0.0000000000000000e+00  3.9362587000438833e+00 7.1703086076512266e+00 0.0000000000000000e+00  3.8825477876332539e+00 7.3340390559588160e+00 0.0000000000000000e+00  3.8800319290181418e+00 7.2796594886288188e+00 0.0000000000000000e+00  3.8617407794830121e+00 7.3878492746951441e+00 0.0000000000000000e+00  3.8914518141107215e+00 7.3253743737773149e+00 0.0000000000000000e+00  3.7876487170279911e+00 7.4713920748845695e+00 0.0000000000000000e+00  3.8231921653927814e+00 7.4939709794660114e+00 0.0000000000000000e+00  3.7547596025223986e+00 7.5285545459687997e+00 0.0000000000000000e+00  3.7745518320289335e+00 7.5746336594712060e+00 0.0000000000000000e+00  3.7594991514726628e+00 7.6004658534356384e+00 0.0000000000000000e+00  3.6773547249849421e+00 7.6964765220930760e+00 0.0000000000000000e+00  3.9479532808951321e+00 7.2932065645381607e+00 0.0000000000000000e+00  4.0062229924939201e+00 7.2427093096446278e+00 0.0000000000000000e+00  4.0033021761114655e+00 7.2037353379061404e+00 0.0000000000000000e+00  3.9245595481130140e+00 7.3522347708918607e+00 0.0000000000000000e+00  3.9328532819587427e+00 7.3365808459894204e+00 0.0000000000000000e+00  3.9388321724142079e+00 7.3376952320353341e+00 0.0000000000000000e+00  3.9421690158567357e+00 7.3159806998096348e+00 0.0000000000000000e+00  3.9346469596026710e+00 7.3669670655393675e+00 0.0000000000000000e+00  3.9498193458841171e+00 7.3082978017703404e+00 0.0000000000000000e+00  3.9357300559919257e+00 7.3601435305628939e+00 0.0000000000000000e+00  3.9335119121121194e+00 7.3449969226201031e+00 0.0000000000000000e+00  3.9306363837176304e+00 7.3597964497869590e+00 0.0000000000000000e+00  3.9639863403889128e+00 7.3038843120704859e+00 0.0000000000000000e+00  3.9533312965526410e+00 7.3464417180677417e+00 0.0000000000000000e+00  3.9138494333552760e+00 7.3523763736066110e+00 0.0000000000000000e+00  3.9783291447992220e+00 7.3220931658688428e+00 0.0000000000000000e+00  3.9491462745330956e+00 7.3172820593816148e+00 0.0000000000000000e+00  3.9386842057600364e+00 7.3482589150293389e+00 0.0000000000000000e+00  3.9429944082146426e+00 7.3794010969434956e+00 0.0000000000000000e+00  3.9566554945360828e+00 7.3078454750502226e+00 0.0000000000000000e+00  3.9369799661326308e+00 7.2511154637039654e+00 0.0000000000000000e+00  3.9675704901212345e+00 7.5731000589212139e+00 0.0000000000000000e+00  3.9922917888322069e+00 7.1438389988717201e+00 0.0000000000000000e+00  4.6431786717336374e+00 5.7043742232783794e+00 0.0000000000000000e+00  1.0125756987648804e+01 -5.3851054274147203e-01 0.0000000000000000e+00  9.0593299804586902e+00 4.5514765194668350e-01 0.0000000000000000e+00  9.5816558996268899e+00 -9.5632061044547828e-02 0.0000000000000000e+00  9.4979338669687738e+00 2.4516730646955394e-03 0.0000000000000000e+00  9.4669345783331025e+00 4.9048783682158204e-03 0.0000000000000000e+00  9.5425632931854452e+00 -4.7169758374841594e-02 0.0000000000000000e+00  9.4560858616327312e+00 4.8709290134288548e-02 0.0000000000000000e+00  9.5185845370037487e+00 -2.1955274784105232e-02 0.0000000000000000e+00  9.4899001883681535e+00 -2.6408025940213710e-03 0.0000000000000000e+00  9.5165709818412676e+00 5.8475035643971917e-03 0.0000000000000000e+00  9.4913139695493207e+00 1.8544369087456068e-02 0.0000000000000000e+00  9.5001610369261638e+00 -2.7078103618866814e-03 0.0000000000000000e+00  9.5124583125572126e+00 5.0783391110033945e-04 0.0000000000000000e+00  9.5079651971208872e+00 1.0014164894039402e-02 0.0000000000000000e+00  9.4957793054217827e+00 3.9748562878987185e-03 0.0000000000000000e+00  9.5130816546334938e+00 -1.8185221519188377e-03 0.0000000000000000e+00  9.5096265948991459e+00 9.5995850624582390e-03 0.0000000000000000e+00  9.5006643016756378e+00 2.1421000485310994e-03 0.0000000000000000e+00  9.5072507264141475e+00 1.9065229291646304e-02 0.0000000000000000e+00  9.5127121374869574e+00 -3.3185982959044475e-03 0.0000000000000000e+00  9.5008314940084464e+00 1.0782103422870467e-02 0.0000000000000000e+00  9.5069829213787926e+00 1.0653635584400543e-02 0.0000000000000000e+00  9.5124377874502564e+00 1.8607414899562632e-02 0.0000000000000000e+00  9.5042518400005171e+00 -2.3974522046929696e-03 0.0000000000000000e+00  9.5052716357474427e+00 1.6238165197086304e-02 0.0000000000000000e+00  9.5126237759962571e+00 -2.6217696004476186e-03 0.0000000000000000e+00  9.5067734817989908e+00 8.7319166077741688e-03 0.0000000000000000e+00  9.5029584580463773e+00 1.1692810394785185e-02 0.0000000000000000e+00  9.5125468224811076e+00 1.6558518023937732e-03 0.0000000000000000e+00  9.5057994276718638e+00 3.4182179920056181e-03 0.0000000000000000e+00  9.5041875313838595e+00 7.4223411819229227e-03 0.0000000000000000e+00  9.5068768003475661e+00 8.3878766579540773e-03 0.0000000000000000e+00  9.5103715786052341e+00 -1.7232203402174789e-03 0.0000000000000000e+00  9.4982710906380667e+00 2.5691405491100296e-02 0.0000000000000000e+00  9.5112062601720595e+00 -3.1542157186264567e-03 0.0000000000000000e+00  9.5036965417230910e+00 2.4842942038312558e-02 0.0000000000000000e+00  9.5066122477485191e+00 9.8911243977889453e-03 0.0000000000000000e+00  9.5019244922871682e+00 1.0384102112467887e-02 0.0000000000000000e+00  9.5136443268842559e+00 3.7003202692551945e-03 0.0000000000000000e+00  9.4975029857879747e+00 -5.1301819061817860e-03 0.0000000000000000e+00  9.5127460204996588e+00 2.8023394744792342e-02 0.0000000000000000e+00  9.5022699174016374e+00 -6.4972435439407880e-02 0.0000000000000000e+00  9.5098822488178847e+00 1.7178172187859896e-02 0.0000000000000000e+00  9.5015551932214102e+00 -5.3298300926132400e-02 0.0000000000000000e+00  9.5126907476479872e+00 -1.8394044051786806e-01 0.0000000000000000e+00  9.5110446624211864e+00 0.0000000000000000e+00 -6.4151691699092309e-02  9.5000826276507144e+00 0.0000000000000000e+00 -3.2351409704042426e-02  9.5097537620824415e+00 0.0000000000000000e+00 -3.1442859640952205e-02  9.5008330480703211e+00 0.0000000000000000e+00 -1.0180776940578351e-01  9.5096475271756447e+00 0.0000000000000000e+00 3.2327900672677053e-02  9.4993545606074878e+00 0.0000000000000000e+00 6.3580369077206864e-02  9.5085584765117144e+00 0.0000000000000000e+00 -5.1447166496215307e-03  9.4974355585691850e+00 0.0000000000000000e+00 -1.2771149490002906e-01  9.5071777045412986e+00 0.0000000000000000e+00 -9.3577087945657569e-02  9.4969848553157661e+00 0.0000000000000000e+00 1.4458881428394482e-01  9.5047465201544341e+00 0.0000000000000000e+00 -2.0415779840830966e-02  9.4908709251865435e+00 0.0000000000000000e+00 -1.6045417341554531e-02  9.5067617681300547e+00 0.0000000000000000e+00 -4.6007192078427170e-02  9.4914237435632636e+00 0.0000000000000000e+00 -4.0446376960508325e-02  9.4964071660229585e+00 0.0000000000000000e+00 -8.9835078620727080e-02  9.4908917974690308e+00 0.0000000000000000e+00 -1.9489649520555122e-01  9.4998206457631778e+00 0.0000000000000000e+00 -1.0441642705946790e-01  9.4855354420318481e+00 0.0000000000000000e+00 -2.7367706822142518e-01  9.4984466936432881e+00 0.0000000000000000e+00 4.8161947207423311e-02  9.4906605279586476e+00 0.0000000000000000e+00 5.6465652849604392e-02  9.4959306314629437e+00 0.0000000000000000e+00 -8.6149491203212400e-02  9.4894009098333409e+00 0.0000000000000000e+00 -2.3367622472119678e-01  9.4964290136877132e+00 0.0000000000000000e+00 -3.4760087463934809e-02  9.4929747717845459e+00 0.0000000000000000e+00 1.9390810608109862e-01  9.4936850538615349e+00 0.0000000000000000e+00 -1.0035970370687923e-02  9.4929329151271720e+00 0.0000000000000000e+00 4.3434155750984367e-02  9.5005122113909337e+00 0.0000000000000000e+00 -2.0725718843780890e-02  9.4918574352154295e+00 0.0000000000000000e+00 -1.3597585017615069e-01  9.4969654225765154e+00 0.0000000000000000e+00 -1.1366970107993864e-01  9.5017774843390903e+00 0.0000000000000000e+00 7.6151476442638213e-02  9.4939706516789144e+00 0.0000000000000000e+00 -5.3601410480136391e-02  9.4973909218593882e+00 0.0000000000000000e+00 -1.6612633903458934e-01  9.5040438208079205e+00 0.0000000000000000e+00 -4.0039985469034291e-02  9.4959015459114635e+00 0.0000000000000000e+00 -1.3009788857472820e-01  9.4978892297398687e+00 0.0000000000000000e+00 -1.2136852714035862e-01  9.5044301499756010e+00 0.0000000000000000e+00 -1.3304121354339493e-01  9.4969357560436780e+00 0.0000000000000000e+00 -1.4924420457905557e-01  9.4973973409491137e+00 0.0000000000000000e+00 -2.0208407520555349e-01  9.5035791050291198e+00 0.0000000000000000e+00 -1.1727663294179701e-03  9.5016352799540122e+00 -3.6709705766712897e-01 0.0000000000000000e+00  9.4910898979146996e+00 -4.9503883073300747e-01 0.0000000000000000e+00  9.4938922203949492e+00 -2.7669852229290842e-01 0.0000000000000000e+00  9.5066971507439906e+00 3.8998552856545805e-02 0.0000000000000000e+00  9.5114123047564085e+00 -6.8169356441804899e-02 0.0000000000000000e+00  9.4849818246744757e+00 -7.5388979238426945e-01 0.0000000000000000e+00  9.4937670265763057e+00 -3.1248527041499713e-01 0.0000000000000000e+00  9.5050920516450219e+00 -4.6017768785577595e-01 0.0000000000000000e+00  9.4913658816342252e+00 -5.5896050368172934e-01 0.0000000000000000e+00  9.4939105088549045e+00 -3.7746427983371833e-01 0.0000000000000000e+00  9.5014206590795585e+00 -2.4164772234932344e-01 0.0000000000000000e+00  9.5031914668996347e+00 -5.8000303336237242e-02 0.0000000000000000e+00  9.5032891631880023e+00 -6.6251694311691742e-02 0.0000000000000000e+00  9.5008388075828130e+00 1.6327604107956731e-01 0.0000000000000000e+00  9.5031303966113203e+00 7.7207816959407843e-02 0.0000000000000000e+00  9.4976030515465677e+00 1.6201047183380615e-01 0.0000000000000000e+00  9.5039360594170326e+00 8.6233162805258917e-02 0.0000000000000000e+00  9.4979736311987430e+00 1.0397913888002895e-02 0.0000000000000000e+00  9.5069245067539914e+00 -6.4570428791489637e-02 0.0000000000000000e+00  9.4966734136350901e+00 1.1497686370602399e-01 0.0000000000000000e+00  9.4982955972881893e+00 -8.1941622464731453e-02 0.0000000000000000e+00  9.5069457531348256e+00 -8.6697934650093636e-02 0.0000000000000000e+00  9.4981897038486682e+00 1.2033903930451905e-02 0.0000000000000000e+00  9.5021694491659066e+00 4.8524002246952302e-02 0.0000000000000000e+00  9.4981020118981352e+00 8.4331166084691642e-02 0.0000000000000000e+00  9.5143373221819321e+00 1.1959234418982966e-01 0.0000000000000000e+00  9.4878212547133458e+00 1.3782448897550348e-01 0.0000000000000000e+00  9.5144180611401445e+00 1.2070393916879034e-01 0.0000000000000000e+00  9.4934667169674292e+00 -3.1667004282414368e-02 0.0000000000000000e+00  9.5198540176333228e+00 2.3133504959305669e-02 0.0000000000000000e+00  9.4795953540950251e+00 -7.9855682798272376e-02 0.0000000000000000e+00  9.5401992515885823e+00 7.6796884487686373e-04 0.0000000000000000e+00  9.4613223500941306e+00 1.6796536191354094e-01 0.0000000000000000e+00  9.5393446933289177e+00 1.4989272233565262e-01 0.0000000000000000e+00  9.4990523324398808e+00 -1.3121114029171044e-02 0.0000000000000000e+00  9.5056005533032533e+00 1.1437690467167175e-01 0.0000000000000000e+00  9.5117685269225962e+00 -4.8179675167515763e-02 0.0000000000000000e+00  9.4647740968225715e+00 1.3665311960339435e-01 0.0000000000000000e+00  9.5704787756484198e+00 -9.6074426282422853e-02 0.0000000000000000e+00  9.4682049962393435e+00 8.0376198010220709e-02 0.0000000000000000e+00  9.4925198617246718e+00 -1.2151493944289567e-01 0.0000000000000000e+00  9.52609919