<?xml version="1.0"?>
<VTKFile type="UnstructuredGrid"  version="0.1"  >
<UnstructuredGrid>
<Piece  NumberOfPoints="9509" NumberOfCells="18536">
<Points>
<DataArray  type="Float64"  NumberOfComponents="3"  format="ascii">-5 -1 0  5 -1 0  5 1 0  -5 1 0  -4.949999999999965 -1 0  -4.899999999999877 -1 0  -4.849999999999826 -1 0  -4.799999999999754 -1 0  -4.749999999999695 -1 0  -4.69999999999963 -1 0  -4.649999999999565 -1 0  -4.599999999999507 -1 0  -4.549999999999454 -1 0  -4.499999999999384 -1 0  -4.449999999999317 -1 0  -4.399999999999261 -1 0  -4.349999999999206 -1 0  -4.299999999999137 -1 0  -4.249999999999075 -1 0  -4.199999999999013 -1 0  -4.149999999998934 -1 0  -4.09999999999889 -1 0  -4.049999999998847 -1 0  -3.999999999998767 -1 0  -3.949999999998706 -1 0  -3.899999999998644 -1 0  -3.849999999998594 -1 0  -3.799999999998552 -1 0  -3.749999999998549 -1 0  -3.699999999998651 -1 0  -3.649999999998804 -1 0  -3.59999999999894 -1 0  -3.549999999999097 -1 0  -3.499999999999261 -1 0  -3.449999999999394 -1 0  -3.399999999999582 -1 0  -3.349999999999742 -1 0  -3.299999999999902 -1 0  -3.25000000000006 -1 0  -3.200000000000223 -1 0  -3.150000000000369 -1 0  -3.100000000000544 -1 0  -3.050000000000704 -1 0  -3.000000000000864 -1 0  -2.950000000001029 -1 0  -2.900000000001185 -1 0  -2.850000000001347 -1 0  -2.800000000001506 -1 0  -2.750000000001665 -1 0  -2.700000000001827 -1 0  -2.650000000001979 -1 0  -2.600000000002148 -1 0  -2.550000000002311 -1 0  -2.500000000002468 -1 0  -2.450000000002635 -1 0  -2.400000000002789 -1 0  -2.35000000000295 -1 0  -2.30000000000311 -1 0  -2.250000000003253 -1 0  -2.200000000003431 -1 0  -2.150000000003601 -1 0  -2.100000000003752 -1 0  -2.050000000003922 -1 0  -2.000000000004072 -1 0  -1.950000000004237 -1 0  -1.900000000004393 -1 0  -1.850000000004541 -1 0  -1.800000000004714 -1 0  -1.750000000004886 -1 0  -1.700000000005035 -1 0  -1.650000000005206 -1 0  -1.600000000005355 -1 0  -1.550000000005516 -1 0  -1.500000000005676 -1 0  -1.450000000005824 -1 0  -1.400000000005996 -1 0  -1.350000000006146 -1 0  -1.300000000006318 -1 0  -1.250000000006505 -1 0  -1.200000000006638 -1 0  -1.150000000006797 -1 0  -1.100000000006959 -1 0  -1.050000000007106 -1 0  -1.000000000007245 -1 0  -0.9500000000072193 -1 0  -0.9000000000072612 -1 0  -0.8500000000071966 -1 0  -0.8000000000071381 -1 0  -0.750000000007085 -1 0  -0.700000000007015 -1 0  -0.6500000000069521 -1 0  -0.6000000000068919 -1 0  -0.5500000000068104 -1 0  -0.5000000000067688 -1 0  -0.4500000000067104 -1 0  -0.4000000000066457 -1 0  -0.3500000000065757 -1 0  -0.3000000000065226 -1 0  -0.2500000000064961 -1 0  -0.2000000000063995 -1 0  -0.1500000000063775 -1 0  -0.1000000000062764 -1 0  -0.0500000000062597 -1 0  -6.153300091682468e-12 -1 0  0.04999999999390781 -1 0  0.09999999999396891 -1 0  0.14999999999403 -1 0  0.1999999999940929 -1 0  0.2499999999941318 -1 0  0.299999999994216 -1 0  0.349999999994254 -1 0  0.3999999999943391 -1 0  0.4499999999944038 -1 0  0.4999999999944613 -1 0  0.5499999999945429 -1 0  0.5999999999945853 -1 0  0.6499999999946606 -1 0  0.6999999999947084 -1 0  0.7499999999947651 -1 0  0.7999999999948315 -1 0  0.8499999999948926 -1 0  0.8999999999949537 -1 0  0.9499999999950148 -1 0  0.9999999999950768 -1 0  1.049999999995139 -1 0  1.0999999999952 -1 0  1.149999999995266 -1 0  1.199999999995324 -1 0  1.249999999995385 -1 0  1.299999999995446 -1 0  1.349999999995488 -1 0  1.399999999995569 -1 0  1.449999999995604 -1 0  1.499999999995692 -1 0  1.549999999995753 -1 0  1.599999999995816 -1 0  1.649999999995892 -1 0  1.699999999995939 -1 0  1.749999999996017 -1 0  1.799999999996063 -1 0  1.849999999996111 -1 0  1.899999999996185 -1 0  1.949999999996246 -1 0  1.999999999996308 -1 0  2.049999999996351 -1 0  2.099999999996431 -1 0  2.149999999996504 -1 0  2.199999999996555 -1 0  2.249999999996616 -1 0  2.299999999996677 -1 0  2.349999999996736 -1 0  2.3999999999968 -1 0  2.449999999996847 -1 0  2.499999999996923 -1 0  2.549999999997 -1 0  2.599999999997047 -1 0  2.649999999997093 -1 0  2.69999999999717 -1 0  2.749999999997245 -1 0  2.799999999997293 -1 0  2.849999999997344 -1 0  2.899999999997416 -1 0  2.949999999997469 -1 0  2.999999999997539 -1 0  3.049999999997576 -1 0  3.099999999997662 -1 0  3.149999999997725 -1 0  3.199999999997784 -1 0  3.249999999997829 -1 0  3.299999999997908 -1 0  3.349999999997921 -1 0  3.39999999999803 -1 0  3.4499999999981 -1 0  3.499999999998153 -1 0  3.549999999998214 -1 0  3.599999999998277 -1 0  3.649999999998409 -1 0  3.699999999998401 -1 0  3.749999999998444 -1 0  3.799999999998523 -1 0  3.849999999998602 -1 0  3.899999999998645 -1 0  3.949999999998658 -1 0  3.999999999998769 -1 0  4.049999999998814 -1 0  4.099999999998893 -1 0  4.149999999998883 -1 0  4.199999999999015 -1 0  4.249999999999064 -1 0  4.299999999999137 -1 0  4.349999999999152 -1 0  4.399999999999261 -1 0  4.44999999999933 -1 0  4.499999999999385 -1 0  4.549999999999446 -1 0  4.599999999999508 -1 0  4.649999999999633 -1 0  4.699999999999632 -1 0  4.749999999999723 -1 0  4.799999999999754 -1 0  4.849999999999801 -1 0  4.899999999999876 -1 0  4.949999999999925 -1 0  5 -0.950000000000111 0  5 -0.9000000000002774 0  5 -0.8500000000004283 0  5 -0.8000000000005548 0  5 -0.7500000000006787 0  5 -0.7000000000008322 0  5 -0.6500000000009709 0  5 -0.6000000000011096 0  5 -0.5500000000012484 0  5 -0.500000000001387 0  5 -0.4500000000015256 0  5 -0.4000000000016644 0  5 -0.3500000000018031 0  5 -0.3000000000019418 0  5 -0.2500000000020806 0  5 -0.2000000000022192 0  5 -0.1500000000023578 0  5 -0.1000000000024964 0  5 -0.05000000000262439 0  5 -2.752242878045763e-12 0  5 0.0499999999973757 0  5 0.09999999999750342 0  5 0.1499999999976422 0  5 0.1999999999977808 0  5 0.2499999999979194 0  5 0.2999999999980583 0  5 0.3499999999981969 0  5 0.3999999999983355 0  5 0.4499999999984743 0  5 0.4999999999986129 0  5 0.5499999999987515 0  5 0.5999999999988903 0  5 0.6499999999990291 0  5 0.699999999999168 0  5 0.7499999999993068 0  5 0.7999999999994454 0  5 0.849999999999584 0  5 0.8999999999997226 0  5 0.9499999999998612 0  4.949999999999965 1 0  4.899999999999877 1 0  4.849999999999826 1 0  4.799999999999754 1 0  4.749999999999695 1 0  4.69999999999963 1 0  4.649999999999565 1 0  4.599999999999507 1 0  4.549999999999454 1 0  4.499999999999384 1 0  4.449999999999317 1 0  4.399999999999261 1 0  4.349999999999206 1 0  4.299999999999137 1 0  4.249999999999075 1 0  4.199999999999013 1 0  4.149999999998934 1 0  4.09999999999889 1 0  4.049999999998847 1 0  3.999999999998767 1 0  3.949999999998706 1 0  3.899999999998644 1 0  3.849999999998594 1 0  3.799999999998552 1 0  3.749999999998549 1 0  3.699999999998651 1 0  3.649999999998804 1 0  3.59999999999894 1 0  3.549999999999097 1 0  3.499999999999261 1 0  3.449999999999394 1 0  3.399999999999582 1 0  3.349999999999742 1 0  3.299999999999902 1 0  3.25000000000006 1 0  3.200000000000223 1 0  3.150000000000369 1 0  3.100000000000544 1 0  3.050000000000704 1 0  3.000000000000864 1 0  2.950000000001029 1 0  2.900000000001185 1 0  2.850000000001347 1 0  2.800000000001506 1 0  2.750000000001665 1 0  2.700000000001827 1 0  2.650000000001979 1 0  2.600000000002148 1 0  2.550000000002311 1 0  2.500000000002468 1 0  2.450000000002635 1 0  2.400000000002789 1 0  2.35000000000295 1 0  2.30000000000311 1 0  2.250000000003253 1 0  2.200000000003431 1 0  2.150000000003601 1 0  2.100000000003752 1 0  2.050000000003922 1 0  2.000000000004072 1 0  1.950000000004237 1 0  1.900000000004393 1 0  1.850000000004541 1 0  1.800000000004714 1 0  1.750000000004886 1 0  1.700000000005035 1 0  1.650000000005206 1 0  1.600000000005355 1 0  1.550000000005516 1 0  1.500000000005676 1 0  1.450000000005824 1 0  1.400000000005996 1 0  1.350000000006146 1 0  1.300000000006318 1 0  1.250000000006505 1 0  1.200000000006638 1 0  1.150000000006797 1 0  1.100000000006959 1 0  1.050000000007106 1 0  1.000000000007245 1 0  0.9500000000072193 1 0  0.9000000000072612 1 0  0.8500000000071966 1 0  0.8000000000071381 1 0  0.750000000007085 1 0  0.700000000007015 1 0  0.6500000000069521 1 0  0.6000000000068919 1 0  0.5500000000068104 1 0  0.5000000000067688 1 0  0.4500000000067104 1 0  0.4000000000066457 1 0  0.3500000000065757 1 0  0.3000000000065226 1 0  0.2500000000064961 1 0  0.2000000000063995 1 0  0.1500000000063775 1 0  0.1000000000062764 1 0  0.0500000000062597 1 0  6.153300091682468e-12 1 0  -0.04999999999390781 1 0  -0.09999999999396891 1 0  -0.14999999999403 1 0  -0.1999999999940929 1 0  -0.2499999999941318 1 0  -0.299999999994216 1 0  -0.349999999994254 1 0  -0.3999999999943391 1 0  -0.4499999999944038 1 0  -0.4999999999944613 1 0  -0.5499999999945429 1 0  -0.5999999999945853 1 0  -0.6499999999946606 1 0  -0.6999999999947084 1 0  -0.7499999999947651 1 0  -0.7999999999948315 1 0  -0.8499999999948926 1 0  -0.8999999999949537 1 0  -0.9499999999950148 1 0  -0.9999999999950768 1 0  -1.049999999995139 1 0  -1.0999999999952 1 0  -1.149999999995266 1 0  -1.199999999995324 1 0  -1.249999999995385 1 0  -1.299999999995446 1 0  -1.349999999995488 1 0  -1.399999999995569 1 0  -1.449999999995604 1 0  -1.499999999995692 1 0  -1.549999999995753 1 0  -1.599999999995816 1 0  -1.649999999995892 1 0  -1.699999999995939 1 0  -1.749999999996017 1 0  -1.799999999996063 1 0  -1.849999999996111 1 0  -1.899999999996185 1 0  -1.949999999996246 1 0  -1.999999999996308 1 0  -2.049999999996351 1 0  -2.099999999996431 1 0  -2.149999999996504 1 0  -2.199999999996555 1 0  -2.249999999996616 1 0  -2.299999999996677 1 0  -2.349999999996736 1 0  -2.3999999999968 1 0  -2.449999999996847 1 0  -2.499999999996923 1 0  -2.549999999997 1 0  -2.599999999997047 1 0  -2.649999999997093 1 0  -2.69999999999717 1 0  -2.749999999997245 1 0  -2.799999999997293 1 0  -2.849999999997344 1 0  -2.899999999997416 1 0  -2.949999999997469 1 0  -2.999999999997539 1 0  -3.049999999997576 1 0  -3.099999999997662 1 0  -3.149999999997725 1 0  -3.199999999997784 1 0  -3.249999999997829 1 0  -3.29999
[...]
<PointData  Vectors="(h, u)"> 
<DataArray  type="Float64"  Name="(h, u)"  NumberOfComponents="3" format="ascii">9.9889565929743966e+00 0.0000000000000000e+00 0.0000000000000000e+00  9.9999999999999978e-01 0.0000000000000000e+00 0.0000000000000000e+00  9.9999999999999944e-01 0.0000000000000000e+00 0.0000000000000000e+00  9.9958445601720598e+00 0.0000000000000000e+00 0.0000000000000000e+00  1.0004982879141258e+01 2.0652956440239830e-03 0.0000000000000000e+00  9.9908452159852317e+00 -3.4991142630906497e-03 0.0000000000000000e+00  1.0003510751657554e+01 3.7475164569727914e-03 0.0000000000000000e+00  9.9872988629060799e+00 -5.8785817069554151e-03 0.0000000000000000e+00  1.0009321081290743e+01 5.6276731473418285e-03 0.0000000000000000e+00  9.9912148069429723e+00 -3.1326995831586087e-03 0.0000000000000000e+00  9.9991444477688809e+00 -1.1676597158168633e-02 0.0000000000000000e+00  1.0001178888949399e+01 1.1816650580717663e-02 0.0000000000000000e+00  1.0002118796329487e+01 8.9493681412261879e-03 0.0000000000000000e+00  9.9808251409443578e+00 -2.9212726399114545e-02 0.0000000000000000e+00  1.0022590042964021e+01 2.6591142448173476e-02 0.0000000000000000e+00  9.9870759499186779e+00 -7.7712064589605979e-03 0.0000000000000000e+00  9.9891918552995467e+00 -1.9643986625397396e-02 0.0000000000000000e+00  1.0019265742015063e+01 2.4704969604633347e-02 0.0000000000000000e+00  9.9954815737597951e+00 -3.8397618205766584e-03 0.0000000000000000e+00  9.9732038909146965e+00 -3.0425421475146229e-02 0.0000000000000000e+00  1.0041691342577359e+01 4.4291222414090711e-02 0.0000000000000000e+00  9.9753043467203977e+00 -2.3070342612587693e-02 0.0000000000000000e+00  9.9859452270891573e+00 -1.7956450809641502e-02 0.0000000000000000e+00  1.0035937452124790e+01 4.0041424539242081e-02 0.0000000000000000e+00  9.9810203197284046e+00 -1.8577855039636472e-02 0.0000000000000000e+00  9.9738224280105729e+00 -2.9856745893971672e-02 0.0000000000000000e+00  1.0054962786772197e+01 6.0762418233487568e-02 0.0000000000000000e+00  9.9593056626640220e+00 -4.1612192300328962e-02 0.0000000000000000e+00  9.9922916026319299e+00 -1.0688814698608858e-02 0.0000000000000000e+00  1.0040978001016780e+01 4.7925313712109743e-02 0.0000000000000000e+00  9.9693783862939043e+00 -3.1067299954971067e-02 0.0000000000000000e+00  9.9826525104380774e+00 -2.2666203388253026e-02 0.0000000000000000e+00  1.0051489869378303e+01 6.3502568450086158e-02 0.0000000000000000e+00  9.9537039921373314e+00 -4.9934882264952817e-02 0.0000000000000000e+00  1.0003786257371711e+01 8.4570439654740165e-04 0.0000000000000000e+00  1.0025602148164728e+01 3.8557675332089605e-02 0.0000000000000000e+00  9.9743465952588473e+00 -2.6797295657701361e-02 0.0000000000000000e+00  9.9935962097282260e+00 -1.4134862059704595e-02 0.0000000000000000e+00  1.0024613830742746e+01 4.7106758530940061e-02 0.0000000000000000e+00  9.9705219879544789e+00 -3.6166050432924771e-02 0.0000000000000000e+00  1.0011611695511895e+01 9.2344977599647174e-03 0.0000000000000000e+00  9.9904827544153783e+00 1.3427904044973269e-02 0.0000000000000000e+00  9.9990924123894569e+00 -2.4984982168429920e-03 0.0000000000000000e+00  1.0000671796663978e+01 -8.5072342555012372e-03 0.0000000000000000e+00  9.9812390536705671e+00 1.7863177503302536e-02 0.0000000000000000e+00  1.0002146657809186e+01 -6.0860240323386359e-03 0.0000000000000000e+00  1.0015141613892983e+01 1.4095473587060510e-02 0.0000000000000000e+00  9.9465733144363959e+00 -1.5504585492825866e-02 0.0000000000000000e+00  1.0026928972140214e+01 2.6998123281801709e-02 0.0000000000000000e+00  1.0005361185959565e+01 -4.9582044594383254e-04 0.0000000000000000e+00  9.9369451944116030e+00 -6.4545775269668378e-03 0.0000000000000000e+00  1.0020927977998804e+01 2.0807513439899554e-02 0.0000000000000000e+00  1.0017121012506840e+01 2.7611987158934731e-02 0.0000000000000000e+00  9.9047029550362762e+00 -2.4924789148324616e-02 0.0000000000000000e+00  1.0025476645204703e+01 4.9926587731909118e-02 0.0000000000000000e+00  9.9978825145417201e+00 2.7822084914956757e-02 0.0000000000000000e+00  9.8915859913330095e+00 9.5404478191056883e-03 0.0000000000000000e+00  9.9855174684162691e+00 5.3524686866012312e-02 0.0000000000000000e+00  9.9825812613297042e+00 8.1375852052288478e-02 0.0000000000000000e+00  9.8371633028121490e+00 4.0462594690778640e-02 0.0000000000000000e+00  9.9362029451986835e+00 1.1544151425947641e-01 0.0000000000000000e+00  9.9041481548514110e+00 1.3505284048849917e-01 0.0000000000000000e+00  9.7702399478151918e+00 1.5125159731043217e-01 0.0000000000000000e+00  9.8121336083857322e+00 1.9559937571153307e-01 0.0000000000000000e+00  9.7914319216608838e+00 2.7270211924567772e-01 0.0000000000000000e+00  9.6194819629628796e+00 2.9775528359875059e-01 0.0000000000000000e+00  9.6476872231418369e+00 3.7231437735180400e-01 0.0000000000000000e+00  9.5819238345077054e+00 4.5203734779055910e-01 0.0000000000000000e+00  9.4187464345056480e+00 5.4522264048522640e-01 0.0000000000000000e+00  9.3882904896928103e+00 6.0364356199239244e-01 0.0000000000000000e+00  9.3208833905328117e+00 7.3268753924679586e-01 0.0000000000000000e+00  9.1203378941373270e+00 8.4612060116734888e-01 0.0000000000000000e+00  9.0825935252155414e+00 9.3294144576709492e-01 0.0000000000000000e+00  8.9728407170546021e+00 1.0665182859701896e+00 0.0000000000000000e+00  8.7774690584911319e+00 1.2354398932008117e+00 0.0000000000000000e+00  8.6998768112493092e+00 1.3119047027843413e+00 0.0000000000000000e+00  8.5918516319636158e+00 1.4805303739702620e+00 0.0000000000000000e+00  8.3660021529599895e+00 1.6694551472946915e+00 0.0000000000000000e+00  8.2929068263810404e+00 1.7593873921339036e+00 0.0000000000000000e+00  8.1554954733266012e+00 1.9312495851902884e+00 0.0000000000000000e+00  7.9366055885002513e+00 2.1637808445957614e+00 0.0000000000000000e+00  7.8414333007739119e+00 2.2370548467767941e+00 0.0000000000000000e+00  7.7111386255340335e+00 2.4323494332441657e+00 0.0000000000000000e+00  7.4693261956862864e+00 2.6838144224104719e+00 0.0000000000000000e+00  7.3895025502382001e+00 2.7590864371974733e+00 0.0000000000000000e+00  7.2387286206204378e+00 2.9497314791789204e+00 0.0000000000000000e+00  7.0058658712734037e+00 3.2445207917792795e+00 0.0000000000000000e+00  6.9143014167300452e+00 3.2949382731548593e+00 0.0000000000000000e+00  6.7785491311582637e+00 3.5041655223165371e+00 0.0000000000000000e+00  6.5215800103452652e+00 3.8087378414601747e+00 0.0000000000000000e+00  6.4550129347225971e+00 3.8728177686917626e+00 0.0000000000000000e+00  6.3023604720520652e+00 4.0600828865795773e+00 0.0000000000000000e+00  6.0578643225300866e+00 4.4001134273239639e+00 0.0000000000000000e+00  5.9781983851247968e+00 4.4519392350242590e+00 0.0000000000000000e+00  5.8542833667216305e+00 4.6481602851887809e+00 0.0000000000000000e+00  5.5793329571285009e+00 4.9886020200283454e+00 0.0000000000000000e+00  5.5355493049128413e+00 5.0507726013712277e+00 0.0000000000000000e+00  5.3848488712153380e+00 5.2413491645932897e+00 0.0000000000000000e+00  5.1455272901537983e+00 5.5897239992078163e+00 0.0000000000000000e+00  5.0831271705544685e+00 5.6428406139678797e+00 0.0000000000000000e+00  4.9473811131835603e+00 5.8638274312190344e+00 0.0000000000000000e+00  4.7119399548142145e+00 6.1735887657011084e+00 0.0000000000000000e+00  4.6642587481586775e+00 6.2635202326311692e+00 0.0000000000000000e+00  4.4725308735055007e+00 6.5291416052123790e+00 0.0000000000000000e+00  4.3205254733304148e+00 6.7594918998810973e+00 0.0000000000000000e+00  4.2134826359944730e+00 6.9139018660001810e+00 0.0000000000000000e+00  4.0682868298944213e+00 7.1507845426188821e+00 0.0000000000000000e+00  3.8767604681862720e+00 7.4253411850932309e+00 0.0000000000000000e+00  3.7366336494838137e+00 7.6606931692803908e+00 0.0000000000000000e+00  3.6797250659655050e+00 7.7955249023637414e+00 0.0000000000000000e+00  3.7187815550881118e+00 7.7918748859747238e+00 0.0000000000000000e+00  3.9804219459004067e+00 7.3651068980737602e+00 0.0000000000000000e+00  4.0166903908640528e+00 7.2645265349932471e+00 0.0000000000000000e+00  3.9470955747480083e+00 7.3377224650227113e+00 0.0000000000000000e+00  3.9141266458243580e+00 7.3725379313664279e+00 0.0000000000000000e+00  3.8902656207228175e+00 7.3998300671715773e+00 0.0000000000000000e+00  3.8801922925762256e+00 7.4059121878022856e+00 0.0000000000000000e+00  3.8788360606324210e+00 7.4012658955874961e+00 0.0000000000000000e+00  3.8820751027366804e+00 7.3936975734395975e+00 0.0000000000000000e+00  3.8911223290358272e+00 7.3786072687062489e+00 0.0000000000000000e+00  3.8965465144508791e+00 7.3701118558182683e+00 0.0000000000000000e+00  3.8964115971327447e+00 7.3693064856863995e+00 0.0000000000000000e+00  3.8994431290980853e+00 7.3621091110235275e+00 0.0000000000000000e+00  3.9040594937721478e+00 7.3542389064121387e+00 0.0000000000000000e+00  3.9090091779081106e+00 7.3478401261938471e+00 0.0000000000000000e+00  3.9165720435455276e+00 7.3376318680615649e+00 0.0000000000000000e+00  3.9225094948134762e+00 7.3309368989775407e+00 0.0000000000000000e+00  3.9260717072046569e+00 7.3280975947192015e+00 0.0000000000000000e+00  3.9296858227095690e+00 7.3245527522384375e+00 0.0000000000000000e+00  3.9317855223873366e+00 7.3248691389371929e+00 0.0000000000000000e+00  3.9330327310571063e+00 7.3278011524891724e+00 0.0000000000000000e+00  3.9342373685219951e+00 7.3297231426516989e+00 0.0000000000000000e+00  3.9329727371334364e+00 7.3323477746729120e+00 0.0000000000000000e+00  3.9281229229241306e+00 7.3292867632510701e+00 0.0000000000000000e+00  3.9141681496709388e+00 7.3070325196871959e+00 0.0000000000000000e+00  3.8756594837587688e+00 7.2455625976789380e+00 0.0000000000000000e+00  3.7886728466881840e+00 7.1007680936738984e+00 0.0000000000000000e+00  3.6041481428122149e+00 6.7811455691995111e+00 0.0000000000000000e+00  3.2331612627331920e+00 6.1031309837501198e+00 0.0000000000000000e+00  2.5590032313911721e+00 4.6870886003659340e+00 0.0000000000000000e+00  1.5805228935773430e+00 1.9470285561103680e+00 0.0000000000000000e+00  1.0326253980923690e+00 7.2186516494129049e-02 0.0000000000000000e+00  1.0002431893630614e+00 2.4445525876933098e-03 0.0000000000000000e+00  9.9971933954060133e-01 1.0429009210934283e-03 0.0000000000000000e+00  1.0001549612086214e+00 -4.7603526292399841e-04 0.0000000000000000e+00  9.9993741159094562e-01 1.9645034330924971e-04 0.0000000000000000e+00  1.0000420588123025e+00 -1.3172039138858055e-04 0.0000000000000000e+00  9.9997355195429083e-01 8.2888106412088136e-05 0.0000000000000000e+00  1.0000054458097418e+00 -1.7037532192278127e-05 0.0000000000000000e+00  1.0000089575775017e+00 -2.8138286228853215e-05 0.0000000000000000e+00  9.9998849610519758e-01 3.6128111777069104e-05 0.0000000000000000e+00  1.0000067150380167e+00 -2.1105163355195953e-05 0.0000000000000000e+00  9.9999870603853247e-01 4.0979030419460160e-06 0.0000000000000000e+00  9.9999870222497267e-01 4.0322024206538518e-06 0.0000000000000000e+00  1.0000012152074991e+00 -3.7723431172281952e-06 0.0000000000000000e+00  9.9999990261817540e-01 2.6837386258106248e-07 0.0000000000000000e+00  9.9999922913260664e-01 2.4465764984189828e-06 0.0000000000000000e+00  1.0000010126489378e+00 -3.1914694143404290e-06 0.0000000000000000e+00  9.9999916177351056e-01 2.6297233907592947e-06 0.0000000000000000e+00  1.0000005665638669e+00 -1.7654227131174038e-06 0.0000000000000000e+00  9.9999962592940095e-01 1.1534248469350754e-06 0.0000000000000000e+00  1.0000002824152137e+00 -8.6125182065778583e-07 0.0000000000000000e+00  9.9999975543498210e-01 7.4017339374252302e-07 0.0000000000000000e+00  1.0000002164074533e+00 -6.5088951811541234e-07 0.0000000000000000e+00  9.9999981927577752e-01 5.3906204186748594e-07 0.0000000000000000e+00  1.0000001398504179e+00 -4.1205014962365712e-07 0.0000000000000000e+00  9.9999989846601689e-01 2.9418121649530688e-07 0.0000000000000000e+00  1.0000000707189762e+00 -2.0076447669396485e-07 0.0000000000000000e+00  9.9999995179434253e-01 1.3390446721180814e-07 0.0000000000000000e+00  1.0000000324795826e+00 -8.8381310967953970e-08 0.0000000000000000e+00  9.9999997840040433e-01 5.7718423392971903e-08 0.0000000000000000e+00  1.0000000140676848e+00 -3.6986974258550074e-08 0.0000000000000000e+00  9.9999999109255022e-01 2.3052925505515964e-08 0.0000000000000000e+00  1.0000000054682294e+00 -1.3918298850149008e-08 0.0000000000000000e+00  9.9999999673721085e-01 8.1570949671276741e-09 0.0000000000000000e+00  1.0000000019034234e+00 -4.6709122692800170e-09 0.0000000000000000e+00  9.9999999890771762e-01 2.6325573637152917e-09 0.0000000000000000e+00  1.0000000006185978e+00 -1.4666576799698021e-09 0.0000000000000000e+00  9.9999999965455266e-01 8.0702339990787402e-10 0.0000000000000000e+00  1.0000000001895004e+00 -4.3646297361206990e-10 0.0000000000000000e+00  9.9999999989828181e-01 2.3079323910362823e-10 0.0000000000000000e+00  1.0000000000533631e+00 -1.1909643125505183e-10 0.0000000000000000e+00  9.9999999997255418e-01 6.0210175064233091e-11 0.0000000000000000e+00  1.0000000000139360e+00 -3.0106891574026014e-11 0.0000000000000000e+00  9.9999999999295630e-01 1.5067825857514360e-11 0.0000000000000000e+00  1.0000000000035663e+00 -7.6110059055886317e-12 0.0000000000000000e+00  9.9999999999818945e-01 3.8824542755620647e-12 0.0000000000000000e+00  1.0000000000009182e+00 -1.9859512057585595e-12 0.0000000000000000e+00  9.9999999999953704e-01 1.0091263157870619e-12 0.0000000000000000e+00  1.0000000000002314e+00 -5.0768553103251519e-13 0.0000000000000000e+00  9.9999999999988531e-01 2.5255949347327415e-13 0.0000000000000000e+00  1.0000000000000564e+00 -1.2537571925577462e-13 0.0000000000000000e+00  9.9999999999997224e-01 6.1851690635030323e-14 0.0000000000000000e+00  1.0000000000000131e+00 -3.1293516103999247e-14 0.0000000000000000e+00  9.9999999999999367e-01 1.4913179917534417e-14 0.0000000000000000e+00  1.0000000000000024e+00 -6.5701161612397322e-15 0.0000000000000000e+00  9.9999999999999900e-01 3.8344168382193393e-15 0.0000000000000000e+00  9.9999999999999989e-01 -1.6946010999934463e-15 0.0000000000000000e+00  1.0000000000000002e+00 1.3251195501661708e-15 0.0000000000000000e+00  9.9999999999999967e-01 4.3961537968814748e-16 0.0000000000000000e+00  1.0000000000000004e+00 8.5389570958931375e-17 0.0000000000000000e+00  9.9999999999999989e-01 -8.3334489040503516e-16 0.0000000000000000e+00  1.0000000000000007e+00 7.5759354027414011e-16 0.0000000000000000e+00  1.0000000000000007e+00 0.0000000000000000e+00 1.5175076507439071e-17  9.9999999999999978e-01 0.0000000000000000e+00 -5.3032319148022484e-16  1.0000000000000007e+00 0.0000000000000000e+00 5.0449227163961977e-17  9.9999999999999967e-01 0.0000000000000000e+00 -6.9751872329699520e-17  1.0000000000000007e+00 0.0000000000000000e+00 5.1951271649520098e-16  9.9999999999999956e-01 0.0000000000000000e+00 -4.0088101713105028e-16  1.0000000000000007e+00 0.0000000000000000e+00 6.0325696524624719e-16  9.9999999999999956e-01 0.0000000000000000e+00 4.2210786975704919e-16  1.0000000000000007e+00 0.0000000000000000e+00 -5.5677714050703341e-16  9.9999999999999956e-01 0.0000000000000000e+00 -7.6077355576111764e-16  1.0000000000000007e+00 0.0000000000000000e+00 3.9944187470910300e-16  9.9999999999999956e-01 0.0000000000000000e+00 -8.1314452511948234e-18  1.0000000000000007e+00 0.0000000000000000e+00 6.5614324215182614e-16  9.9999999999999956e-01 0.0000000000000000e+00 2.8376875060468457e-16  1.0000000000000004e+00 0.0000000000000000e+00 7.6248786154809435e-16  9.9999999999999956e-01 0.0000000000000000e+00 -5.9671227407500416e-16  1.0000000000000007e+00 0.0000000000000000e+00 3.6385368468396128e-16  9.9999999999999933e-01 0.0000000000000000e+00 6.5085583839183176e-16  1.0000000000000009e+00 0.0000000000000000e+00 -4.8836226268363824e-16  9.9999999999999944e-01 0.0000000000000000e+00 -1.8683340962326983e-16  1.0000000000000004e+00 0.0000000000000000e+00 -5.1765499255518420e-16  9.9999999999999944e-01 0.0000000000000000e+00 9.2463075153402179e-17  1.0000000000000007e+00 0.0000000000000000e+00 -1.1563550446641023e-15  9.9999999999999922e-01 0.0000000000000000e+00 -9.6102368240152049e-16  1.0000000000000007e+00 0.0000000000000000e+00 1.3094017892883002e-16  9.9999999999999944e-01 0.0000000000000000e+00 5.4358633402363730e-16  1.0000000000000007e+00 0.0000000000000000e+00 -2.0161743237848471e-16  9.9999999999999944e-01 0.0000000000000000e+00 4.9498806006676360e-16  1.0000000000000007e+00 0.0000000000000000e+00 -3.8960602288463158e-16  9.9999999999999944e-01 0.0000000000000000e+00 1.7815475946666086e-16  1.0000000000000007e+00 0.0000000000000000e+00 -3.7992754982597496e-16  9.9999999999999944e-01 0.0000000000000000e+00 -6.5660080160661356e-16  1.0000000000000009e+00 0.0000000000000000e+00 -4.7110458890956335e-16  9.9999999999999944e-01 0.0000000000000000e+00 -5.2287763690287159e-17  1.0000000000000007e+00 0.0000000000000000e+00 -1.7511770166848392e-16  9.9999999999999944e-01 0.0000000000000000e+00 5.5154151898043910e-16  1.0000000000000007e+00 0.0000000000000000e+00 7.6153946352663575e-16  9.9999999999999944e-01 0.0000000000000000e+00 2.9586196773120313e-16  1.0000000000000007e+00 0.0000000000000000e+00 7.2848928620833243e-16  1.0000000000000007e+00 3.1850480128231600e-16 0.0000000000000000e+00  9.9999999999999933e-01 -4.8194984909845238e-16 0.0000000000000000e+00  1.0000000000000007e+00 7.1446690255907840e-16 0.0000000000000000e+00  9.9999999999999944e-01 8.9862603763201103e-16 0.0000000000000000e+00  1.0000000000000007e+00 -1.5609557727318757e-16 0.0000000000000000e+00  9.9999999999999944e-01 7.3079969815761863e-16 0.0000000000000000e+00  1.0000000000000009e+00 3.5757638979180713e-16 0.0000000000000000e+00  9.9999999999999944e-01 3.9335768770258566e-16 0.0000000000000000e+00  1.0000000000000009e+00 -5.5069929093580980e-16 0.0000000000000000e+00  9.9999999999999900e-01 4.2223429627432815e-16 0.0000000000000000e+00  1.0000000000000016e+00 -1.3577911596725978e-15 0.0000000000000000e+00  9.9999999999999944e-01 8.5920189563596979e-16 0.0000000000000000e+00  1.0000000000000002e+00 5.9410899270185411e-16 0.0000000000000000e+00  1.0000000000000018e+00 -7.2542989192271764e-15 0.0000000000000000e+00  9.9999999999999667e-01 1.1359283606290179e-14 0.0000000000000000e+00  1.0000000000000020e+00 -1.0805570298527218e-14 0.0000000000000000e+00  1.0000000000000040e+00 -3.4765855713128803e-15 0.0000000000000000e+00  9.9999999999998512e-01 4.9091613394684979e-14 0.0000000000000000e+00  1.0000000000000293e+00 -1.1598965843399749e-13 0.0000000000000000e+00  9.9999999999997657e-01 5.8453481348558712e-14 0.0000000000000000e+00  9.9999999999990297e-01 2.4467082557850982e-13 0.0000000000000000e+00  1.0000000000002869e+00 -8.2151773583270926e-13 0.0000000000000000e+00  9.9999999999955991e-01 1.2660304648455335e-12 0.0000000000000000e+00  1.0000000000002132e+00 -3.3209124383228106e-13 0.0000000000000000e+00  1.0000000000007154e+00 -3.0595449367461462e-12 0.0000000000000000e+00  9.9999999999827838e-01 5.5050031589709497e-12 0.0000000000000000e+00  9.9999999999915146e-01 2.3921272241675189e-12 0.0000000000000000e+00  1.0000000000093727e+00 -4.2916050371806686e-11 0.0000000000000000e+00  9.9999999997007627e-01 8.2495199632158230e-11 0.0000000000000000e+00  1.0000000000080662e+00 -9.8715508035306616e-11 0.0000000000000000e+00  1.0000000000360816e+00 -3.8939942576576807e-11 0.0000000000000000e+00  9.9999999979704113e-01 5.1289582637393435e-10 0.0000000000000000e+00  1.0000000004305538e+00 -1.0621846388816848e-09 0.0000000000000000e+00  9.9999999945052898e-01 1.1674211873553448e-09 0.0000000000000000e+00  1.0000000002704823e+00 -1.0987990614712349e-09 0.0000000000000000e+00  9.9999999935563855e-01 3.1356020900545135e-09 0.0000000000000000e+00  1.0000000024052089e+00 -5.7812494275759797e-09 0.0000000000000000e+00  9.9999999889061142e-01 -3.8251792690234381e-09 0.0000000000000000e+00  9.9999999472141210e-01 8.9800943732514129e-09 0.0000000000000000e+00  9.9999999818378571e-01 -9.6164746682786548e-09 0.0000000000000000e+00  1.0000000138426115e+00 -1.7531099555196098e-08 0.00000