<?xml version="1.0"?>
<VTKFile type="UnstructuredGrid"  version="0.1"  >
<UnstructuredGrid>
<Piece  NumberOfPoints="9509" NumberOfCells="18536">
<Points>
<DataArray  type="Float64"  NumberOfComponents="3"  format="ascii">-5 -1 0  5 -1 0  5 1 0  -5 1 0  -4.949999999999965 -1 0  -4.899999999999877 -1 0  -4.849999999999826 -1 0  -4.799999999999754 -1 0  -4.749999999999695 -1 0  -4.69999999999963 -1 0  -4.649999999999565 -1 0  -4.599999999999507 -1 0  -4.549999999999454 -1 0  -4.499999999999384 -1 0  -4.449999999999317 -1 0  -4.399999999999261 -1 0  -4.349999999999206 -1 0  -4.299999999999137 -1 0  -4.249999999999075 -1 0  -4.199999999999013 -1 0  -4.149999999998934 -1 0  -4.09999999999889 -1 0  -4.049999999998847 -1 0  -3.999999999998767 -1 0  -3.949999999998706 -1 0  -3.899999999998644 -1 0  -3.849999999998594 -1 0  -3.799999999998552 -1 0  -3.749999999998549 -1 0  -3.699999999998651 -1 0  -3.649999999998804 -1 0  -3.59999999999894 -1 0  -3.549999999999097 -1 0  -3.499999999999261 -1 0  -3.449999999999394 -1 0  -3.399999999999582 -1 0  -3.349999999999742 -1 0  -3.299999999999902 -1 0  -3.25000000000006 -1 0  -3.200000000000223 -1 0  -3.150000000000369 -1 0  -3.100000000000544 -1 0  -3.050000000000704 -1 0  -3.000000000000864 -1 0  -2.950000000001029 -1 0  -2.900000000001185 -1 0  -2.850000000001347 -1 0  -2.800000000001506 -1 0  -2.750000000001665 -1 0  -2.700000000001827 -1 0  -2.650000000001979 -1 0  -2.600000000002148 -1 0  -2.550000000002311 -1 0  -2.500000000002468 -1 0  -2.450000000002635 -1 0  -2.400000000002789 -1 0  -2.35000000000295 -1 0  -2.30000000000311 -1 0  -2.250000000003253 -1 0  -2.200000000003431 -1 0  -2.150000000003601 -1 0  -2.100000000003752 -1 0  -2.050000000003922 -1 0  -2.000000000004072 -1 0  -1.950000000004237 -1 0  -1.900000000004393 -1 0  -1.850000000004541 -1 0  -1.800000000004714 -1 0  -1.750000000004886 -1 0  -1.700000000005035 -1 0  -1.650000000005206 -1 0  -1.600000000005355 -1 0  -1.550000000005516 -1 0  -1.500000000005676 -1 0  -1.450000000005824 -1 0  -1.400000000005996 -1 0  -1.350000000006146 -1 0  -1.300000000006318 -1 0  -1.250000000006505 -1 0  -1.200000000006638 -1 0  -1.150000000006797 -1 0  -1.100000000006959 -1 0  -1.050000000007106 -1 0  -1.000000000007245 -1 0  -0.9500000000072193 -1 0  -0.9000000000072612 -1 0  -0.8500000000071966 -1 0  -0.8000000000071381 -1 0  -0.750000000007085 -1 0  -0.700000000007015 -1 0  -0.6500000000069521 -1 0  -0.6000000000068919 -1 0  -0.5500000000068104 -1 0  -0.5000000000067688 -1 0  -0.4500000000067104 -1 0  -0.4000000000066457 -1 0  -0.3500000000065757 -1 0  -0.3000000000065226 -1 0  -0.2500000000064961 -1 0  -0.2000000000063995 -1 0  -0.1500000000063775 -1 0  -0.1000000000062764 -1 0  -0.0500000000062597 -1 0  -6.153300091682468e-12 -1 0  0.04999999999390781 -1 0  0.09999999999396891 -1 0  0.14999999999403 -1 0  0.1999999999940929 -1 0  0.2499999999941318 -1 0  0.299999999994216 -1 0  0.349999999994254 -1 0  0.3999999999943391 -1 0  0.4499999999944038 -1 0  0.4999999999944613 -1 0  0.5499999999945429 -1 0  0.5999999999945853 -1 0  0.6499999999946606 -1 0  0.6999999999947084 -1 0  0.7499999999947651 -1 0  0.7999999999948315 -1 0  0.8499999999948926 -1 0  0.8999999999949537 -1 0  0.9499999999950148 -1 0  0.9999999999950768 -1 0  1.049999999995139 -1 0  1.0999999999952 -1 0  1.149999999995266 -1 0  1.199999999995324 -1 0  1.249999999995385 -1 0  1.299999999995446 -1 0  1.349999999995488 -1 0  1.399999999995569 -1 0  1.449999999995604 -1 0  1.499999999995692 -1 0  1.549999999995753 -1 0  1.599999999995816 -1 0  1.649999999995892 -1 0  1.699999999995939 -1 0  1.749999999996017 -1 0  1.799999999996063 -1 0  1.849999999996111 -1 0  1.899999999996185 -1 0  1.949999999996246 -1 0  1.999999999996308 -1 0  2.049999999996351 -1 0  2.099999999996431 -1 0  2.149999999996504 -1 0  2.199999999996555 -1 0  2.249999999996616 -1 0  2.299999999996677 -1 0  2.349999999996736 -1 0  2.3999999999968 -1 0  2.449999999996847 -1 0  2.499999999996923 -1 0  2.549999999997 -1 0  2.599999999997047 -1 0  2.649999999997093 -1 0  2.69999999999717 -1 0  2.749999999997245 -1 0  2.799999999997293 -1 0  2.849999999997344 -1 0  2.899999999997416 -1 0  2.949999999997469 -1 0  2.999999999997539 -1 0  3.049999999997576 -1 0  3.099999999997662 -1 0  3.149999999997725 -1 0  3.199999999997784 -1 0  3.249999999997829 -1 0  3.299999999997908 -1 0  3.349999999997921 -1 0  3.39999999999803 -1 0  3.4499999999981 -1 0  3.499999999998153 -1 0  3.549999999998214 -1 0  3.599999999998277 -1 0  3.649999999998409 -1 0  3.699999999998401 -1 0  3.749999999998444 -1 0  3.799999999998523 -1 0  3.849999999998602 -1 0  3.899999999998645 -1 0  3.949999999998658 -1 0  3.999999999998769 -1 0  4.049999999998814 -1 0  4.099999999998893 -1 0  4.149999999998883 -1 0  4.199999999999015 -1 0  4.249999999999064 -1 0  4.299999999999137 -1 0  4.349999999999152 -1 0  4.399999999999261 -1 0  4.44999999999933 -1 0  4.499999999999385 -1 0  4.549999999999446 -1 0  4.599999999999508 -1 0  4.649999999999633 -1 0  4.699999999999632 -1 0  4.749999999999723 -1 0  4.799999999999754 -1 0  4.849999999999801 -1 0  4.899999999999876 -1 0  4.949999999999925 -1 0  5 -0.950000000000111 0  5 -0.9000000000002774 0  5 -0.8500000000004283 0  5 -0.8000000000005548 0  5 -0.7500000000006787 0  5 -0.7000000000008322 0  5 -0.6500000000009709 0  5 -0.6000000000011096 0  5 -0.5500000000012484 0  5 -0.500000000001387 0  5 -0.4500000000015256 0  5 -0.4000000000016644 0  5 -0.3500000000018031 0  5 -0.3000000000019418 0  5 -0.2500000000020806 0  5 -0.2000000000022192 0  5 -0.1500000000023578 0  5 -0.1000000000024964 0  5 -0.05000000000262439 0  5 -2.752242878045763e-12 0  5 0.0499999999973757 0  5 0.09999999999750342 0  5 0.1499999999976422 0  5 0.1999999999977808 0  5 0.2499999999979194 0  5 0.2999999999980583 0  5 0.3499999999981969 0  5 0.3999999999983355 0  5 0.4499999999984743 0  5 0.4999999999986129 0  5 0.5499999999987515 0  5 0.5999999999988903 0  5 0.6499999999990291 0  5 0.699999999999168 0  5 0.7499999999993068 0  5 0.7999999999994454 0  5 0.849999999999584 0  5 0.8999999999997226 0  5 0.9499999999998612 0  4.949999999999965 1 0  4.899999999999877 1 0  4.849999999999826 1 0  4.799999999999754 1 0  4.749999999999695 1 0  4.69999999999963 1 0  4.649999999999565 1 0  4.599999999999507 1 0  4.549999999999454 1 0  4.499999999999384 1 0  4.449999999999317 1 0  4.399999999999261 1 0  4.349999999999206 1 0  4.299999999999137 1 0  4.249999999999075 1 0  4.199999999999013 1 0  4.149999999998934 1 0  4.09999999999889 1 0  4.049999999998847 1 0  3.999999999998767 1 0  3.949999999998706 1 0  3.899999999998644 1 0  3.849999999998594 1 0  3.799999999998552 1 0  3.749999999998549 1 0  3.699999999998651 1 0  3.649999999998804 1 0  3.59999999999894 1 0  3.549999999999097 1 0  3.499999999999261 1 0  3.449999999999394 1 0  3.399999999999582 1 0  3.349999999999742 1 0  3.299999999999902 1 0  3.25000000000006 1 0  3.200000000000223 1 0  3.150000000000369 1 0  3.100000000000544 1 0  3.050000000000704 1 0  3.000000000000864 1 0  2.950000000001029 1 0  2.900000000001185 1 0  2.850000000001347 1 0  2.800000000001506 1 0  2.750000000001665 1 0  2.700000000001827 1 0  2.650000000001979 1 0  2.600000000002148 1 0  2.550000000002311 1 0  2.500000000002468 1 0  2.450000000002635 1 0  2.400000000002789 1 0  2.35000000000295 1 0  2.30000000000311 1 0  2.250000000003253 1 0  2.200000000003431 1 0  2.150000000003601 1 0  2.100000000003752 1 0  2.050000000003922 1 0  2.000000000004072 1 0  1.950000000004237 1 0  1.900000000004393 1 0  1.850000000004541 1 0  1.800000000004714 1 0  1.750000000004886 1 0  1.700000000005035 1 0  1.650000000005206 1 0  1.600000000005355 1 0  1.550000000005516 1 0  1.500000000005676 1 0  1.450000000005824 1 0  1.400000000005996 1 0  1.350000000006146 1 0  1.300000000006318 1 0  1.250000000006505 1 0  1.200000000006638 1 0  1.150000000006797 1 0  1.100000000006959 1 0  1.050000000007106 1 0  1.000000000007245 1 0  0.9500000000072193 1 0  0.9000000000072612 1 0  0.8500000000071966 1 0  0.8000000000071381 1 0  0.750000000007085 1 0  0.700000000007015 1 0  0.6500000000069521 1 0  0.6000000000068919 1 0  0.5500000000068104 1 0  0.5000000000067688 1 0  0.4500000000067104 1 0  0.4000000000066457 1 0  0.3500000000065757 1 0  0.3000000000065226 1 0  0.2500000000064961 1 0  0.2000000000063995 1 0  0.1500000000063775 1 0  0.1000000000062764 1 0  0.0500000000062597 1 0  6.153300091682468e-12 1 0  -0.04999999999390781 1 0  -0.09999999999396891 1 0  -0.14999999999403 1 0  -0.1999999999940929 1 0  -0.2499999999941318 1 0  -0.299999999994216 1 0  -0.349999999994254 1 0  -0.3999999999943391 1 0  -0.4499999999944038 1 0  -0.4999999999944613 1 0  -0.5499999999945429 1 0  -0.5999999999945853 1 0  -0.6499999999946606 1 0  -0.6999999999947084 1 0  -0.7499999999947651 1 0  -0.7999999999948315 1 0  -0.8499999999948926 1 0  -0.8999999999949537 1 0  -0.9499999999950148 1 0  -0.9999999999950768 1 0  -1.049999999995139 1 0  -1.0999999999952 1 0  -1.149999999995266 1 0  -1.199999999995324 1 0  -1.249999999995385 1 0  -1.299999999995446 1 0  -1.349999999995488 1 0  -1.399999999995569 1 0  -1.449999999995604 1 0  -1.499999999995692 1 0  -1.549999999995753 1 0  -1.599999999995816 1 0  -1.649999999995892 1 0  -1.699999999995939 1 0  -1.749999999996017 1 0  -1.799999999996063 1 0  -1.849999999996111 1 0  -1.899999999996185 1 0  -1.949999999996246 1 0  -1.999999999996308 1 0  -2.049999999996351 1 0  -2.099999999996431 1 0  -2.149999999996504 1 0  -2.199999999996555 1 0  -2.249999999996616 1 0  -2.299999999996677 1 0  -2.349999999996736 1 0  -2.3999999999968 1 0  -2.449999999996847 1 0  -2.499999999996923 1 0  -2.549999999997 1 0  -2.599999999997047 1 0  -2.649999999997093 1 0  -2.69999999999717 1 0  -2.749999999997245 1 0  -2.799999999997293 1 0  -2.849999999997344 1 0  -2.899999999997416 1 0  -2.949999999997469 1 0  -2.999999999997539 1 0  -3.049999999997576 1 0  -3.099999999997662 1 0  -3.149999999997725 1 0  -3.199999999997784 1 0  -3.249999999997829 1 0  -3.29999
[...]
<PointData  Vectors="(h, u)"> 
<DataArray  type="Float64"  Name="(h, u)"  NumberOfComponents="3" format="ascii">9.5429026407443391e+00 0.0000000000000000e+00 0.0000000000000000e+00  1.0005719283541428e+00 0.0000000000000000e+00 0.0000000000000000e+00  1.0015671394752568e+00 0.0000000000000000e+00 0.0000000000000000e+00  9.5365494195369251e+00 0.0000000000000000e+00 0.0000000000000000e+00  9.5379329586614716e+00 5.3978964710414835e-02 0.0000000000000000e+00  9.5343842478784939e+00 1.1207717427628543e-01 0.0000000000000000e+00  9.5228294193790024e+00 1.6448210185295439e-01 0.0000000000000000e+00  9.5138025999428937e+00 2.1984229476953457e-01 0.0000000000000000e+00  9.4885893850561320e+00 2.7593847076810168e-01 0.0000000000000000e+00  9.4737905335679748e+00 3.2786128402994980e-01 0.0000000000000000e+00  9.4478781922170114e+00 3.8569886587177482e-01 0.0000000000000000e+00  9.4155736052539059e+00 4.4352633398972008e-01 0.0000000000000000e+00  9.3918322536922627e+00 4.8697653334210378e-01 0.0000000000000000e+00  9.3583819550810379e+00 5.5940628253937652e-01 0.0000000000000000e+00  9.3084002300591280e+00 6.0321061597048786e-01 0.0000000000000000e+00  9.2859967582697198e+00 6.5757480987374461e-01 0.0000000000000000e+00  9.2418728446756173e+00 7.1683085637090171e-01 0.0000000000000000e+00  9.1796616020940256e+00 7.7818503943501527e-01 0.0000000000000000e+00  9.1578378844602302e+00 8.1567560468055411e-01 0.0000000000000000e+00  9.1064250303862426e+00 8.8678997259203141e-01 0.0000000000000000e+00  9.0339698171184146e+00 9.4477641713497362e-01 0.0000000000000000e+00  9.0124238589624817e+00 9.8739517092371909e-01 0.0000000000000000e+00  8.9599617538627179e+00 1.0498639624426886e+00 0.0000000000000000e+00  8.8723109837812277e+00 1.1268033476212749e+00 0.0000000000000000e+00  8.8606989793075126e+00 1.1534114267206836e+00 0.0000000000000000e+00  8.7983735840379449e+00 1.2272796239865225e+00 0.0000000000000000e+00  8.7097112947640447e+00 1.3042801326679181e+00 0.0000000000000000e+00  8.6924852408877946e+00 1.3336764314322762e+00 0.0000000000000000e+00  8.6408461654290374e+00 1.4005432956669521e+00 0.0000000000000000e+00  8.5297073830717967e+00 1.4941414293856918e+00 0.0000000000000000e+00  8.5322754051004761e+00 1.5136298433165141e+00 0.0000000000000000e+00  8.4629896497361248e+00 1.5826313299091426e+00 0.0000000000000000e+00  8.3642866133945084e+00 1.6854335339214794e+00 0.0000000000000000e+00  8.3474365169327154e+00 1.6994157610701797e+00 0.0000000000000000e+00  8.3037464552796507e+00 1.7680730590882814e+00 0.0000000000000000e+00  8.1727748254518069e+00 1.8794732912432532e+00 0.0000000000000000e+00  8.1852643121258044e+00 1.8893481095382476e+00 0.0000000000000000e+00  8.1131552357993240e+00 1.9595257547369920e+00 0.0000000000000000e+00  8.0118468101381470e+00 2.0712600709811682e+00 0.0000000000000000e+00  7.9872933189715090e+00 2.0899013933014645e+00 0.0000000000000000e+00  7.9559402822735983e+00 2.1448999485149529e+00 0.0000000000000000e+00  7.8139251456613348e+00 2.2734798230504905e+00 0.0000000000000000e+00  7.8282085580255387e+00 2.2887266119386873e+00 0.0000000000000000e+00  7.7540816330500384e+00 2.3286035841046595e+00 0.0000000000000000e+00  7.6642347910019746e+00 2.5023347378024599e+00 0.0000000000000000e+00  7.6194597988307295e+00 2.4400241177545907e+00 0.0000000000000000e+00  7.6030736240638204e+00 2.5947701635108835e+00 0.0000000000000000e+00  7.4618943318303810e+00 2.6334174935953878e+00 0.0000000000000000e+00  7.4681413210992851e+00 2.7018314670476169e+00 0.0000000000000000e+00  7.3911904140097207e+00 2.7648228602463707e+00 0.0000000000000000e+00  7.3238268596464433e+00 2.8395494817683140e+00 0.0000000000000000e+00  7.2533188963936563e+00 2.9380217312532655e+00 0.0000000000000000e+00  7.2441807800756823e+00 2.9108102254965509e+00 0.0000000000000000e+00  7.1195870915639903e+00 3.1436620492649596e+00 0.0000000000000000e+00  7.1092723714259929e+00 3.0090649973152317e+00 0.0000000000000000e+00  7.0252541270952245e+00 3.2876773205693608e+00 0.0000000000000000e+00  6.9915757635477709e+00 3.1714307540026820e+00 0.0000000000000000e+00  6.8930180291452876e+00 3.3755414318302215e+00 0.0000000000000000e+00  6.8846207838986748e+00 3.3832521799895261e+00 0.0000000000000000e+00  6.7875397508367410e+00 3.4493722390789858e+00 0.0000000000000000e+00  6.7585120950553357e+00 3.5402570757074256e+00 0.0000000000000000e+00  6.6656217773392559e+00 3.6364300550583732e+00 0.0000000000000000e+00  6.6627059125759072e+00 3.6026089939124217e+00 0.0000000000000000e+00  6.5466989667789468e+00 3.8123740853032588e+00 0.0000000000000000e+00  6.5283264410145998e+00 3.7711904870524480e+00 0.0000000000000000e+00  6.4542829503067338e+00 3.8928658670565435e+00 0.0000000000000000e+00  6.4188679464414635e+00 3.9474426181731874e+00 0.0000000000000000e+00  6.3119557244548252e+00 4.0360287008254856e+00 0.0000000000000000e+00  6.3231268865590984e+00 4.0706800340054077e+00 0.0000000000000000e+00  6.2116372814098391e+00 4.1891096444107747e+00 0.0000000000000000e+00  6.1805693270447266e+00 4.2022093415821153e+00 0.0000000000000000e+00  6.1082769825649903e+00 4.3501607331178382e+00 0.0000000000000000e+00  6.0857761218716941e+00 4.3265807887043710e+00 0.0000000000000000e+00  5.9747228190042447e+00 4.4802203337925413e+00 0.0000000000000000e+00  5.9718506753916927e+00 4.5205513170310896e+00 0.0000000000000000e+00  5.8847603694671236e+00 4.5716743285275738e+00 0.0000000000000000e+00  5.8507260787379956e+00 4.6492916781644498e+00 0.0000000000000000e+00  5.7652812154857180e+00 4.7909642267452774e+00 0.0000000000000000e+00  5.7618961419042254e+00 4.7070212214314564e+00 0.0000000000000000e+00  5.6558257132116454e+00 4.9421657071709593e+00 0.0000000000000000e+00  5.6406958562456149e+00 4.9095461066026589e+00 0.0000000000000000e+00  5.5685880776803058e+00 5.0032179020734473e+00 0.0000000000000000e+00  5.5352833734348490e+00 5.0744593885081279e+00 0.0000000000000000e+00  5.4472505542417000e+00 5.1837490465231202e+00 0.0000000000000000e+00  5.4522342867212616e+00 5.1480093813050063e+00 0.0000000000000000e+00  5.3442882982907687e+00 5.3480277750540166e+00 0.0000000000000000e+00  5.3256562727751140e+00 5.3245550259770393e+00 0.0000000000000000e+00  5.2640768862168166e+00 5.4276349663173855e+00 0.0000000000000000e+00  5.2297675369449728e+00 5.4891102925915201e+00 0.0000000000000000e+00  5.1358970901720333e+00 5.5857894327784710e+00 0.0000000000000000e+00  5.1425503569117401e+00 5.6010297898888561e+00 0.0000000000000000e+00  5.0469257045458340e+00 5.7420250563849740e+00 0.0000000000000000e+00  5.0030394486801306e+00 5.7484014767886524e+00 0.0000000000000000e+00  4.9548010247118972e+00 5.9156565140552724e+00 0.0000000000000000e+00  4.9152158392126681e+00 5.8474382792994390e+00 0.0000000000000000e+00  4.8260057208437424e+00 6.0922225246552593e+00 0.0000000000000000e+00  4.8259852804993519e+00 6.0095638919810002e+00 0.0000000000000000e+00  4.7256557599348756e+00 6.1921919965161818e+00 0.0000000000000000e+00  4.7099757053881000e+00 6.2075972746195003e+00 0.0000000000000000e+00  4.6462589151494642e+00 6.3080684670193179e+00 0.0000000000000000e+00  4.6421920620381698e+00 6.2906266466392582e+00 0.0000000000000000e+00  4.4734875460215937e+00 6.5747111758220740e+00 0.0000000000000000e+00  4.5646434801816431e+00 6.4184948749579114e+00 0.0000000000000000e+00  4.5165918520070036e+00 6.4892331008941166e+00 0.0000000000000000e+00  4.4113171417784409e+00 6.6717282128107422e+00 0.0000000000000000e+00  4.3110475045833025e+00 6.7812163771565901e+00 0.0000000000000000e+00  4.3165972124103869e+00 6.7959569326752813e+00 0.0000000000000000e+00  4.2739536884628784e+00 6.8670002398769983e+00 0.0000000000000000e+00  4.2594538116029970e+00 6.8811594103446332e+00 0.0000000000000000e+00  4.1601101413656210e+00 7.0363484101585296e+00 0.0000000000000000e+00  4.1232322823980150e+00 7.0827684400537709e+00 0.0000000000000000e+00  4.0609605193959277e+00 7.1930279435290325e+00 0.0000000000000000e+00  4.0385016001237135e+00 7.2198584585623919e+00 0.0000000000000000e+00  3.9908717916727481e+00 7.2956011072158908e+00 0.0000000000000000e+00  3.9638180542661008e+00 7.3456081821517447e+00 0.0000000000000000e+00  3.8887407477619100e+00 7.4441074987947129e+00 0.0000000000000000e+00  3.7955179135473065e+00 7.5824550124714243e+00 0.0000000000000000e+00  3.7507138828653379e+00 7.6683922624884655e+00 0.0000000000000000e+00  3.8730279715299378e+00 7.4960859678207576e+00 0.0000000000000000e+00  3.6336608745000567e+00 7.8687057804292202e+00 0.0000000000000000e+00  3.8394585294286814e+00 7.5755775446022202e+00 0.0000000000000000e+00  3.8534477932121094e+00 7.5396179674205088e+00 0.0000000000000000e+00  3.8944609202368774e+00 7.4550315048699787e+00 0.0000000000000000e+00  3.8829299070450420e+00 7.4791847219565195e+00 0.0000000000000000e+00  3.8976058291063036e+00 7.4418161125069657e+00 0.0000000000000000e+00  3.8864833242284265e+00 7.4670278696087315e+00 0.0000000000000000e+00  3.9980005310619511e+00 7.3238676675793561e+00 0.0000000000000000e+00  3.9907983131426570e+00 7.3263488688426674e+00 0.0000000000000000e+00  3.7824756914500330e+00 7.5979191312450149e+00 0.0000000000000000e+00  3.9270709675924254e+00 7.4131938582590964e+00 0.0000000000000000e+00  4.1814298953586340e+00 7.1107077509482437e+00 0.0000000000000000e+00  4.1340324282168748e+00 7.1696256157409595e+00 0.0000000000000000e+00  4.1040743170958720e+00 7.2151000192388022e+00 0.0000000000000000e+00  4.0300727420061877e+00 7.2866103287190791e+00 0.0000000000000000e+00  4.0310790351816737e+00 7.2987808388499369e+00 0.0000000000000000e+00  4.0381341372653923e+00 7.2780283475284859e+00 0.0000000000000000e+00  4.0208259153415193e+00 7.3089879062755996e+00 0.0000000000000000e+00  3.9944432920477153e+00 7.3296493599520378e+00 0.0000000000000000e+00  3.9967297860008490e+00 7.3377101577925075e+00 0.0000000000000000e+00  3.9933030543796275e+00 7.3277476420493048e+00 0.0000000000000000e+00  3.9845596241814696e+00 7.3475819227325170e+00 0.0000000000000000e+00  3.9680885042845957e+00 7.3605220899092689e+00 0.0000000000000000e+00  3.9700653515153457e+00 7.3567410414467034e+00 0.0000000000000000e+00  3.9849968711607451e+00 7.3402124390118981e+00 0.0000000000000000e+00  3.9685636796711155e+00 7.3582637884484141e+00 0.0000000000000000e+00  3.9796256077535079e+00 7.3422082969235767e+00 0.0000000000000000e+00  3.9724348009934212e+00 7.3488965333395644e+00 0.0000000000000000e+00  3.9612902671998191e+00 7.3675994995911624e+00 0.0000000000000000e+00  3.9427425809373187e+00 7.3796647859222002e+00 0.0000000000000000e+00  3.9747578984014589e+00 7.3455519728452181e+00 0.0000000000000000e+00  3.9777548235648812e+00 7.3359428276466518e+00 0.0000000000000000e+00  3.9720196844023428e+00 7.3503229366304890e+00 0.0000000000000000e+00  3.9548152088090611e+00 7.3601611502389774e+00 0.0000000000000000e+00  3.9734522043561258e+00 7.3460404049264083e+00 0.0000000000000000e+00  3.9649920342458027e+00 7.3464660500970149e+00 0.0000000000000000e+00  3.9680502221683125e+00 7.3487617877315650e+00 0.0000000000000000e+00  3.9590306438198879e+00 7.3514700061619811e+00 0.0000000000000000e+00  3.9717786479860444e+00 7.3423874940445391e+00 0.0000000000000000e+00  3.9691388624298103e+00 7.3390001803613867e+00 0.0000000000000000e+00  3.9751507318111243e+00 7.3355513311120610e+00 0.0000000000000000e+00  3.9672511651170965e+00 7.3414102695372705e+00 0.0000000000000000e+00  3.9665755815630601e+00 7.3445354083432788e+00 0.0000000000000000e+00  3.9650638104330871e+00 7.3424149659809803e+00 0.0000000000000000e+00  3.9726473197590151e+00 7.3333598980762984e+00 0.0000000000000000e+00  3.9731056659980988e+00 7.3309751600080517e+00 0.0000000000000000e+00  3.9688554675884644e+00 7.3364802127173974e+00 0.0000000000000000e+00  3.9617679016802119e+00 7.3430650115806460e+00 0.0000000000000000e+00  3.9611193619343088e+00 7.3423989660408466e+00 0.0000000000000000e+00  3.9645727385226981e+00 7.3367667079312193e+00 0.0000000000000000e+00  3.9683393516038663e+00 7.3321221192016575e+00 0.0000000000000000e+00  3.9682272415580098e+00 7.3321913918935930e+00 0.0000000000000000e+00  3.9660889747322634e+00 7.3347157747455753e+00 0.0000000000000000e+00  3.9648847123107767e+00 7.3361276011628052e+00 0.0000000000000000e+00  3.9658875664464799e+00 7.3354861963597431e+00 0.0000000000000000e+00  3.9669672225299184e+00 7.3353067295770211e+00 0.0000000000000000e+00  3.9660801801567733e+00 7.3377178439686332e+00 0.0000000000000000e+00  3.9641193996221924e+00 7.3418406607619131e+00 0.0000000000000000e+00  3.9618995574690268e+00 7.3440186848572218e+00 0.0000000000000000e+00  3.9615015103990348e+00 7.3452629442908393e+00 0.0000000000000000e+00  3.9622095466297589e+00 7.3435940045752091e+00 0.0000000000000000e+00  3.9636492916487884e+00 7.3419101621977436e+00 0.0000000000000000e+00  3.9648825692707010e+00 7.3387385174831001e+00 0.0000000000000000e+00  3.9659397506308669e+00 7.3374436320839349e+00 0.0000000000000000e+00  3.9655930771524002e+00 7.3348973835304241e+00 0.0000000000000000e+00  3.9656371353372419e+00 7.3326668300223581e+00 0.0000000000000000e+00  3.9654245481891954e+00 7.3307379153833647e+00 0.0000000000000000e+00  3.9649513573564983e+00 7.3269970059598055e+00 0.0000000000000000e+00  3.9650430866929951e+00 7.3236962773681569e+00 0.0000000000000000e+00  3.9666692264648988e+00 7.3211904701973216e+00 0.0000000000000000e+00  3.9650075046267395e+00 7.3165592778517485e+00 0.0000000000000000e+00  3.9659248990794804e+00 7.3148279717396960e+00 0.0000000000000000e+00  3.9656687963956965e+00 7.3137615521510897e+00 0.0000000000000000e+00  3.9593069885348031e+00 7.3038304069801399e+00 0.0000000000000000e+00  3.9549382186648847e+00 7.2998219484741371e+00 0.0000000000000000e+00  3.9382411981879462e+00 7.2759058811490398e+00 0.0000000000000000e+00  3.8971163373489239e+00 7.2144980228778550e+00 0.0000000000000000e+00  3.8289677044220070e+00 7.1121986677541091e+00 0.0000000000000000e+00  3.6568460095829045e+00 6.8250173344674554e+00 0.0000000000000000e+00  3.3141114329371835e+00 6.2426712616316271e+00 0.0000000000000000e+00  2.7143452305901792e+00 5.0066034826086252e+00 0.0000000000000000e+00  1.7517403607110522e+00 2.5165776625284706e+00 0.0000000000000000e+00  1.0745993353618886e+00 1.8074561888563595e-01 0.0000000000000000e+00  9.9366556894778157e-01 -6.1349441107378050e-03 0.0000000000000000e+00  1.0001437858265261e+00 0.0000000000000000e+00 9.7771711140565393e-04  1.0005724372871041e+00 0.0000000000000000e+00 6.9023366335875527e-05  1.0014338889551408e+00 0.0000000000000000e+00 1.2737818313366910e-04  1.0001717695456716e+00 0.0000000000000000e+00 -1.2478641188970918e-03  1.0002018881480383e+00 0.0000000000000000e+00 5.2202780465165198e-05  1.0003561668415535e+00 0.0000000000000000e+00 2.3217688456961434e-04  1.0013896313258495e+00 0.0000000000000000e+00 6.5105503630448469e-04  1.0003374822900024e+00 0.0000000000000000e+00 -1.1372067407249844e-03  1.0005417941198611e+00 0.0000000000000000e+00 4.8674137837459866e-05  1.0000555176980257e+00 0.0000000000000000e+00 -1.3761334929867292e-06  1.0019527742271517e+00 0.0000000000000000e+00 3.9297729240280943e-03  1.0011117145779214e+00 0.0000000000000000e+00 -3.1084483479613310e-03  1.0023318795843219e+00 0.0000000000000000e+00 -3.0156125072634201e-03  1.0036261125835728e+00 0.0000000000000000e+00 3.7865020066160578e-04  1.0024035144025052e+00 0.0000000000000000e+00 4.2050392582623228e-03  1.0011094035382420e+00 0.0000000000000000e+00 2.0513913364904358e-03  1.0022106055149307e+00 0.0000000000000000e+00 -3.7060945967695501e-03  9.9997583922088473e-01 0.0000000000000000e+00 -2.4331405723194480e-04  1.0007228022273740e+00 0.0000000000000000e+00 -8.7664227824886011e-04  1.0007056026906598e+00 0.0000000000000000e+00 8.7932637823242437e-04  1.0019384598841636e+00 0.0000000000000000e+00 1.1919844922051068e-03  1.0006145153107069e+00 0.0000000000000000e+00 -2.3814184045977947e-03  1.0009828630088571e+00 0.0000000000000000e+00 9.8819754788702059e-04  9.9999340185302021e-01 0.0000000000000000e+00 4.1712001800884197e-04  1.0018173738007798e+00 0.0000000000000000e+00 4.3268834038715596e-03  1.0017880587415229e+00 0.0000000000000000e+00 -3.9586594934365492e-03  1.0020223294710624e+00 0.0000000000000000e+00 -1.7894550958348941e-04  1.0010907949274535e+00 0.0000000000000000e+00 -5.1657496099087033e-04  1.0027549342216413e+00 0.0000000000000000e+00 5.9513207507696370e-04  1.0014636362397067e+00 0.0000000000000000e+00 -9.5039305945648000e-04  1.0019297023836606e+00 0.0000000000000000e+00 9.9044418642020354e-04  1.0015336671791628e+00 0.0000000000000000e+00 2.4978173774798447e-04  1.0022185950549338e+00 0.0000000000000000e+00 1.3414454976829791e-04  1.0008965048323750e+00 0.0000000000000000e+00 -1.3750840338440497e-03  1.0027576342424283e+00 0.0000000000000000e+00 -1.2857847070398779e-03  1.0025058300127958e+00 0.0000000000000000e+00 -2.5643451898879555e-05  1.0029807533683135e+00 0.0000000000000000e+00 -4.7343997974930456e-04  1.0014297798193625e+00 0.0000000000000000e+00 5.5655868668683518e-04  1.0008937488459604e+00 0.0000000000000000e+00 2.2431805376991239e-04  9.8892640065266124e-01 -1.4272422845905589e-02 0.0000000000000000e+00  1.1457009418352524e+00 4.1072411596346076e-01 0.0000000000000000e+00  1.9468257155643043e+00 3.0846193051558668e+00 0.0000000000000000e+00  2.8447162264151369e+00 5.3044079593789730e+00 0.0000000000000000e+00  3.4099959879675619e+00 6.3120309517145436e+00 0.0000000000000000e+00  3.6893252049259329e+00 6.7628211434709291e+00 0.0000000000000000e+00  3.8418626060713454e+00 7.1184615869908487e+00 0.0000000000000000e+00  3.8828288066064029e+00 7.1295914137732188e+00 0.0000000000000000e+00  3.9400631955066503e+00 7.1859650007556404e+00 0.0000000000000000e+00  3.9238224793274843e+00 7.2033543829271274e+00 0.0000000000000000e+00  3.9502624872329126e+00 7.2261466812996149e+00 0.0000000000000000e+00  3.9481622518542019e+00 7.1381134072707173e+00 0.0000000000000000e+00  3.9492613694341592e+00 7.2125444035443493e+00 0.0000000000000000e+00  3.9537367156784411e+00 7.1650524322729678e+00 0.0000000000000000e+00  3.9586372765238278e+00 7.0964068564947569e+00 0.0000000000000000e+00  3.9634967564793406e+00 7.1446102492538444e+00 0.0000000000000000e+00  3.9464502188232564e+00 7.1104502702993777e+00 0.0000000000000000e+00  3.9270202645795904e+00 7.1113959329961842e+00 0.0000000000000000e+00  3.9745380224708353e+00 7.0997156899114300e+00 0.0000000000000000e+00  3.9387867482975198e+00 7.0783210722822600e+00 0.0000000000000000e+00  3.9419266534519437e+00 7.1167053912913909e+00 0.0000000000000000e+00  3.9329939699150631e+00 7.1357243753194393e+00 0.0000000000000000e+00  3.9544465603895018e+00 7.0850937935510547e+00 0.0000000000000000e+00  3.9507382672516536e+00 7.1415158474661560e+00 0.0000000000000000e+00  3.9605615213664835e+00 7.1284267548614721e+00 0.0000000000000000e+00  3.9540998636635853e+00 7.1598859846793230e+00 0.0000000000000000e+00  3.9528029992323992e+00 7.1915338209560495e+00 0.0000000000000000e+00  3.9662616231296894e+00 7.2165760782215687e+00 0.0000000000000000e+00  3.9351410219139287e+00 7.3111029531927834e+00 0.0000000000000000e+00  3.9597180534417635e+00 7.2544459335702927e+00 0.0000000000000000e+00  3.9641672166843991e+00 7.2810321531527702e+00 0.0000000000000000e+00  3.9565396522996297e+00 7.2881630748451682e+00 0.0000000000000000e+00  3.9697009073860001e+00 7.3322166207293238e+00 0.0000000000000000e+00  3.9608868475119596e+00 7.3183884062802935e+00 0.0000000000000000e+00  3.9469950793608426e+00 7.3480194705806330e+00 0.0000000000000000e+00  3.9663645375145831e+00 7.3562208474071902e+00 0.0000000000000000e+00  3.9866438629772896e+00 7.2011623707439067e+00 0.0000000000000000e+00  3.9661280166075858e+00 7.3189042290935875e+00 0.0000000000000000e+00  3.9477439450733356e+00 7.3938003536757124e+00 0.0000000000000000e+00  3.9626412136845595e+00 7.2759573140012854e+00 0.0000000000000000e+00  3.9743203635821613e+00 7.3191042747484305e+00 0.0000000000000000e+00  3.9533462154600860e+00 7.3578505321353438e+00 0.00000000000