<?xml version="1.0"?>
<VTKFile type="UnstructuredGrid"  version="0.1"  >
<UnstructuredGrid>
<Piece  NumberOfPoints="9509" NumberOfCells="18536">
<Points>
<DataArray  type="Float64"  NumberOfComponents="3"  format="ascii">-5 -1 0  5 -1 0  5 1 0  -5 1 0  -4.949999999999965 -1 0  -4.899999999999877 -1 0  -4.849999999999826 -1 0  -4.799999999999754 -1 0  -4.749999999999695 -1 0  -4.69999999999963 -1 0  -4.649999999999565 -1 0  -4.599999999999507 -1 0  -4.549999999999454 -1 0  -4.499999999999384 -1 0  -4.449999999999317 -1 0  -4.399999999999261 -1 0  -4.349999999999206 -1 0  -4.299999999999137 -1 0  -4.249999999999075 -1 0  -4.199999999999013 -1 0  -4.149999999998934 -1 0  -4.09999999999889 -1 0  -4.049999999998847 -1 0  -3.999999999998767 -1 0  -3.949999999998706 -1 0  -3.899999999998644 -1 0  -3.849999999998594 -1 0  -3.799999999998552 -1 0  -3.749999999998549 -1 0  -3.699999999998651 -1 0  -3.649999999998804 -1 0  -3.59999999999894 -1 0  -3.549999999999097 -1 0  -3.499999999999261 -1 0  -3.449999999999394 -1 0  -3.399999999999582 -1 0  -3.349999999999742 -1 0  -3.299999999999902 -1 0  -3.25000000000006 -1 0  -3.200000000000223 -1 0  -3.150000000000369 -1 0  -3.100000000000544 -1 0  -3.050000000000704 -1 0  -3.000000000000864 -1 0  -2.950000000001029 -1 0  -2.900000000001185 -1 0  -2.850000000001347 -1 0  -2.800000000001506 -1 0  -2.750000000001665 -1 0  -2.700000000001827 -1 0  -2.650000000001979 -1 0  -2.600000000002148 -1 0  -2.550000000002311 -1 0  -2.500000000002468 -1 0  -2.450000000002635 -1 0  -2.400000000002789 -1 0  -2.35000000000295 -1 0  -2.30000000000311 -1 0  -2.250000000003253 -1 0  -2.200000000003431 -1 0  -2.150000000003601 -1 0  -2.100000000003752 -1 0  -2.050000000003922 -1 0  -2.000000000004072 -1 0  -1.950000000004237 -1 0  -1.900000000004393 -1 0  -1.850000000004541 -1 0  -1.800000000004714 -1 0  -1.750000000004886 -1 0  -1.700000000005035 -1 0  -1.650000000005206 -1 0  -1.600000000005355 -1 0  -1.550000000005516 -1 0  -1.500000000005676 -1 0  -1.450000000005824 -1 0  -1.400000000005996 -1 0  -1.350000000006146 -1 0  -1.300000000006318 -1 0  -1.250000000006505 -1 0  -1.200000000006638 -1 0  -1.150000000006797 -1 0  -1.100000000006959 -1 0  -1.050000000007106 -1 0  -1.000000000007245 -1 0  -0.9500000000072193 -1 0  -0.9000000000072612 -1 0  -0.8500000000071966 -1 0  -0.8000000000071381 -1 0  -0.750000000007085 -1 0  -0.700000000007015 -1 0  -0.6500000000069521 -1 0  -0.6000000000068919 -1 0  -0.5500000000068104 -1 0  -0.5000000000067688 -1 0  -0.4500000000067104 -1 0  -0.4000000000066457 -1 0  -0.3500000000065757 -1 0  -0.3000000000065226 -1 0  -0.2500000000064961 -1 0  -0.2000000000063995 -1 0  -0.1500000000063775 -1 0  -0.1000000000062764 -1 0  -0.0500000000062597 -1 0  -6.153300091682468e-12 -1 0  0.04999999999390781 -1 0  0.09999999999396891 -1 0  0.14999999999403 -1 0  0.1999999999940929 -1 0  0.2499999999941318 -1 0  0.299999999994216 -1 0  0.349999999994254 -1 0  0.3999999999943391 -1 0  0.4499999999944038 -1 0  0.4999999999944613 -1 0  0.5499999999945429 -1 0  0.5999999999945853 -1 0  0.6499999999946606 -1 0  0.6999999999947084 -1 0  0.7499999999947651 -1 0  0.7999999999948315 -1 0  0.8499999999948926 -1 0  0.8999999999949537 -1 0  0.9499999999950148 -1 0  0.9999999999950768 -1 0  1.049999999995139 -1 0  1.0999999999952 -1 0  1.149999999995266 -1 0  1.199999999995324 -1 0  1.249999999995385 -1 0  1.299999999995446 -1 0  1.349999999995488 -1 0  1.399999999995569 -1 0  1.449999999995604 -1 0  1.499999999995692 -1 0  1.549999999995753 -1 0  1.599999999995816 -1 0  1.649999999995892 -1 0  1.699999999995939 -1 0  1.749999999996017 -1 0  1.799999999996063 -1 0  1.849999999996111 -1 0  1.899999999996185 -1 0  1.949999999996246 -1 0  1.999999999996308 -1 0  2.049999999996351 -1 0  2.099999999996431 -1 0  2.149999999996504 -1 0  2.199999999996555 -1 0  2.249999999996616 -1 0  2.299999999996677 -1 0  2.349999999996736 -1 0  2.3999999999968 -1 0  2.449999999996847 -1 0  2.499999999996923 -1 0  2.549999999997 -1 0  2.599999999997047 -1 0  2.649999999997093 -1 0  2.69999999999717 -1 0  2.749999999997245 -1 0  2.799999999997293 -1 0  2.849999999997344 -1 0  2.899999999997416 -1 0  2.949999999997469 -1 0  2.999999999997539 -1 0  3.049999999997576 -1 0  3.099999999997662 -1 0  3.149999999997725 -1 0  3.199999999997784 -1 0  3.249999999997829 -1 0  3.299999999997908 -1 0  3.349999999997921 -1 0  3.39999999999803 -1 0  3.4499999999981 -1 0  3.499999999998153 -1 0  3.549999999998214 -1 0  3.599999999998277 -1 0  3.649999999998409 -1 0  3.699999999998401 -1 0  3.749999999998444 -1 0  3.799999999998523 -1 0  3.849999999998602 -1 0  3.899999999998645 -1 0  3.949999999998658 -1 0  3.999999999998769 -1 0  4.049999999998814 -1 0  4.099999999998893 -1 0  4.149999999998883 -1 0  4.199999999999015 -1 0  4.249999999999064 -1 0  4.299999999999137 -1 0  4.349999999999152 -1 0  4.399999999999261 -1 0  4.44999999999933 -1 0  4.499999999999385 -1 0  4.549999999999446 -1 0  4.599999999999508 -1 0  4.649999999999633 -1 0  4.699999999999632 -1 0  4.749999999999723 -1 0  4.799999999999754 -1 0  4.849999999999801 -1 0  4.899999999999876 -1 0  4.949999999999925 -1 0  5 -0.950000000000111 0  5 -0.9000000000002774 0  5 -0.8500000000004283 0  5 -0.8000000000005548 0  5 -0.7500000000006787 0  5 -0.7000000000008322 0  5 -0.6500000000009709 0  5 -0.6000000000011096 0  5 -0.5500000000012484 0  5 -0.500000000001387 0  5 -0.4500000000015256 0  5 -0.4000000000016644 0  5 -0.3500000000018031 0  5 -0.3000000000019418 0  5 -0.2500000000020806 0  5 -0.2000000000022192 0  5 -0.1500000000023578 0  5 -0.1000000000024964 0  5 -0.05000000000262439 0  5 -2.752242878045763e-12 0  5 0.0499999999973757 0  5 0.09999999999750342 0  5 0.1499999999976422 0  5 0.1999999999977808 0  5 0.2499999999979194 0  5 0.2999999999980583 0  5 0.3499999999981969 0  5 0.3999999999983355 0  5 0.4499999999984743 0  5 0.4999999999986129 0  5 0.5499999999987515 0  5 0.5999999999988903 0  5 0.6499999999990291 0  5 0.699999999999168 0  5 0.7499999999993068 0  5 0.7999999999994454 0  5 0.849999999999584 0  5 0.8999999999997226 0  5 0.9499999999998612 0  4.949999999999965 1 0  4.899999999999877 1 0  4.849999999999826 1 0  4.799999999999754 1 0  4.749999999999695 1 0  4.69999999999963 1 0  4.649999999999565 1 0  4.599999999999507 1 0  4.549999999999454 1 0  4.499999999999384 1 0  4.449999999999317 1 0  4.399999999999261 1 0  4.349999999999206 1 0  4.299999999999137 1 0  4.249999999999075 1 0  4.199999999999013 1 0  4.149999999998934 1 0  4.09999999999889 1 0  4.049999999998847 1 0  3.999999999998767 1 0  3.949999999998706 1 0  3.899999999998644 1 0  3.849999999998594 1 0  3.799999999998552 1 0  3.749999999998549 1 0  3.699999999998651 1 0  3.649999999998804 1 0  3.59999999999894 1 0  3.549999999999097 1 0  3.499999999999261 1 0  3.449999999999394 1 0  3.399999999999582 1 0  3.349999999999742 1 0  3.299999999999902 1 0  3.25000000000006 1 0  3.200000000000223 1 0  3.150000000000369 1 0  3.100000000000544 1 0  3.050000000000704 1 0  3.000000000000864 1 0  2.950000000001029 1 0  2.900000000001185 1 0  2.850000000001347 1 0  2.800000000001506 1 0  2.750000000001665 1 0  2.700000000001827 1 0  2.650000000001979 1 0  2.600000000002148 1 0  2.550000000002311 1 0  2.500000000002468 1 0  2.450000000002635 1 0  2.400000000002789 1 0  2.35000000000295 1 0  2.30000000000311 1 0  2.250000000003253 1 0  2.200000000003431 1 0  2.150000000003601 1 0  2.100000000003752 1 0  2.050000000003922 1 0  2.000000000004072 1 0  1.950000000004237 1 0  1.900000000004393 1 0  1.850000000004541 1 0  1.800000000004714 1 0  1.750000000004886 1 0  1.700000000005035 1 0  1.650000000005206 1 0  1.600000000005355 1 0  1.550000000005516 1 0  1.500000000005676 1 0  1.450000000005824 1 0  1.400000000005996 1 0  1.350000000006146 1 0  1.300000000006318 1 0  1.250000000006505 1 0  1.200000000006638 1 0  1.150000000006797 1 0  1.100000000006959 1 0  1.050000000007106 1 0  1.000000000007245 1 0  0.9500000000072193 1 0  0.9000000000072612 1 0  0.8500000000071966 1 0  0.8000000000071381 1 0  0.750000000007085 1 0  0.700000000007015 1 0  0.6500000000069521 1 0  0.6000000000068919 1 0  0.5500000000068104 1 0  0.5000000000067688 1 0  0.4500000000067104 1 0  0.4000000000066457 1 0  0.3500000000065757 1 0  0.3000000000065226 1 0  0.2500000000064961 1 0  0.2000000000063995 1 0  0.1500000000063775 1 0  0.1000000000062764 1 0  0.0500000000062597 1 0  6.153300091682468e-12 1 0  -0.04999999999390781 1 0  -0.09999999999396891 1 0  -0.14999999999403 1 0  -0.1999999999940929 1 0  -0.2499999999941318 1 0  -0.299999999994216 1 0  -0.349999999994254 1 0  -0.3999999999943391 1 0  -0.4499999999944038 1 0  -0.4999999999944613 1 0  -0.5499999999945429 1 0  -0.5999999999945853 1 0  -0.6499999999946606 1 0  -0.6999999999947084 1 0  -0.7499999999947651 1 0  -0.7999999999948315 1 0  -0.8499999999948926 1 0  -0.8999999999949537 1 0  -0.9499999999950148 1 0  -0.9999999999950768 1 0  -1.049999999995139 1 0  -1.0999999999952 1 0  -1.149999999995266 1 0  -1.199999999995324 1 0  -1.249999999995385 1 0  -1.299999999995446 1 0  -1.349999999995488 1 0  -1.399999999995569 1 0  -1.449999999995604 1 0  -1.499999999995692 1 0  -1.549999999995753 1 0  -1.599999999995816 1 0  -1.649999999995892 1 0  -1.699999999995939 1 0  -1.749999999996017 1 0  -1.799999999996063 1 0  -1.849999999996111 1 0  -1.899999999996185 1 0  -1.949999999996246 1 0  -1.999999999996308 1 0  -2.049999999996351 1 0  -2.099999999996431 1 0  -2.149999999996504 1 0  -2.199999999996555 1 0  -2.249999999996616 1 0  -2.299999999996677 1 0  -2.349999999996736 1 0  -2.3999999999968 1 0  -2.449999999996847 1 0  -2.499999999996923 1 0  -2.549999999997 1 0  -2.599999999997047 1 0  -2.649999999997093 1 0  -2.69999999999717 1 0  -2.749999999997245 1 0  -2.799999999997293 1 0  -2.849999999997344 1 0  -2.899999999997416 1 0  -2.949999999997469 1 0  -2.999999999997539 1 0  -3.049999999997576 1 0  -3.099999999997662 1 0  -3.149999999997725 1 0  -3.199999999997784 1 0  -3.249999999997829 1 0  -3.29999
[...]
<PointData  Vectors="(h, u)"> 
<DataArray  type="Float64"  Name="(h, u)"  NumberOfComponents="3" format="ascii">4.7429757159729125e+00 0.0000000000000000e+00 0.0000000000000000e+00  9.5007175395817871e+00 0.0000000000000000e+00 0.0000000000000000e+00  9.4997747204701000e+00 0.0000000000000000e+00 0.0000000000000000e+00  4.7414423176664071e+00 0.0000000000000000e+00 0.0000000000000000e+00  4.7523888738961393e+00 5.2395377101461686e-02 0.0000000000000000e+00  4.7425981701704307e+00 1.5793919542493656e-01 0.0000000000000000e+00  4.7541233595547290e+00 2.0920428833867555e-01 0.0000000000000000e+00  4.7406388310382921e+00 2.1687609522643608e-01 0.0000000000000000e+00  4.7524358461906955e+00 3.4272236267649553e-01 0.0000000000000000e+00  4.7450120383872436e+00 4.3716923590293416e-01 0.0000000000000000e+00  4.7477470166194014e+00 4.1499063050763496e-01 0.0000000000000000e+00  4.7481844281707541e+00 6.0859068541692596e-01 0.0000000000000000e+00  4.7452454576970036e+00 5.8371563483529776e-01 0.0000000000000000e+00  4.7419416418176787e+00 6.4854228842819539e-01 0.0000000000000000e+00  4.7499506086329717e+00 7.4979639470325299e-01 0.0000000000000000e+00  4.7423040322695789e+00 8.4754265626991865e-01 0.0000000000000000e+00  4.7366655727931279e+00 7.6131743995763268e-01 0.0000000000000000e+00  4.7516140734893755e+00 1.0406900676395272e+00 0.0000000000000000e+00  4.7357605013336856e+00 9.6978446705226651e-01 0.0000000000000000e+00  4.7387496960866260e+00 1.0449967131442905e+00 0.0000000000000000e+00  4.7424210652284726e+00 1.1424068305628974e+00 0.0000000000000000e+00  4.7426202128824926e+00 1.2820089956634322e+00 0.0000000000000000e+00  4.7232841102499847e+00 1.1510078278405169e+00 0.0000000000000000e+00  4.7521736329870858e+00 1.3982095602680706e+00 0.0000000000000000e+00  4.7259172995822807e+00 1.4304309043213836e+00 0.0000000000000000e+00  4.7329121101385718e+00 1.4110997386427548e+00 0.0000000000000000e+00  4.7333129466687049e+00 1.5540539587749553e+00 0.0000000000000000e+00  4.7378649039924525e+00 1.6201964433133695e+00 0.0000000000000000e+00  4.7117001131668337e+00 1.6289609395981246e+00 0.0000000000000000e+00  4.7443041670816477e+00 1.7752623786752504e+00 0.0000000000000000e+00  4.7177045030305074e+00 1.7593624942512658e+00 0.0000000000000000e+00  4.7220290610078202e+00 1.8751627622146363e+00 0.0000000000000000e+00  4.7222118636581794e+00 1.9540015629065668e+00 0.0000000000000000e+00  4.7292430836800570e+00 1.9766161089808867e+00 0.0000000000000000e+00  4.6996436408594846e+00 2.0611668581990323e+00 0.0000000000000000e+00  4.7315227425574733e+00 2.1404019757719874e+00 0.0000000000000000e+00  4.7085975537391285e+00 2.1980047345671454e+00 0.0000000000000000e+00  4.7077489778669195e+00 2.2474190903378064e+00 0.0000000000000000e+00  4.7114305607815181e+00 2.3342387308483334e+00 0.0000000000000000e+00  4.7141968789666908e+00 2.3897282656369030e+00 0.0000000000000000e+00  4.6911381051689087e+00 2.4685968013074002e+00 0.0000000000000000e+00  4.7129610929049974e+00 2.5008904019247415e+00 0.0000000000000000e+00  4.6989699492587729e+00 2.6146848094690562e+00 0.0000000000000000e+00  4.6914566806765601e+00 2.6513627041559080e+00 0.0000000000000000e+00  4.6987761698726649e+00 2.7068347735964924e+00 0.0000000000000000e+00  4.6944390254766954e+00 2.8084869142922577e+00 0.0000000000000000e+00  4.6819404554359716e+00 2.8529071218887871e+00 0.0000000000000000e+00  4.6900265460630486e+00 2.8996223348169687e+00 0.0000000000000000e+00  4.6848908269206646e+00 3.0187473824673030e+00 0.0000000000000000e+00  4.6732000180917819e+00 3.0209310662102551e+00 0.0000000000000000e+00  4.6812553548744935e+00 3.1427117023849283e+00 0.0000000000000000e+00  4.6708770240773960e+00 3.1566793451469399e+00 0.0000000000000000e+00  4.6688406237868687e+00 3.2754194824004350e+00 0.0000000000000000e+00  4.6645533032121129e+00 3.2878084939024217e+00 0.0000000000000000e+00  4.6642729382290558e+00 3.3933146618591095e+00 0.0000000000000000e+00  4.6542481125607544e+00 3.4333578315577746e+00 0.0000000000000000e+00  4.6576050042906489e+00 3.5121844576676127e+00 0.0000000000000000e+00  4.6461215528140496e+00 3.5658749485458348e+00 0.0000000000000000e+00  4.6509524085280800e+00 3.6372265667864978e+00 0.0000000000000000e+00  4.6378507428039617e+00 3.6999107219638150e+00 0.0000000000000000e+00  4.6397139764446305e+00 3.7629185722061673e+00 0.0000000000000000e+00  4.6350400868230075e+00 3.8250821491230513e+00 0.0000000000000000e+00  4.6284102276063077e+00 3.8897403018492644e+00 0.0000000000000000e+00  4.6198213236954588e+00 3.9741356872835341e+00 0.0000000000000000e+00  4.6277881383499055e+00 3.9872347872962211e+00 0.0000000000000000e+00  4.6075357999391411e+00 4.1191624227989481e+00 0.0000000000000000e+00  4.6078119998752101e+00 4.1338971280830767e+00 0.0000000000000000e+00  4.6087109841470797e+00 4.2095848368541544e+00 0.0000000000000000e+00  4.5973302918047390e+00 4.2810518780336730e+00 0.0000000000000000e+00  4.5874129392937784e+00 4.3510840198362839e+00 0.0000000000000000e+00  4.5959485861222653e+00 4.3716763619275687e+00 0.0000000000000000e+00  4.5811320599648262e+00 4.4974147781037859e+00 0.0000000000000000e+00  4.5735573710940089e+00 4.5005534720906457e+00 0.0000000000000000e+00  4.5762670263832126e+00 4.5992468159986251e+00 0.0000000000000000e+00  4.5732135561226377e+00 4.6395474884317780e+00 0.0000000000000000e+00  4.5603512169614433e+00 4.6984264858918445e+00 0.0000000000000000e+00  4.5499594522798077e+00 4.7907322447986695e+00 0.0000000000000000e+00  4.5644257643413093e+00 4.8085451825022600e+00 0.0000000000000000e+00  4.5395868773344175e+00 4.8798230691559032e+00 0.0000000000000000e+00  4.5242474430071189e+00 4.9986123199381849e+00 0.0000000000000000e+00  4.5331904303979336e+00 4.9740443627518180e+00 0.0000000000000000e+00  4.5369722207225243e+00 5.0727524427103381e+00 0.0000000000000000e+00  4.4836554177430310e+00 5.1663883389348504e+00 0.0000000000000000e+00  4.5128635281050942e+00 5.1872386740242744e+00 0.0000000000000000e+00  4.4959389154596492e+00 5.2369606500283901e+00 0.0000000000000000e+00  4.4926172454617994e+00 5.3467796923262263e+00 0.0000000000000000e+00  4.4524859967977131e+00 5.3495986844720562e+00 0.0000000000000000e+00  4.4777453868878769e+00 5.4794949940371112e+00 0.0000000000000000e+00  4.4537336908896465e+00 5.4667143890816341e+00 0.0000000000000000e+00  4.4442786500864218e+00 5.5504972112237478e+00 0.0000000000000000e+00  4.4181072371719212e+00 5.6683683984909425e+00 0.0000000000000000e+00  4.4334302605413267e+00 5.6421305413361003e+00 0.0000000000000000e+00  4.3905718594255365e+00 5.7402117819991574e+00 0.0000000000000000e+00  4.4238580287002831e+00 5.8196574679862385e+00 0.0000000000000000e+00  4.3597238122336455e+00 5.8183861019574250e+00 0.0000000000000000e+00  4.3995288402209152e+00 5.9143396646404973e+00 0.0000000000000000e+00  4.3679470090585522e+00 5.9499243178100443e+00 0.0000000000000000e+00  4.3925444827635829e+00 5.9499803987302915e+00 0.0000000000000000e+00  4.2970258327705597e+00 6.1228693025226262e+00 0.0000000000000000e+00  4.3747133106221954e+00 6.1156743216404870e+00 0.0000000000000000e+00  4.3061422208341193e+00 6.1139168042375989e+00 0.0000000000000000e+00  4.2877484438776259e+00 6.3223888695618617e+00 0.0000000000000000e+00  4.3016503550289018e+00 6.2442687628457092e+00 0.0000000000000000e+00  4.3133617105865918e+00 6.2725641470636821e+00 0.0000000000000000e+00  4.1883428792602402e+00 6.5161383611471626e+00 0.0000000000000000e+00  4.2554663716685823e+00 6.4287762877349337e+00 0.0000000000000000e+00  4.2264637001464775e+00 6.4873310046037744e+00 0.0000000000000000e+00  4.1970644358168698e+00 6.5867298474296803e+00 0.0000000000000000e+00  4.2366983498817001e+00 6.5444450425459673e+00 0.0000000000000000e+00  4.2023750397884116e+00 6.6200020065295728e+00 0.0000000000000000e+00  4.1915668639980925e+00 6.6669644957905723e+00 0.0000000000000000e+00  4.1170128735525848e+00 6.7917765211600454e+00 0.0000000000000000e+00  4.1518239879710608e+00 6.7768114009660625e+00 0.0000000000000000e+00  4.1049106988442103e+00 6.8392414377294291e+00 0.0000000000000000e+00  4.1638127192863470e+00 6.8202417048498774e+00 0.0000000000000000e+00  4.0579390418470389e+00 6.9584089741210287e+00 0.0000000000000000e+00  4.0467987300616750e+00 6.9818954456639792e+00 0.0000000000000000e+00  4.0025812776970957e+00 7.1208522296277268e+00 0.0000000000000000e+00  4.0533056863115879e+00 7.0029662748474486e+00 0.0000000000000000e+00  4.0607698347561945e+00 7.0371499457830069e+00 0.0000000000000000e+00  4.0075495633895972e+00 7.1588128814206637e+00 0.0000000000000000e+00  3.9600551960590820e+00 7.1688135349527311e+00 0.0000000000000000e+00  3.9317880346949678e+00 7.2985457828091667e+00 0.0000000000000000e+00  3.9524132647117991e+00 7.2169405697351943e+00 0.0000000000000000e+00  3.8882141039796081e+00 7.3985087826346341e+00 0.0000000000000000e+00  3.8917049828422150e+00 7.3081226149206993e+00 0.0000000000000000e+00  3.8783685476914669e+00 7.4427135398258422e+00 0.0000000000000000e+00  3.8903966453193584e+00 7.3605226244089081e+00 0.0000000000000000e+00  3.7913552763385123e+00 7.5338644905076473e+00 0.0000000000000000e+00  3.8333452521929048e+00 7.5227298059000445e+00 0.0000000000000000e+00  3.7501480235407856e+00 7.5796166149865529e+00 0.0000000000000000e+00  3.7606791538814091e+00 7.6316495264964290e+00 0.0000000000000000e+00  3.7490143319268405e+00 7.6521965814957342e+00 0.0000000000000000e+00  3.7979708184513599e+00 7.5458756555211890e+00 0.0000000000000000e+00  3.9948989281605827e+00 7.2492761412814026e+00 0.0000000000000000e+00  4.0177468499890203e+00 7.2526262388931482e+00 0.0000000000000000e+00  4.0119517920493610e+00 7.2165464830589547e+00 0.0000000000000000e+00  3.9223169810120249e+00 7.3820734272043422e+00 0.0000000000000000e+00  3.9382875792221981e+00 7.3434066473272015e+00 0.0000000000000000e+00  3.9527290728430184e+00 7.3425433844194368e+00 0.0000000000000000e+00  3.9459909818999557e+00 7.3137663868278677e+00 0.0000000000000000e+00  3.9340201147611644e+00 7.3924137794366320e+00 0.0000000000000000e+00  3.9558446398044844e+00 7.2980740773928092e+00 0.0000000000000000e+00  3.9448583019008292e+00 7.3638191830864628e+00 0.0000000000000000e+00  3.9371207227795511e+00 7.3485881630876788e+00 0.0000000000000000e+00  3.9358228502717987e+00 7.3584334188562162e+00 0.0000000000000000e+00  3.9595224565213951e+00 7.3070356402894383e+00 0.0000000000000000e+00  3.9720322341584606e+00 7.3412610402858647e+00 0.0000000000000000e+00  3.9042595420042026e+00 7.3581008748994670e+00 0.0000000000000000e+00  3.9788249106225431e+00 7.3181491619476082e+00 0.0000000000000000e+00  3.9510740035312764e+00 7.3312449836698601e+00 0.0000000000000000e+00  3.9389041259933135e+00 7.3584440679301872e+00 0.0000000000000000e+00  3.9281946332244626e+00 7.3457195980151777e+00 0.0000000000000000e+00  3.9802742684964083e+00 7.3276949404933029e+00 0.0000000000000000e+00  3.9496566155353183e+00 7.3334834804969384e+00 0.0000000000000000e+00  3.9475715100979341e+00 7.3161670434672930e+00 0.0000000000000000e+00  3.9486201143010371e+00 7.3044987549077609e+00 0.0000000000000000e+00  3.9622952787131074e+00 7.5267085556232969e+00 0.0000000000000000e+00  4.0426913589392655e+00 6.9817234642579278e+00 0.0000000000000000e+00  4.1312730511151772e+00 6.6888810161521874e+00 0.0000000000000000e+00  1.0079266997750169e+01 -4.7981340356601460e-01 0.0000000000000000e+00  8.9604290637818469e+00 5.6028308909413027e-01 0.0000000000000000e+00  9.6615200241206267e+00 -1.9426820778913598e-01 0.0000000000000000e+00  9.4198745478334196e+00 7.0138669028436199e-02 0.0000000000000000e+00  9.4899452660474513e+00 3.6823802630636371e-03 0.0000000000000000e+00  9.5353606983164862e+00 -3.4246484762162556e-02 0.0000000000000000e+00  9.4386236824713805e+00 4.2643518344080616e-02 0.0000000000000000e+00  9.5193283426409074e+00 -6.5859837571232576e-04 0.0000000000000000e+00  9.4927780839132847e+00 1.6319634166768519e-02 0.0000000000000000e+00  9.4991611478817539e+00 -1.5525040542210002e-03 0.0000000000000000e+00  9.4874851036106378e+00 1.6120733012608374e-02 0.0000000000000000e+00  9.5079171576590618e+00 9.5918196514579602e-03 0.0000000000000000e+00  9.4942161446713147e+00 -2.2134806504191589e-03 0.0000000000000000e+00  9.4967884227280734e+00 8.4968384652862033e-03 0.0000000000000000e+00  9.5057512524360614e+00 6.8976414625890039e-03 0.0000000000000000e+00  9.4979299310489562e+00 1.8730128341085377e-03 0.0000000000000000e+00  9.4970418754026973e+00 2.1771511013130535e-02 0.0000000000000000e+00  9.5094049278958241e+00 2.3992018482343948e-04 0.0000000000000000e+00  9.4987447019119795e+00 5.6982675422996799e-03 0.0000000000000000e+00  9.5001648869563553e+00 1.7146425757631353e-02 0.0000000000000000e+00  9.5065255536911142e+00 2.0037859944489953e-02 0.0000000000000000e+00  9.5031849076775803e+00 -4.8813487654126636e-03 0.0000000000000000e+00  9.4989671412365464e+00 1.6816661395491917e-02 0.0000000000000000e+00  9.5078632485891195e+00 2.4933628841944449e-03 0.0000000000000000e+00  9.5008744375759289e+00 3.0653991625184756e-03 0.0000000000000000e+00  9.5041732870774727e+00 1.1861084312045040e-02 0.0000000000000000e+00  9.5026489800486740e+00 4.2104943572060299e-03 0.0000000000000000e+00  9.5049134624144020e+00 -1.9828263502616161e-05 0.0000000000000000e+00  9.5018875164698304e+00 4.7445869209126468e-03 0.0000000000000000e+00  9.5052357749145155e+00 1.1530117895615226e-02 0.0000000000000000e+00  9.5016802988050149e+00 -3.6865046222496613e-03 0.0000000000000000e+00  9.5068151168801549e+00 2.3608286371812941e-02 0.0000000000000000e+00  9.5020188317045768e+00 6.8415285443025316e-04 0.0000000000000000e+00  9.5052454481289477e+00 2.4081896326439641e-02 0.0000000000000000e+00  9.5061713210167920e+00 1.0202047194971928e-02 0.0000000000000000e+00  9.5033434633370302e+00 1.1727881899751613e-02 0.0000000000000000e+00  9.5057509972776923e+00 5.2859286151390236e-03 0.0000000000000000e+00  9.5059458714843785e+00 -6.9815736749630998e-03 0.0000000000000000e+00  9.5043238706970321e+00 2.9177598419266967e-02 0.0000000000000000e+00  9.5030578779871728e+00 -6.5433311035984529e-02 0.0000000000000000e+00  9.5086832267960482e+00 1.6906616551767804e-02 0.0000000000000000e+00  9.4988010973587382e+00 -5.4789668690317275e-02 0.0000000000000000e+00  9.5062544194732226e+00 -1.8213392128127540e-01 0.0000000000000000e+00  9.5100738128190478e+00 0.0000000000000000e+00 -6.3822416610536004e-02  9.5016315655792152e+00 0.0000000000000000e+00 -3.3998082526592519e-02  9.5081590055542087e+00 0.0000000000000000e+00 -3.4046723876110338e-02  9.4966956295426268e+00 0.0000000000000000e+00 -9.9208879759950852e-02  9.5084338814609364e+00 0.0000000000000000e+00 2.9291724017382958e-02  9.5006922426396230e+00 0.0000000000000000e+00 6.3427513924719098e-02  9.5034515889980966e+00 0.0000000000000000e+00 -1.0569381587370971e-02  9.4966109571618134e+00 0.0000000000000000e+00 -1.2797830630704107e-01  9.5033920995681509e+00 0.0000000000000000e+00 -9.6885829110867849e-02  9.4953949112639684e+00 0.0000000000000000e+00 1.4164619993612140e-01  9.5004208243470138e+00 0.0000000000000000e+00 -2.7723611699135602e-02  9.4941708841299324e+00 0.0000000000000000e+00 -1.4523347770237135e-02  9.4985352556567726e+00 0.0000000000000000e+00 -5.4353116079533324e-02  9.4938498580784643e+00 0.0000000000000000e+00 -4.5322487228637645e-02  9.4973539101087319e+00 0.0000000000000000e+00 -9.4433526552008387e-02  9.4883299913857737e+00 0.0000000000000000e+00 -1.9254685349833045e-01  9.4958682867043649e+00 0.0000000000000000e+00 -1.0956853986200610e-01  9.4873071616178084e+00 0.0000000000000000e+00 -2.7591677442298101e-01  9.4956568352153088e+00 0.0000000000000000e+00 4.6853836373949742e-02  9.4886599608886222e+00 0.0000000000000000e+00 5.8337390218587165e-02  9.4953929886406456e+00 0.0000000000000000e+00 -8.5680069055361768e-02  9.4871105445095427e+00 0.0000000000000000e+00 -2.2821395000271127e-01  9.4976711444732675e+00 0.0000000000000000e+00 -3.3135344353395185e-02  9.4891206344879784e+00 0.0000000000000000e+00 1.9334468755013609e-01  9.4968085908352435e+00 0.0000000000000000e+00 -3.3764670215035019e-03  9.4907738936283437e+00 0.0000000000000000e+00 4.8118896092359982e-02  9.5003563066544281e+00 0.0000000000000000e+00 -1.6150697241652363e-02  9.4959750446685671e+00 0.0000000000000000e+00 -1.3427055965057863e-01  9.4990071451729730e+00 0.0000000000000000e+00 -1.0839095765698892e-01  9.4974498413500115e+00 0.0000000000000000e+00 7.3938612559421912e-02  9.5018530361328981e+00 0.0000000000000000e+00 -4.6752455718739303e-02  9.4982818956464001e+00 0.0000000000000000e+00 -1.6528170321833613e-01  9.5017203289219605e+00 0.0000000000000000e+00 -3.6614966814972068e-02  9.4977447537617241e+00 0.0000000000000000e+00 -1.3179102643104082e-01  9.5025219187569032e+00 0.0000000000000000e+00 -1.1689670041439466e-01  9.5004171784942741e+00 0.0000000000000000e+00 -1.3334461495193931e-01  9.5037793898841798e+00 0.0000000000000000e+00 -1.4952442178891248e-01  9.4977995235645789e+00 0.0000000000000000e+00 -2.1258141789176432e-01  9.5049681178847170e+00 0.0000000000000000e+00 5.9857656505021327e-03  9.5036780029487300e+00 -3.7145256566843321e-01 0.0000000000000000e+00  9.4925255343794994e+00 -4.7404165744213966e-01 0.0000000000000000e+00  9.4993127657012764e+00 -2.6488386437344386e-01 0.0000000000000000e+00  9.5070760877492244e+00 1.7132687350871166e-02 0.0000000000000000e+00  9.5140601745308722e+00 -1.1599620861695815e-01 0.0000000000000000e+00  9.4861949088098427e+00 -7.6325144371594056e-01 0.0000000000000000e+00  9.4963191977780816e+00 -3.1847063550540583e-01 0.0000000000000000e+00  9.5026771246917203e+00 -4.6999196261638893e-01 0.0000000000000000e+00  9.4907350770787442e+00 -5.5539359089063578e-01 0.0000000000000000e+00  9.5031449157725323e+00 -3.6780368441986072e-01 0.0000000000000000e+00  9.4937478821029799e+00 -2.2886546988252884e-01 0.0000000000000000e+00  9.5151830353741129e+00 -6.6454034109137194e-02 0.0000000000000000e+00  9.4966782087976966e+00 -5.6817150465286667e-02 0.0000000000000000e+00  9.5105816588451582e+00 1.5808912518728696e-01 0.0000000000000000e+00  9.4972489291296878e+00 8.0709566309219619e-02 0.0000000000000000e+00  9.5089545841471956e+00 1.6452588214497382e-01 0.0000000000000000e+00  9.5003552099818922e+00 8.0501174906560141e-02 0.0000000000000000e+00  9.5106136320685408e+00 1.2065203201115312e-02 0.0000000000000000e+00  9.4970988253812756e+00 -6.0330537407740713e-02 0.0000000000000000e+00  9.5111769901218697e+00 1.1309779735930897e-01 0.0000000000000000e+00  9.5062740411997755e+00 -8.3096921735880402e-02 0.0000000000000000e+00  9.5034276525184005e+00 -8.5566562389661580e-02 0.0000000000000000e+00  9.5050986422664838e+00 1.1701120493870169e-02 0.0000000000000000e+00  9.5099012068120370e+00 4.2049978108328501e-02 0.0000000000000000e+00  9.5095867685296493e+00 8.4922737393250292e-02 0.0000000000000000e+00  9.4955810916269403e+00 1.2605915445074878e-01 0.0000000000000000e+00  9.5124793355780639e+00 1.3180850224626078e-01 0.0000000000000000e+00  9.5053345076077651e+00 1.2704439094938932e-01 0.0000000000000000e+00  9.5007461589567015e+00 -3.3116593817404186e-02 0.0000000000000000e+00  9.4970268636223878e+00 3.8470430928477399e-02 0.0000000000000000e+00  9.5184902796746815e+00 -1.1222038276769070e-01 0.0000000000000000e+00  9.4932552046442371e+00 4.0843690899213324e-02 0.0000000000000000e+00  9.5146231941361918e+00 1.2734506537946741e-01 0.0000000000000000e+00  9.5083642334473399e+00 1.8800087059164722e-01 0.0000000000000000e+00  9.4815962131178200e+00 -5.4898541410421046e-02 0.0000000000000000e+00  9.5595673456273715e+00 1.2579612408717888e-01 0.0000000000000000e+00  9.5091530182580595e+00 -3.5042741770170180e-02 0.0000000000000000e+00  9.5076362747032661e+00 5.1535527999653684e-02 0.0000000000000000e+00  9.4744554309706093e+00 -7.5757869775475925e-02 0.0000000000000000e+00  9.3406424527379066e+00 1.1264761507825995e-01 0.0000000000000000e+00  9.8122666175790094e+00 -3.0923724679257425e-01 0.0000000000000000e+00  8.994907719164