<?xml version="1.0"?>
<VTKFile type="UnstructuredGrid"  version="0.1"  >
<UnstructuredGrid>
<Piece  NumberOfPoints="9509" NumberOfCells="18536">
<Points>
<DataArray  type="Float64"  NumberOfComponents="3"  format="ascii">-5 -1 0  5 -1 0  5 1 0  -5 1 0  -4.949999999999965 -1 0  -4.899999999999877 -1 0  -4.849999999999826 -1 0  -4.799999999999754 -1 0  -4.749999999999695 -1 0  -4.69999999999963 -1 0  -4.649999999999565 -1 0  -4.599999999999507 -1 0  -4.549999999999454 -1 0  -4.499999999999384 -1 0  -4.449999999999317 -1 0  -4.399999999999261 -1 0  -4.349999999999206 -1 0  -4.299999999999137 -1 0  -4.249999999999075 -1 0  -4.199999999999013 -1 0  -4.149999999998934 -1 0  -4.09999999999889 -1 0  -4.049999999998847 -1 0  -3.999999999998767 -1 0  -3.949999999998706 -1 0  -3.899999999998644 -1 0  -3.849999999998594 -1 0  -3.799999999998552 -1 0  -3.749999999998549 -1 0  -3.699999999998651 -1 0  -3.649999999998804 -1 0  -3.59999999999894 -1 0  -3.549999999999097 -1 0  -3.499999999999261 -1 0  -3.449999999999394 -1 0  -3.399999999999582 -1 0  -3.349999999999742 -1 0  -3.299999999999902 -1 0  -3.25000000000006 -1 0  -3.200000000000223 -1 0  -3.150000000000369 -1 0  -3.100000000000544 -1 0  -3.050000000000704 -1 0  -3.000000000000864 -1 0  -2.950000000001029 -1 0  -2.900000000001185 -1 0  -2.850000000001347 -1 0  -2.800000000001506 -1 0  -2.750000000001665 -1 0  -2.700000000001827 -1 0  -2.650000000001979 -1 0  -2.600000000002148 -1 0  -2.550000000002311 -1 0  -2.500000000002468 -1 0  -2.450000000002635 -1 0  -2.400000000002789 -1 0  -2.35000000000295 -1 0  -2.30000000000311 -1 0  -2.250000000003253 -1 0  -2.200000000003431 -1 0  -2.150000000003601 -1 0  -2.100000000003752 -1 0  -2.050000000003922 -1 0  -2.000000000004072 -1 0  -1.950000000004237 -1 0  -1.900000000004393 -1 0  -1.850000000004541 -1 0  -1.800000000004714 -1 0  -1.750000000004886 -1 0  -1.700000000005035 -1 0  -1.650000000005206 -1 0  -1.600000000005355 -1 0  -1.550000000005516 -1 0  -1.500000000005676 -1 0  -1.450000000005824 -1 0  -1.400000000005996 -1 0  -1.350000000006146 -1 0  -1.300000000006318 -1 0  -1.250000000006505 -1 0  -1.200000000006638 -1 0  -1.150000000006797 -1 0  -1.100000000006959 -1 0  -1.050000000007106 -1 0  -1.000000000007245 -1 0  -0.9500000000072193 -1 0  -0.9000000000072612 -1 0  -0.8500000000071966 -1 0  -0.8000000000071381 -1 0  -0.750000000007085 -1 0  -0.700000000007015 -1 0  -0.6500000000069521 -1 0  -0.6000000000068919 -1 0  -0.5500000000068104 -1 0  -0.5000000000067688 -1 0  -0.4500000000067104 -1 0  -0.4000000000066457 -1 0  -0.3500000000065757 -1 0  -0.3000000000065226 -1 0  -0.2500000000064961 -1 0  -0.2000000000063995 -1 0  -0.1500000000063775 -1 0  -0.1000000000062764 -1 0  -0.0500000000062597 -1 0  -6.153300091682468e-12 -1 0  0.04999999999390781 -1 0  0.09999999999396891 -1 0  0.14999999999403 -1 0  0.1999999999940929 -1 0  0.2499999999941318 -1 0  0.299999999994216 -1 0  0.349999999994254 -1 0  0.3999999999943391 -1 0  0.4499999999944038 -1 0  0.4999999999944613 -1 0  0.5499999999945429 -1 0  0.5999999999945853 -1 0  0.6499999999946606 -1 0  0.6999999999947084 -1 0  0.7499999999947651 -1 0  0.7999999999948315 -1 0  0.8499999999948926 -1 0  0.8999999999949537 -1 0  0.9499999999950148 -1 0  0.9999999999950768 -1 0  1.049999999995139 -1 0  1.0999999999952 -1 0  1.149999999995266 -1 0  1.199999999995324 -1 0  1.249999999995385 -1 0  1.299999999995446 -1 0  1.349999999995488 -1 0  1.399999999995569 -1 0  1.449999999995604 -1 0  1.499999999995692 -1 0  1.549999999995753 -1 0  1.599999999995816 -1 0  1.649999999995892 -1 0  1.699999999995939 -1 0  1.749999999996017 -1 0  1.799999999996063 -1 0  1.849999999996111 -1 0  1.899999999996185 -1 0  1.949999999996246 -1 0  1.999999999996308 -1 0  2.049999999996351 -1 0  2.099999999996431 -1 0  2.149999999996504 -1 0  2.199999999996555 -1 0  2.249999999996616 -1 0  2.299999999996677 -1 0  2.349999999996736 -1 0  2.3999999999968 -1 0  2.449999999996847 -1 0  2.499999999996923 -1 0  2.549999999997 -1 0  2.599999999997047 -1 0  2.649999999997093 -1 0  2.69999999999717 -1 0  2.749999999997245 -1 0  2.799999999997293 -1 0  2.849999999997344 -1 0  2.899999999997416 -1 0  2.949999999997469 -1 0  2.999999999997539 -1 0  3.049999999997576 -1 0  3.099999999997662 -1 0  3.149999999997725 -1 0  3.199999999997784 -1 0  3.249999999997829 -1 0  3.299999999997908 -1 0  3.349999999997921 -1 0  3.39999999999803 -1 0  3.4499999999981 -1 0  3.499999999998153 -1 0  3.549999999998214 -1 0  3.599999999998277 -1 0  3.649999999998409 -1 0  3.699999999998401 -1 0  3.749999999998444 -1 0  3.799999999998523 -1 0  3.849999999998602 -1 0  3.899999999998645 -1 0  3.949999999998658 -1 0  3.999999999998769 -1 0  4.049999999998814 -1 0  4.099999999998893 -1 0  4.149999999998883 -1 0  4.199999999999015 -1 0  4.249999999999064 -1 0  4.299999999999137 -1 0  4.349999999999152 -1 0  4.399999999999261 -1 0  4.44999999999933 -1 0  4.499999999999385 -1 0  4.549999999999446 -1 0  4.599999999999508 -1 0  4.649999999999633 -1 0  4.699999999999632 -1 0  4.749999999999723 -1 0  4.799999999999754 -1 0  4.849999999999801 -1 0  4.899999999999876 -1 0  4.949999999999925 -1 0  5 -0.950000000000111 0  5 -0.9000000000002774 0  5 -0.8500000000004283 0  5 -0.8000000000005548 0  5 -0.7500000000006787 0  5 -0.7000000000008322 0  5 -0.6500000000009709 0  5 -0.6000000000011096 0  5 -0.5500000000012484 0  5 -0.500000000001387 0  5 -0.4500000000015256 0  5 -0.4000000000016644 0  5 -0.3500000000018031 0  5 -0.3000000000019418 0  5 -0.2500000000020806 0  5 -0.2000000000022192 0  5 -0.1500000000023578 0  5 -0.1000000000024964 0  5 -0.05000000000262439 0  5 -2.752242878045763e-12 0  5 0.0499999999973757 0  5 0.09999999999750342 0  5 0.1499999999976422 0  5 0.1999999999977808 0  5 0.2499999999979194 0  5 0.2999999999980583 0  5 0.3499999999981969 0  5 0.3999999999983355 0  5 0.4499999999984743 0  5 0.4999999999986129 0  5 0.5499999999987515 0  5 0.5999999999988903 0  5 0.6499999999990291 0  5 0.699999999999168 0  5 0.7499999999993068 0  5 0.7999999999994454 0  5 0.849999999999584 0  5 0.8999999999997226 0  5 0.9499999999998612 0  4.949999999999965 1 0  4.899999999999877 1 0  4.849999999999826 1 0  4.799999999999754 1 0  4.749999999999695 1 0  4.69999999999963 1 0  4.649999999999565 1 0  4.599999999999507 1 0  4.549999999999454 1 0  4.499999999999384 1 0  4.449999999999317 1 0  4.399999999999261 1 0  4.349999999999206 1 0  4.299999999999137 1 0  4.249999999999075 1 0  4.199999999999013 1 0  4.149999999998934 1 0  4.09999999999889 1 0  4.049999999998847 1 0  3.999999999998767 1 0  3.949999999998706 1 0  3.899999999998644 1 0  3.849999999998594 1 0  3.799999999998552 1 0  3.749999999998549 1 0  3.699999999998651 1 0  3.649999999998804 1 0  3.59999999999894 1 0  3.549999999999097 1 0  3.499999999999261 1 0  3.449999999999394 1 0  3.399999999999582 1 0  3.349999999999742 1 0  3.299999999999902 1 0  3.25000000000006 1 0  3.200000000000223 1 0  3.150000000000369 1 0  3.100000000000544 1 0  3.050000000000704 1 0  3.000000000000864 1 0  2.950000000001029 1 0  2.900000000001185 1 0  2.850000000001347 1 0  2.800000000001506 1 0  2.750000000001665 1 0  2.700000000001827 1 0  2.650000000001979 1 0  2.600000000002148 1 0  2.550000000002311 1 0  2.500000000002468 1 0  2.450000000002635 1 0  2.400000000002789 1 0  2.35000000000295 1 0  2.30000000000311 1 0  2.250000000003253 1 0  2.200000000003431 1 0  2.150000000003601 1 0  2.100000000003752 1 0  2.050000000003922 1 0  2.000000000004072 1 0  1.950000000004237 1 0  1.900000000004393 1 0  1.850000000004541 1 0  1.800000000004714 1 0  1.750000000004886 1 0  1.700000000005035 1 0  1.650000000005206 1 0  1.600000000005355 1 0  1.550000000005516 1 0  1.500000000005676 1 0  1.450000000005824 1 0  1.400000000005996 1 0  1.350000000006146 1 0  1.300000000006318 1 0  1.250000000006505 1 0  1.200000000006638 1 0  1.150000000006797 1 0  1.100000000006959 1 0  1.050000000007106 1 0  1.000000000007245 1 0  0.9500000000072193 1 0  0.9000000000072612 1 0  0.8500000000071966 1 0  0.8000000000071381 1 0  0.750000000007085 1 0  0.700000000007015 1 0  0.6500000000069521 1 0  0.6000000000068919 1 0  0.5500000000068104 1 0  0.5000000000067688 1 0  0.4500000000067104 1 0  0.4000000000066457 1 0  0.3500000000065757 1 0  0.3000000000065226 1 0  0.2500000000064961 1 0  0.2000000000063995 1 0  0.1500000000063775 1 0  0.1000000000062764 1 0  0.0500000000062597 1 0  6.153300091682468e-12 1 0  -0.04999999999390781 1 0  -0.09999999999396891 1 0  -0.14999999999403 1 0  -0.1999999999940929 1 0  -0.2499999999941318 1 0  -0.299999999994216 1 0  -0.349999999994254 1 0  -0.3999999999943391 1 0  -0.4499999999944038 1 0  -0.4999999999944613 1 0  -0.5499999999945429 1 0  -0.5999999999945853 1 0  -0.6499999999946606 1 0  -0.6999999999947084 1 0  -0.7499999999947651 1 0  -0.7999999999948315 1 0  -0.8499999999948926 1 0  -0.8999999999949537 1 0  -0.9499999999950148 1 0  -0.9999999999950768 1 0  -1.049999999995139 1 0  -1.0999999999952 1 0  -1.149999999995266 1 0  -1.199999999995324 1 0  -1.249999999995385 1 0  -1.299999999995446 1 0  -1.349999999995488 1 0  -1.399999999995569 1 0  -1.449999999995604 1 0  -1.499999999995692 1 0  -1.549999999995753 1 0  -1.599999999995816 1 0  -1.649999999995892 1 0  -1.699999999995939 1 0  -1.749999999996017 1 0  -1.799999999996063 1 0  -1.849999999996111 1 0  -1.899999999996185 1 0  -1.949999999996246 1 0  -1.999999999996308 1 0  -2.049999999996351 1 0  -2.099999999996431 1 0  -2.149999999996504 1 0  -2.199999999996555 1 0  -2.249999999996616 1 0  -2.299999999996677 1 0  -2.349999999996736 1 0  -2.3999999999968 1 0  -2.449999999996847 1 0  -2.499999999996923 1 0  -2.549999999997 1 0  -2.599999999997047 1 0  -2.649999999997093 1 0  -2.69999999999717 1 0  -2.749999999997245 1 0  -2.799999999997293 1 0  -2.849999999997344 1 0  -2.899999999997416 1 0  -2.949999999997469 1 0  -2.999999999997539 1 0  -3.049999999997576 1 0  -3.099999999997662 1 0  -3.149999999997725 1 0  -3.199999999997784 1 0  -3.249999999997829 1 0  -3.29999
[...]
<PointData  Vectors="(h, u)"> 
<DataArray  type="Float64"  Name="(h, u)"  NumberOfComponents="3" format="ascii">8.4399373378203091e+00 0.0000000000000000e+00 0.0000000000000000e+00  9.5717215128004121e+00 0.0000000000000000e+00 0.0000000000000000e+00  9.7201742136813429e+00 0.0000000000000000e+00 0.0000000000000000e+00  8.4554985414926573e+00 0.0000000000000000e+00 0.0000000000000000e+00  8.4524433368663097e+00 8.9403521260172730e-02 0.0000000000000000e+00  8.4374146170154951e+00 1.7593138031330155e-01 0.0000000000000000e+00  8.4434337227201723e+00 2.6335197181845627e-01 0.0000000000000000e+00  8.4247809901972470e+00 3.5371487117146755e-01 0.0000000000000000e+00  8.4351983761784979e+00 4.3916725402837020e-01 0.0000000000000000e+00  8.4097027283610117e+00 5.2646055027529604e-01 0.0000000000000000e+00  8.4090762951453488e+00 6.1049138948078918e-01 0.0000000000000000e+00  8.3895216559565569e+00 7.0105138418892587e-01 0.0000000000000000e+00  8.3838030473072056e+00 7.7890786014484148e-01 0.0000000000000000e+00  8.3544375594077440e+00 8.6481064980711075e-01 0.0000000000000000e+00  8.3576896208250666e+00 9.5016869402303095e-01 0.0000000000000000e+00  8.3188250645341437e+00 1.0286013526778424e+00 0.0000000000000000e+00  8.3080357970598726e+00 1.1124137040787196e+00 0.0000000000000000e+00  8.2868479058677096e+00 1.1975590382718517e+00 0.0000000000000000e+00  8.2620677394363948e+00 1.2691486352775896e+00 0.0000000000000000e+00  8.2236208115070468e+00 1.3562465377359492e+00 0.0000000000000000e+00  8.2228059965542570e+00 1.4301231739204951e+00 0.0000000000000000e+00  8.1683690057638270e+00 1.5046023607553050e+00 0.0000000000000000e+00  8.1458471701349122e+00 1.5836407130204704e+00 0.0000000000000000e+00  8.1221036559392932e+00 1.6586960365810777e+00 0.0000000000000000e+00  8.0810541631954873e+00 1.7238832028938504e+00 0.0000000000000000e+00  8.0333428464582965e+00 1.8056867974560531e+00 0.0000000000000000e+00  8.0262470711651623e+00 1.8732610158038849e+00 0.0000000000000000e+00  7.9613983975746656e+00 1.9357742237274900e+00 0.0000000000000000e+00  7.9257325254988196e+00 2.0159802951869814e+00 0.0000000000000000e+00  7.8995141463626704e+00 2.0769772955697161e+00 0.0000000000000000e+00  7.8463276785293612e+00 2.1438840441115459e+00 0.0000000000000000e+00  7.7913586479385177e+00 2.2022168026161997e+00 0.0000000000000000e+00  7.7755111535791182e+00 2.2994682374829640e+00 0.0000000000000000e+00  7.7079226898409550e+00 2.3019980451237148e+00 0.0000000000000000e+00  7.6613841323842191e+00 2.4392354982040283e+00 0.0000000000000000e+00  7.6295319465469005e+00 2.4405989027459127e+00 0.0000000000000000e+00  7.5738839707759933e+00 2.5409153894525272e+00 0.0000000000000000e+00  7.5156525603851181e+00 2.5803216154792299e+00 0.0000000000000000e+00  7.4844471724144181e+00 2.6509061379854320e+00 0.0000000000000000e+00  7.4289146962417894e+00 2.7392091853491096e+00 0.0000000000000000e+00  7.3711242194933204e+00 2.7006642328982609e+00 0.0000000000000000e+00  7.3315349915071168e+00 2.9296564338077835e+00 0.0000000000000000e+00  7.2817795471306885e+00 2.8289482780838018e+00 0.0000000000000000e+00  7.2279528326040898e+00 2.9280832033028359e+00 0.0000000000000000e+00  7.1711177209870112e+00 3.1303023673631030e+00 0.0000000000000000e+00  7.1405078324879527e+00 2.9389354638947758e+00 0.0000000000000000e+00  7.0766525120403463e+00 3.1995203506090895e+00 0.0000000000000000e+00  7.0201232939560132e+00 3.2228215872020640e+00 0.0000000000000000e+00  6.9880354932301652e+00 3.1815248627796371e+00 0.0000000000000000e+00  6.9396052453964181e+00 3.3550238103610313e+00 0.0000000000000000e+00  6.8573321356155992e+00 3.3697058205476544e+00 0.0000000000000000e+00  6.8493352582944604e+00 3.4388642755887346e+00 0.0000000000000000e+00  6.7903203201974387e+00 3.4400703796672247e+00 0.0000000000000000e+00  6.7099080933057804e+00 3.6223208438438972e+00 0.0000000000000000e+00  6.6959690740417956e+00 3.5664822225802149e+00 0.0000000000000000e+00  6.6536294621745480e+00 3.6611942844656697e+00 0.0000000000000000e+00  6.5528185408179231e+00 3.7512928281424989e+00 0.0000000000000000e+00  6.5519749570752586e+00 3.7985451712149594e+00 0.0000000000000000e+00  6.5050326755606962e+00 3.8006590850324469e+00 0.0000000000000000e+00  6.4075224554117804e+00 3.9560650862279330e+00 0.0000000000000000e+00  6.3998545647582814e+00 3.9583095946872260e+00 0.0000000000000000e+00  6.3590308081625491e+00 4.0129431255950925e+00 0.0000000000000000e+00  6.2652368333278528e+00 4.0832303928668505e+00 0.0000000000000000e+00  6.2466836598573208e+00 4.2089166303147438e+00 0.0000000000000000e+00  6.2157187955369064e+00 4.1249644322284222e+00 0.0000000000000000e+00  6.1211254718107737e+00 4.3137651373065644e+00 0.0000000000000000e+00  6.1061052296397440e+00 4.3719883248185356e+00 0.0000000000000000e+00  6.0569297007527449e+00 4.2978256616733717e+00 0.0000000000000000e+00  6.0007467252946745e+00 4.5216414479194498e+00 0.0000000000000000e+00  5.9448769228402103e+00 4.5195814175848392e+00 0.0000000000000000e+00  5.9245503312691472e+00 4.5146316135385440e+00 0.0000000000000000e+00  5.8513916445606693e+00 4.6876834731958974e+00 0.0000000000000000e+00  5.8244317307056370e+00 4.6817289914460307e+00 0.0000000000000000e+00  5.7532114514031489e+00 4.7467325295679910e+00 0.0000000000000000e+00  5.7472721333322960e+00 4.8110058743767130e+00 0.0000000000000000e+00  5.6629025834095232e+00 4.9064416393730275e+00 0.0000000000000000e+00  5.6401035016746706e+00 4.8784713480749629e+00 0.0000000000000000e+00  5.5833511874289394e+00 5.0562030859891012e+00 0.0000000000000000e+00  5.5657686959272175e+00 4.9997498337508626e+00 0.0000000000000000e+00  5.4711382728340139e+00 5.1382883573201097e+00 0.0000000000000000e+00  5.4773731857329668e+00 5.1795801338822933e+00 0.0000000000000000e+00  5.4021320187992323e+00 5.2181981601714718e+00 0.0000000000000000e+00  5.3769666930513162e+00 5.2802773576985498e+00 0.0000000000000000e+00  5.2960906161804848e+00 5.4119118421848853e+00 0.0000000000000000e+00  5.3092325136284799e+00 5.3411719790806087e+00 0.0000000000000000e+00  5.2063265152836848e+00 5.5310530028815457e+00 0.0000000000000000e+00  5.1959637139972612e+00 5.5210077557524082e+00 0.0000000000000000e+00  5.1447563509005798e+00 5.5881554171398369e+00 0.0000000000000000e+00  5.1096783188088484e+00 5.6518189802476835e+00 0.0000000000000000e+00  5.0188811929988679e+00 5.7686154683189077e+00 0.0000000000000000e+00  5.0533430708548837e+00 5.7079854281827194e+00 0.0000000000000000e+00  4.9347103193363377e+00 5.9117133312720531e+00 0.0000000000000000e+00  4.9219487078939963e+00 5.8759263547976976e+00 0.0000000000000000e+00  4.8800331070935119e+00 5.9832013618508588e+00 0.0000000000000000e+00  4.8585991793711143e+00 5.9945738753784763e+00 0.0000000000000000e+00  4.7423678528803679e+00 6.1442280390627282e+00 0.0000000000000000e+00  4.7920716049853267e+00 6.1056060992007044e+00 0.0000000000000000e+00  4.6910082749767872e+00 6.2361322319800188e+00 0.0000000000000000e+00  4.6661689730177391e+00 6.2432113006406116e+00 0.0000000000000000e+00  4.6429526561962584e+00 6.3517774510320830e+00 0.0000000000000000e+00  4.6040034558123573e+00 6.3189005978283435e+00 0.0000000000000000e+00  4.4816541465384310e+00 6.5675209035442723e+00 0.0000000000000000e+00  4.5770539323693331e+00 6.4008275844844285e+00 0.0000000000000000e+00  4.4798479401471711e+00 6.5399978273241697e+00 0.0000000000000000e+00  4.4071707753402558e+00 6.6527151696311755e+00 0.0000000000000000e+00  4.3270147367780227e+00 6.7760620275076384e+00 0.0000000000000000e+00  4.3640635929000107e+00 6.7099829256037848e+00 0.0000000000000000e+00  4.3028339751491984e+00 6.8295877251090573e+00 0.0000000000000000e+00  4.2692267471850061e+00 6.8445952784725659e+00 0.0000000000000000e+00  4.1934881071692915e+00 6.9923702266980987e+00 0.0000000000000000e+00  4.1831587103261043e+00 6.9754916208847755e+00 0.0000000000000000e+00  4.0918829125125598e+00 7.1354622168313702e+00 0.0000000000000000e+00  4.0856873690553259e+00 7.1445260595769735e+00 0.0000000000000000e+00  4.0274259193913586e+00 7.2096698617368391e+00 0.0000000000000000e+00  4.0540276244996605e+00 7.2174011242079876e+00 0.0000000000000000e+00  3.9338329043412674e+00 7.3652869075819751e+00 0.0000000000000000e+00  3.9527666384772462e+00 7.3529206135299479e+00 0.0000000000000000e+00  3.8976044001413324e+00 7.4565206015396495e+00 0.0000000000000000e+00  4.0006305636764896e+00 7.3367149932150086e+00 0.0000000000000000e+00  3.7641796468602684e+00 7.6396572948081136e+00 0.0000000000000000e+00  3.8994894801993176e+00 7.4775082076337034e+00 0.0000000000000000e+00  3.7940084183559124e+00 7.6273666209414195e+00 0.0000000000000000e+00  3.5466266824016413e+00 7.9728450690106127e+00 0.0000000000000000e+00  3.8882777959444503e+00 7.4790567042400120e+00 0.0000000000000000e+00  3.8349446554244615e+00 7.5524903297391184e+00 0.0000000000000000e+00  3.9172434234409210e+00 7.4192108333987887e+00 0.0000000000000000e+00  3.9254757920394381e+00 7.4065380926763886e+00 0.0000000000000000e+00  4.0436703367836389e+00 7.2586339849596468e+00 0.0000000000000000e+00  3.7896736384038112e+00 7.5940113944885246e+00 0.0000000000000000e+00  4.0943207332567404e+00 7.1929110259477822e+00 0.0000000000000000e+00  4.1426034367195737e+00 7.1262855519937975e+00 0.0000000000000000e+00  4.0147097698115521e+00 7.2800274277251491e+00 0.0000000000000000e+00  4.0131027163662800e+00 7.3007607011002156e+00 0.0000000000000000e+00  3.9810010360733470e+00 7.3158960304749190e+00 0.0000000000000000e+00  4.0610111422781685e+00 7.2378535192008542e+00 0.0000000000000000e+00  4.0182010107241259e+00 7.2786215955259053e+00 0.0000000000000000e+00  3.9501521155649018e+00 7.3802961425370226e+00 0.0000000000000000e+00  3.9717741714437311e+00 7.3279140100527780e+00 0.0000000000000000e+00  3.9654999828557824e+00 7.3587189489161711e+00 0.0000000000000000e+00  3.9653980486359020e+00 7.3397671439239796e+00 0.0000000000000000e+00  3.9440660758883510e+00 7.3744526147178222e+00 0.0000000000000000e+00  3.9652313513032089e+00 7.3457964441903734e+00 0.0000000000000000e+00  3.9763381046343413e+00 7.3378624426663075e+00 0.0000000000000000e+00  3.9466107919366142e+00 7.3652918820251250e+00 0.0000000000000000e+00  3.9606711623420900e+00 7.3592477816370572e+00 0.0000000000000000e+00  3.9679347057827559e+00 7.3433862267281667e+00 0.0000000000000000e+00  3.9647739543845080e+00 7.3435605775789270e+00 0.0000000000000000e+00  3.9624115719298016e+00 7.3684563159112813e+00 0.0000000000000000e+00  3.9466390962874769e+00 7.3622975964833657e+00 0.0000000000000000e+00  3.9943518443335826e+00 7.3300706606714963e+00 0.0000000000000000e+00  3.9751096982516647e+00 7.3379072263919740e+00 0.0000000000000000e+00  3.9607818597038187e+00 7.3655665642576746e+00 0.0000000000000000e+00  3.9637817090246812e+00 7.3422881766316523e+00 0.0000000000000000e+00  3.9974478094661947e+00 7.3492825866558116e+00 0.0000000000000000e+00  3.9587060216799221e+00 7.3327054018695454e+00 0.0000000000000000e+00  3.9853267681941094e+00 7.3601991504152640e+00 0.0000000000000000e+00  3.9880520237507087e+00 7.3271524934180992e+00 0.0000000000000000e+00  3.9872215319094160e+00 7.3369472577565933e+00 0.0000000000000000e+00  3.9723849992392215e+00 7.3401329429638205e+00 0.0000000000000000e+00  3.9979797741427219e+00 7.3597612878857177e+00 0.0000000000000000e+00  3.9640927720617469e+00 7.3158151781339784e+00 0.0000000000000000e+00  3.9827892999643955e+00 7.3713536519824077e+00 0.0000000000000000e+00  3.9793121034901855e+00 7.3526460186231173e+00 0.0000000000000000e+00  3.9785123232878807e+00 7.3216099290528120e+00 0.0000000000000000e+00  3.9780799481126006e+00 7.3540332394999020e+00 0.0000000000000000e+00  3.9865535659832685e+00 7.3589428246765083e+00 0.0000000000000000e+00  3.9564856037347926e+00 7.3453456736830587e+00 0.0000000000000000e+00  3.9744689320780129e+00 7.3363675541777260e+00 0.0000000000000000e+00  3.9978849004649044e+00 7.3921099762443712e+00 0.0000000000000000e+00  3.9605689962722037e+00 7.2833829743275986e+00 0.0000000000000000e+00  3.9721650742918997e+00 7.3938492919870145e+00 0.0000000000000000e+00  3.9870459276197416e+00 7.3420815742395185e+00 0.0000000000000000e+00  3.9677510684640240e+00 7.3519567595911104e+00 0.0000000000000000e+00  3.9544083752181636e+00 7.3139106828252576e+00 0.0000000000000000e+00  4.0273376985047928e+00 7.4001813246018884e+00 0.0000000000000000e+00  3.9210920416441453e+00 7.2925115096724964e+00 0.0000000000000000e+00  4.0000687234119559e+00 7.3766935120448176e+00 0.0000000000000000e+00  3.9448890345486745e+00 7.3596965544233459e+00 0.0000000000000000e+00  3.9939168072873894e+00 7.3401876396217904e+00 0.0000000000000000e+00  3.9420333259504883e+00 7.3303550554315375e+00 0.0000000000000000e+00  4.0058533431593055e+00 7.3537743855916258e+00 0.0000000000000000e+00  3.9466524336901028e+00 7.3420942569517287e+00 0.0000000000000000e+00  3.9867186071425929e+00 7.3294835080382592e+00 0.0000000000000000e+00  3.9477954391165948e+00 7.3763662983635570e+00 0.0000000000000000e+00  3.9676305177920113e+00 7.2925054640446065e+00 0.0000000000000000e+00  3.9916625733189943e+00 7.4263182826365028e+00 0.0000000000000000e+00  3.9151089118770499e+00 7.2877453158880661e+00 0.0000000000000000e+00  4.0003363947148021e+00 7.3307652811119750e+00 0.0000000000000000e+00  3.9740079986940606e+00 7.4155614274332082e+00 0.0000000000000000e+00  3.9606918404622009e+00 7.2784856363768284e+00 0.0000000000000000e+00  3.9337502495137318e+00 7.3258544057272514e+00 0.0000000000000000e+00  4.0306363981931543e+00 7.4086840744419717e+00 0.0000000000000000e+00  3.9279662803601219e+00 7.3128687055219395e+00 0.0000000000000000e+00  3.9401282205570176e+00 7.2576496818723468e+00 0.0000000000000000e+00  4.0288919752804278e+00 7.5254930364387658e+00 0.0000000000000000e+00  4.0303962511695079e+00 6.8721360780921463e+00 0.0000000000000000e+00  3.3872160672304279e+00 8.3990147029078344e+00 0.0000000000000000e+00  9.2968808750649519e+00 3.5478645175586765e-01 0.0000000000000000e+00  9.0026315862578699e+00 4.2649153378817273e-01 0.0000000000000000e+00  9.6809961875739550e+00 -3.3930608553225772e-01 0.0000000000000000e+00  9.3020733908142095e+00 2.8929942410203019e-01 0.0000000000000000e+00  9.7210051600738545e+00 -1.6088039395064480e-01 0.0000000000000000e+00  9.3673260346349174e+00 -8.8106758382387657e-02 0.0000000000000000e+00  9.3189629971179500e+00 0.0000000000000000e+00 -7.9390083205746073e-02  9.6061105692331274e+00 0.0000000000000000e+00 8.3375300167711719e-02  9.6310032384970992e+00 0.0000000000000000e+00 -3.1087946334341830e-02  9.5107209232142687e+00 0.0000000000000000e+00 -1.0886240640501985e-01  9.3695845297936771e+00 0.0000000000000000e+00 -2.8315578881962469e-02  9.5148755058815002e+00 0.0000000000000000e+00 1.5875085879571346e-01  9.6739468694554809e+00 0.0000000000000000e+00 3.5069645124741172e-02  9.5003165643932199e+00 0.0000000000000000e+00 -1.5857753094407237e-01  9.4605619453413272e+00 0.0000000000000000e+00 -1.4087620090867212e-01  9.4778851664143193e+00 0.0000000000000000e+00 1.6340629439908741e-01  9.6654189210646280e+00 0.0000000000000000e+00 -3.8021826470191158e-02  9.6589504224621550e+00 0.0000000000000000e+00 9.3963700265959252e-02  9.6566222950956888e+00 0.0000000000000000e+00 -4.6436360402639489e-03  9.4474489524248977e+00 0.0000000000000000e+00 -3.9325088133955681e-02  9.5892840771883670e+00 0.0000000000000000e+00 -1.2630894725894312e-01  9.6838672915986486e+00 0.0000000000000000e+00 -2.1474291893534225e-01  9.6405203571396392e+00 0.0000000000000000e+00 -9.0052248822107148e-02  9.4560348450571308e+00 0.0000000000000000e+00 -2.9138698593757378e-01  9.4065495874790752e+00 0.0000000000000000e+00 4.1252611768788507e-02  9.4208673543441463e+00 0.0000000000000000e+00 8.4567591417349805e-02  9.6771622701210376e+00 0.0000000000000000e+00 -1.7938491992002727e-02  9.4169598714630034e+00 0.0000000000000000e+00 -2.6969337497111101e-01  9.2915027296916755e+00 0.0000000000000000e+00 9.5512568736540703e-03  9.5392832990888845e+00 0.0000000000000000e+00 2.3753965728061427e-01  9.5146032073434039e+00 0.0000000000000000e+00 4.6354074807266617e-02  9.5750931715127177e+00 0.0000000000000000e+00 1.2353892295623455e-01  9.4696314126020109e+00 0.0000000000000000e+00 5.7440157524852903e-02  9.5054007629448698e+00 0.0000000000000000e+00 -1.5672509573179491e-01  9.4924252413345069e+00 0.0000000000000000e+00 -1.1257539113551115e-01  9.5172329005779073e+00 0.0000000000000000e+00 7.8989007889374213e-02  9.4764720259494606e+00 0.0000000000000000e+00 5.2224743015657521e-02  9.4726853575261369e+00 0.0000000000000000e+00 -1.9144308089133191e-01  9.4950610635964718e+00 0.0000000000000000e+00 -3.8418453050187922e-02  9.4356957029135646e+00 0.0000000000000000e+00 -1.7556375926991838e-01  9.4681341026165207e+00 0.0000000000000000e+00 -2.1803236896807432e-01  9.7361948013788844e+00 0.0000000000000000e+00 -2.0668021524405403e-01  9.5987407825098128e+00 0.0000000000000000e+00 6.2279363786504602e-02  9.6398946057670738e+00 0.0000000000000000e+00 -2.5078789232341020e-01  9.4352762207713905e+00 0.0000000000000000e+00 8.8955567401569194e-02  9.2971943592015016e+00 -1.5738271820954314e-01 0.0000000000000000e+00  9.8119991538996096e+00 -4.5530481536496437e-01 0.0000000000000000e+00  9.2395085714919940e+00 -7.0737287556395897e-02 0.0000000000000000e+00  9.8239796689006589e+00 -5.7902737969673124e-01 0.0000000000000000e+00  8.7516380179110111e+00 -5.9355986789788047e-02 0.0000000000000000e+00  9.2874984624963055e+00 -2.9720115948464981e-01 0.0000000000000000e+00  3.4842457446754489e+00 8.1768873443568282e+00 0.0000000000000000e+00  3.9402369522892733e+00 6.6844131216598432e+00 0.0000000000000000e+00  3.9427759161461409e+00 7.2378248611919425e+00 0.0000000000000000e+00  3.9815876438887630e+00 6.9722972674345902e+00 0.0000000000000000e+00  3.8302584738315657e+00 7.2698935598278682e+00 0.0000000000000000e+00  3.9082494659430180e+00 7.1689528501222659e+00 0.0000000000000000e+00  3.9094598012767028e+00 7.1474606525783688e+00 0.0000000000000000e+00  3.9503152809152757e+00 7.1246345625351379e+00 0.0000000000000000e+00  3.9476404922138641e+00 7.1766075018113114e+00 0.0000000000000000e+00  3.8973935226066372e+00 7.1547775313828597e+00 0.0000000000000000e+00  3.9127611798206003e+00 7.3524822012784767e+00 0.0000000000000000e+00  3.8892614865950366e+00 7.2229516256124686e+00 0.0000000000000000e+00  3.9012836292134385e+00 7.3691076252416927e+00 0.0000000000000000e+00  3.9590737268840375e+00 7.2515533715991056e+00 0.0000000000000000e+00  3.8842679329624250e+00 7.4170737133641991e+00 0.0000000000000000e+00  3.8858561331490837e+00 7.2633469716247756e+00 0.0000000000000000e+00  3.9809884161650184e+00 7.4079958374372179e+00 0.0000000000000000e+00  3.8933531323656618e+00 7.3498872318415280e+00 0.0000000000000000e+00  3.9757008325591463e+00 7.3021508235984127e+00 0.0000000000000000e+00  3.9143260997378406e+00 7.3276130043850998e+00 0.0000000000000000e+00  3.9429235326957444e+00 7.3937384218368045e+00 0.0000000000000000e+00  3.9497591924211348e+00 7.2879937303624800e+00 0.0000000000000000e+00  3.9276682028341079e+00 7.3273575116793506e+00 0.0000000000000000e+00  3.9197777434061623e+00 7.3482777586046613e+00 0.0000000000000000e+00  3.9563076653098266e+00 7.3092909155883783e+00 0.0000000000000000e+00  3.9077086791614821e+00 7.3213090847991298e+00 0.0000000000000000e+00  3.9642448524963334e+00 7.3596234221817154e+00 0.0000000000000000e+00  3.9347465956016294e+00 7.2736752124486861e+00 0.0000000000000000e+00  3.9433658650485834e+00 7.3601747126187620e+00 0.0000000000000000e+00  3.9305773810902322e+00 7.2859878084188265e+00 0.0000000000000000e+00  3.9772176122497784e+00 7.2824214455019645e+00 0.0000000000000000e+00  3.9270202791789242e+00 7.3173809688500331e+00 0.0000000000000000e+00  3.9676039196809088e+00 7.3305149752581746e+00 0.0000000000000000e+00  3.9425954060469892e+00 7.2737352971165619e+00 0.0000000000000000e+00  3.9839996979583563e+00 7.3076450430219948e+00 0.0000000000000000e+00  3.9385211307755355e+00 7.3208560054738285e+00 