<?xml version="1.0"?>
<VTKFile type="UnstructuredGrid"  version="0.1"  >
<UnstructuredGrid>
<Piece  NumberOfPoints="9509" NumberOfCells="18536">
<Points>
<DataArray  type="Float64"  NumberOfComponents="3"  format="ascii">-5 -1 0  5 -1 0  5 1 0  -5 1 0  -4.949999999999965 -1 0  -4.899999999999877 -1 0  -4.849999999999826 -1 0  -4.799999999999754 -1 0  -4.749999999999695 -1 0  -4.69999999999963 -1 0  -4.649999999999565 -1 0  -4.599999999999507 -1 0  -4.549999999999454 -1 0  -4.499999999999384 -1 0  -4.449999999999317 -1 0  -4.399999999999261 -1 0  -4.349999999999206 -1 0  -4.299999999999137 -1 0  -4.249999999999075 -1 0  -4.199999999999013 -1 0  -4.149999999998934 -1 0  -4.09999999999889 -1 0  -4.049999999998847 -1 0  -3.999999999998767 -1 0  -3.949999999998706 -1 0  -3.899999999998644 -1 0  -3.849999999998594 -1 0  -3.799999999998552 -1 0  -3.749999999998549 -1 0  -3.699999999998651 -1 0  -3.649999999998804 -1 0  -3.59999999999894 -1 0  -3.549999999999097 -1 0  -3.499999999999261 -1 0  -3.449999999999394 -1 0  -3.399999999999582 -1 0  -3.349999999999742 -1 0  -3.299999999999902 -1 0  -3.25000000000006 -1 0  -3.200000000000223 -1 0  -3.150000000000369 -1 0  -3.100000000000544 -1 0  -3.050000000000704 -1 0  -3.000000000000864 -1 0  -2.950000000001029 -1 0  -2.900000000001185 -1 0  -2.850000000001347 -1 0  -2.800000000001506 -1 0  -2.750000000001665 -1 0  -2.700000000001827 -1 0  -2.650000000001979 -1 0  -2.600000000002148 -1 0  -2.550000000002311 -1 0  -2.500000000002468 -1 0  -2.450000000002635 -1 0  -2.400000000002789 -1 0  -2.35000000000295 -1 0  -2.30000000000311 -1 0  -2.250000000003253 -1 0  -2.200000000003431 -1 0  -2.150000000003601 -1 0  -2.100000000003752 -1 0  -2.050000000003922 -1 0  -2.000000000004072 -1 0  -1.950000000004237 -1 0  -1.900000000004393 -1 0  -1.850000000004541 -1 0  -1.800000000004714 -1 0  -1.750000000004886 -1 0  -1.700000000005035 -1 0  -1.650000000005206 -1 0  -1.600000000005355 -1 0  -1.550000000005516 -1 0  -1.500000000005676 -1 0  -1.450000000005824 -1 0  -1.400000000005996 -1 0  -1.350000000006146 -1 0  -1.300000000006318 -1 0  -1.250000000006505 -1 0  -1.200000000006638 -1 0  -1.150000000006797 -1 0  -1.100000000006959 -1 0  -1.050000000007106 -1 0  -1.000000000007245 -1 0  -0.9500000000072193 -1 0  -0.9000000000072612 -1 0  -0.8500000000071966 -1 0  -0.8000000000071381 -1 0  -0.750000000007085 -1 0  -0.700000000007015 -1 0  -0.6500000000069521 -1 0  -0.6000000000068919 -1 0  -0.5500000000068104 -1 0  -0.5000000000067688 -1 0  -0.4500000000067104 -1 0  -0.4000000000066457 -1 0  -0.3500000000065757 -1 0  -0.3000000000065226 -1 0  -0.2500000000064961 -1 0  -0.2000000000063995 -1 0  -0.1500000000063775 -1 0  -0.1000000000062764 -1 0  -0.0500000000062597 -1 0  -6.153300091682468e-12 -1 0  0.04999999999390781 -1 0  0.09999999999396891 -1 0  0.14999999999403 -1 0  0.1999999999940929 -1 0  0.2499999999941318 -1 0  0.299999999994216 -1 0  0.349999999994254 -1 0  0.3999999999943391 -1 0  0.4499999999944038 -1 0  0.4999999999944613 -1 0  0.5499999999945429 -1 0  0.5999999999945853 -1 0  0.6499999999946606 -1 0  0.6999999999947084 -1 0  0.7499999999947651 -1 0  0.7999999999948315 -1 0  0.8499999999948926 -1 0  0.8999999999949537 -1 0  0.9499999999950148 -1 0  0.9999999999950768 -1 0  1.049999999995139 -1 0  1.0999999999952 -1 0  1.149999999995266 -1 0  1.199999999995324 -1 0  1.249999999995385 -1 0  1.299999999995446 -1 0  1.349999999995488 -1 0  1.399999999995569 -1 0  1.449999999995604 -1 0  1.499999999995692 -1 0  1.549999999995753 -1 0  1.599999999995816 -1 0  1.649999999995892 -1 0  1.699999999995939 -1 0  1.749999999996017 -1 0  1.799999999996063 -1 0  1.849999999996111 -1 0  1.899999999996185 -1 0  1.949999999996246 -1 0  1.999999999996308 -1 0  2.049999999996351 -1 0  2.099999999996431 -1 0  2.149999999996504 -1 0  2.199999999996555 -1 0  2.249999999996616 -1 0  2.299999999996677 -1 0  2.349999999996736 -1 0  2.3999999999968 -1 0  2.449999999996847 -1 0  2.499999999996923 -1 0  2.549999999997 -1 0  2.599999999997047 -1 0  2.649999999997093 -1 0  2.69999999999717 -1 0  2.749999999997245 -1 0  2.799999999997293 -1 0  2.849999999997344 -1 0  2.899999999997416 -1 0  2.949999999997469 -1 0  2.999999999997539 -1 0  3.049999999997576 -1 0  3.099999999997662 -1 0  3.149999999997725 -1 0  3.199999999997784 -1 0  3.249999999997829 -1 0  3.299999999997908 -1 0  3.349999999997921 -1 0  3.39999999999803 -1 0  3.4499999999981 -1 0  3.499999999998153 -1 0  3.549999999998214 -1 0  3.599999999998277 -1 0  3.649999999998409 -1 0  3.699999999998401 -1 0  3.749999999998444 -1 0  3.799999999998523 -1 0  3.849999999998602 -1 0  3.899999999998645 -1 0  3.949999999998658 -1 0  3.999999999998769 -1 0  4.049999999998814 -1 0  4.099999999998893 -1 0  4.149999999998883 -1 0  4.199999999999015 -1 0  4.249999999999064 -1 0  4.299999999999137 -1 0  4.349999999999152 -1 0  4.399999999999261 -1 0  4.44999999999933 -1 0  4.499999999999385 -1 0  4.549999999999446 -1 0  4.599999999999508 -1 0  4.649999999999633 -1 0  4.699999999999632 -1 0  4.749999999999723 -1 0  4.799999999999754 -1 0  4.849999999999801 -1 0  4.899999999999876 -1 0  4.949999999999925 -1 0  5 -0.950000000000111 0  5 -0.9000000000002774 0  5 -0.8500000000004283 0  5 -0.8000000000005548 0  5 -0.7500000000006787 0  5 -0.7000000000008322 0  5 -0.6500000000009709 0  5 -0.6000000000011096 0  5 -0.5500000000012484 0  5 -0.500000000001387 0  5 -0.4500000000015256 0  5 -0.4000000000016644 0  5 -0.3500000000018031 0  5 -0.3000000000019418 0  5 -0.2500000000020806 0  5 -0.2000000000022192 0  5 -0.1500000000023578 0  5 -0.1000000000024964 0  5 -0.05000000000262439 0  5 -2.752242878045763e-12 0  5 0.0499999999973757 0  5 0.09999999999750342 0  5 0.1499999999976422 0  5 0.1999999999977808 0  5 0.2499999999979194 0  5 0.2999999999980583 0  5 0.3499999999981969 0  5 0.3999999999983355 0  5 0.4499999999984743 0  5 0.4999999999986129 0  5 0.5499999999987515 0  5 0.5999999999988903 0  5 0.6499999999990291 0  5 0.699999999999168 0  5 0.7499999999993068 0  5 0.7999999999994454 0  5 0.849999999999584 0  5 0.8999999999997226 0  5 0.9499999999998612 0  4.949999999999965 1 0  4.899999999999877 1 0  4.849999999999826 1 0  4.799999999999754 1 0  4.749999999999695 1 0  4.69999999999963 1 0  4.649999999999565 1 0  4.599999999999507 1 0  4.549999999999454 1 0  4.499999999999384 1 0  4.449999999999317 1 0  4.399999999999261 1 0  4.349999999999206 1 0  4.299999999999137 1 0  4.249999999999075 1 0  4.199999999999013 1 0  4.149999999998934 1 0  4.09999999999889 1 0  4.049999999998847 1 0  3.999999999998767 1 0  3.949999999998706 1 0  3.899999999998644 1 0  3.849999999998594 1 0  3.799999999998552 1 0  3.749999999998549 1 0  3.699999999998651 1 0  3.649999999998804 1 0  3.59999999999894 1 0  3.549999999999097 1 0  3.499999999999261 1 0  3.449999999999394 1 0  3.399999999999582 1 0  3.349999999999742 1 0  3.299999999999902 1 0  3.25000000000006 1 0  3.200000000000223 1 0  3.150000000000369 1 0  3.100000000000544 1 0  3.050000000000704 1 0  3.000000000000864 1 0  2.950000000001029 1 0  2.900000000001185 1 0  2.850000000001347 1 0  2.800000000001506 1 0  2.750000000001665 1 0  2.700000000001827 1 0  2.650000000001979 1 0  2.600000000002148 1 0  2.550000000002311 1 0  2.500000000002468 1 0  2.450000000002635 1 0  2.400000000002789 1 0  2.35000000000295 1 0  2.30000000000311 1 0  2.250000000003253 1 0  2.200000000003431 1 0  2.150000000003601 1 0  2.100000000003752 1 0  2.050000000003922 1 0  2.000000000004072 1 0  1.950000000004237 1 0  1.900000000004393 1 0  1.850000000004541 1 0  1.800000000004714 1 0  1.750000000004886 1 0  1.700000000005035 1 0  1.650000000005206 1 0  1.600000000005355 1 0  1.550000000005516 1 0  1.500000000005676 1 0  1.450000000005824 1 0  1.400000000005996 1 0  1.350000000006146 1 0  1.300000000006318 1 0  1.250000000006505 1 0  1.200000000006638 1 0  1.150000000006797 1 0  1.100000000006959 1 0  1.050000000007106 1 0  1.000000000007245 1 0  0.9500000000072193 1 0  0.9000000000072612 1 0  0.8500000000071966 1 0  0.8000000000071381 1 0  0.750000000007085 1 0  0.700000000007015 1 0  0.6500000000069521 1 0  0.6000000000068919 1 0  0.5500000000068104 1 0  0.5000000000067688 1 0  0.4500000000067104 1 0  0.4000000000066457 1 0  0.3500000000065757 1 0  0.3000000000065226 1 0  0.2500000000064961 1 0  0.2000000000063995 1 0  0.1500000000063775 1 0  0.1000000000062764 1 0  0.0500000000062597 1 0  6.153300091682468e-12 1 0  -0.04999999999390781 1 0  -0.09999999999396891 1 0  -0.14999999999403 1 0  -0.1999999999940929 1 0  -0.2499999999941318 1 0  -0.299999999994216 1 0  -0.349999999994254 1 0  -0.3999999999943391 1 0  -0.4499999999944038 1 0  -0.4999999999944613 1 0  -0.5499999999945429 1 0  -0.5999999999945853 1 0  -0.6499999999946606 1 0  -0.6999999999947084 1 0  -0.7499999999947651 1 0  -0.7999999999948315 1 0  -0.8499999999948926 1 0  -0.8999999999949537 1 0  -0.9499999999950148 1 0  -0.9999999999950768 1 0  -1.049999999995139 1 0  -1.0999999999952 1 0  -1.149999999995266 1 0  -1.199999999995324 1 0  -1.249999999995385 1 0  -1.299999999995446 1 0  -1.349999999995488 1 0  -1.399999999995569 1 0  -1.449999999995604 1 0  -1.499999999995692 1 0  -1.549999999995753 1 0  -1.599999999995816 1 0  -1.649999999995892 1 0  -1.699999999995939 1 0  -1.749999999996017 1 0  -1.799999999996063 1 0  -1.849999999996111 1 0  -1.899999999996185 1 0  -1.949999999996246 1 0  -1.999999999996308 1 0  -2.049999999996351 1 0  -2.099999999996431 1 0  -2.149999999996504 1 0  -2.199999999996555 1 0  -2.249999999996616 1 0  -2.299999999996677 1 0  -2.349999999996736 1 0  -2.3999999999968 1 0  -2.449999999996847 1 0  -2.499999999996923 1 0  -2.549999999997 1 0  -2.599999999997047 1 0  -2.649999999997093 1 0  -2.69999999999717 1 0  -2.749999999997245 1 0  -2.799999999997293 1 0  -2.849999999997344 1 0  -2.899999999997416 1 0  -2.949999999997469 1 0  -2.999999999997539 1 0  -3.049999999997576 1 0  -3.099999999997662 1 0  -3.149999999997725 1 0  -3.199999999997784 1 0  -3.249999999997829 1 0  -3.29999
[...]
<PointData  Vectors="(h, u)"> 
<DataArray  type="Float64"  Name="(h, u)"  NumberOfComponents="3" format="ascii">9.9903717476155975e+00 0.0000000000000000e+00 0.0000000000000000e+00  9.9999999999999112e-01 0.0000000000000000e+00 0.0000000000000000e+00  9.9999999999999878e-01 0.0000000000000000e+00 0.0000000000000000e+00  9.9795290697558912e+00 0.0000000000000000e+00 0.0000000000000000e+00  1.0011594077244958e+01 7.7769323453943376e-03 0.0000000000000000e+00  9.9863421931759113e+00 1.9069498814615202e-02 0.0000000000000000e+00  1.0005287744004292e+01 -1.7113437756922159e-03 0.0000000000000000e+00  9.9913077536131762e+00 -2.3899632234794543e-03 0.0000000000000000e+00  1.0004675579785095e+01 1.0448732020656003e-02 0.0000000000000000e+00  9.9844796492579331e+00 -1.8056970410063093e-02 0.0000000000000000e+00  1.0012343473922792e+01 1.3846513837503575e-02 0.0000000000000000e+00  9.9660944937152163e+00 4.1325564636649374e-02 0.0000000000000000e+00  1.0013509230622033e+01 -5.9166432476128718e-02 0.0000000000000000e+00  9.9969942492637944e+00 -1.0830133968918212e-02 0.0000000000000000e+00  9.9778388920641294e+00 4.0046059721288267e-02 0.0000000000000000e+00  9.9934488015119136e+00 -5.0375982490322893e-02 0.0000000000000000e+00  1.0025724167848557e+01 8.4692589101185382e-03 0.0000000000000000e+00  9.9447646055907075e+00 1.6629626266484723e-03 0.0000000000000000e+00  1.0019421938297015e+01 -4.5208957436501888e-03 0.0000000000000000e+00  1.0011369331901562e+01 -1.5372896913459102e-02 0.0000000000000000e+00  9.9526860393149708e+00 1.1506005637872152e-02 0.0000000000000000e+00  1.0008899628220487e+01 -6.9989312617788919e-03 0.0000000000000000e+00  1.0032011877527195e+01 6.7322376771474053e-03 0.0000000000000000e+00  9.9255342127445640e+00 -1.8696159339433742e-02 0.0000000000000000e+00  1.0033280665305391e+01 2.6049035566265345e-02 0.0000000000000000e+00  1.0016382482036725e+01 -8.8110402247202086e-03 0.0000000000000000e+00  9.9335754455947232e+00 -8.1656349617419653e-03 0.0000000000000000e+00  1.0022844880865868e+01 1.5042740344139724e-02 0.0000000000000000e+00  1.0031284825980199e+01 1.7398153923416655e-02 0.0000000000000000e+00  9.9133391459938505e+00 -3.7057066403981889e-02 0.0000000000000000e+00  1.0038711745000843e+01 4.1831352000277808e-02 0.0000000000000000e+00  1.0016584947255906e+01 -4.6595543444635497e-04 0.0000000000000000e+00  9.9249313092867837e+00 -1.6984151778629285e-02 0.0000000000000000e+00  1.0022186559063909e+01 1.8858926618895093e-02 0.0000000000000000e+00  1.0029308044821470e+01 2.8297648632118869e-02 0.0000000000000000e+00  9.9114230509193746e+00 -3.8989255741198339e-02 0.0000000000000000e+00  1.0029113068395549e+01 4.0502740435171276e-02 0.0000000000000000e+00  1.0012206045763103e+01 9.4563335624524986e-03 0.0000000000000000e+00  9.9267961313306081e+00 -6.0587516092831936e-03 0.0000000000000000e+00  1.0003323773451323e+01 1.4764311621038277e-02 0.0000000000000000e+00  1.0017343463156349e+01 4.2395308183067873e-02 0.0000000000000000e+00  9.9114668618471509e+00 -1.3118129572535149e-02 0.0000000000000000e+00  9.9969730287120999e+00 4.4194883978251533e-02 0.0000000000000000e+00  9.9844004035638001e+00 3.4492281619252427e-02 0.0000000000000000e+00  9.9120084553186221e+00 4.1833739844178604e-02 0.0000000000000000e+00  9.9501502531010697e+00 4.2753121826480181e-02 0.0000000000000000e+00  9.9573877486913851e+00 9.0384375981531415e-02 0.0000000000000000e+00  9.8652372548669103e+00 7.4105800651340883e-02 0.0000000000000000e+00  9.9030930343138373e+00 1.1251657858378736e-01 0.0000000000000000e+00  9.8765741431373790e+00 1.3247752153555314e-01 0.0000000000000000e+00  9.8053491775563995e+00 1.8051926163279569e-01 0.0000000000000000e+00  9.7989605291817732e+00 1.8336812900126986e-01 0.0000000000000000e+00  9.7747044028371928e+00 2.5365203017152776e-01 0.0000000000000000e+00  9.6807413252587811e+00 2.9580910143816258e-01 0.0000000000000000e+00  9.6673394445191096e+00 3.3421301727914599e-01 0.0000000000000000e+00  9.6092375274822359e+00 3.9412701433189234e-01 0.0000000000000000e+00  9.5205366603896113e+00 4.8669577093665872e-01 0.0000000000000000e+00  9.4735146029095496e+00 5.1320268053566143e-01 0.0000000000000000e+00  9.4087976927466208e+00 6.0750324382951393e-01 0.0000000000000000e+00  9.2998642918159344e+00 7.1020053571842912e-01 0.0000000000000000e+00  9.2447166952673943e+00 7.5430190492940985e-01 0.0000000000000000e+00  9.1561294579464843e+00 8.5893543968693720e-01 0.0000000000000000e+00  9.0446065795305461e+00 9.8317867921343338e-01 0.0000000000000000e+00  8.9705070658713115e+00 1.0389414653767584e+00 0.0000000000000000e+00  8.8739769405004729e+00 1.1485256948409586e+00 0.0000000000000000e+00  8.7500769742487901e+00 1.3043715669636076e+00 0.0000000000000000e+00  8.6701897549220437e+00 1.3454192765914557e+00 0.0000000000000000e+00  8.5619057990032363e+00 1.4913865582636638e+00 0.0000000000000000e+00  8.4319339398475481e+00 1.6320317551844921e+00 0.0000000000000000e+00  8.3461829828579397e+00 1.7103612213958930e+00 0.0000000000000000e+00  8.2320613090535506e+00 1.8287720759362918e+00 0.0000000000000000e+00  8.0947075602994580e+00 2.0240404188432595e+00 0.0000000000000000e+00  8.0075784863468922e+00 2.0582745828192222e+00 0.0000000000000000e+00  7.8890657503670427e+00 2.2307435212298610e+00 0.0000000000000000e+00  7.7463823907153193e+00 2.3937614107710075e+00 0.0000000000000000e+00  7.6575695401029504e+00 2.4674313064755999e+00 0.0000000000000000e+00  7.5412822404256712e+00 2.6058008972259095e+00 0.0000000000000000e+00  7.3874208618877280e+00 2.8226470862620263e+00 0.0000000000000000e+00  7.3064251949128778e+00 2.8514004374177855e+00 0.0000000000000000e+00  7.1858174341042220e+00 3.0289828527077978e+00 0.0000000000000000e+00  7.0308646885676644e+00 3.2268793282275325e+00 0.0000000000000000e+00  6.9466958379905259e+00 3.2843679895296796e+00 0.0000000000000000e+00  6.8395559306640994e+00 3.4196381233647282e+00 0.0000000000000000e+00  6.6631069553619735e+00 3.6807451536328104e+00 0.0000000000000000e+00  6.5987355322089458e+00 3.6833962217480152e+00 0.0000000000000000e+00  6.4836073958790141e+00 3.8724683990988114e+00 0.0000000000000000e+00  6.3070399152673993e+00 4.0834014588452519e+00 0.0000000000000000e+00  6.2402006594334560e+00 4.1518387292275714e+00 0.0000000000000000e+00  6.1445954346229525e+00 4.2711690086121727e+00 0.0000000000000000e+00  5.9352389025638654e+00 4.5646607245885438e+00 0.0000000000000000e+00  5.9045002031196026e+00 4.5567974092899064e+00 0.0000000000000000e+00  5.7912844129723062e+00 4.7350639164227752e+00 0.0000000000000000e+00  5.5863688744872677e+00 5.0031265195677683e+00 0.0000000000000000e+00  5.5577227451756332e+00 5.0113200522525601e+00 0.0000000000000000e+00  5.4664605244758828e+00 5.1564856334381846e+00 0.0000000000000000e+00  5.2221756871842056e+00 5.4821920045254409e+00 0.0000000000000000e+00  5.2412795264594108e+00 5.4376616404590443e+00 0.0000000000000000e+00  5.1381804441049761e+00 5.5894046239593127e+00 0.0000000000000000e+00  4.9014345897939053e+00 5.9324390753046865e+00 0.0000000000000000e+00  4.9024961279245485e+00 5.8890865509356409e+00 0.0000000000000000e+00  4.8436664130595419e+00 6.0151778588488272e+00 0.0000000000000000e+00  4.5668310657270688e+00 6.3864464911519088e+00 0.0000000000000000e+00  4.5723309158127527e+00 6.3755825551481689e+00 0.0000000000000000e+00  4.4508271627545017e+00 6.5458611013850962e+00 0.0000000000000000e+00  4.3610363349699393e+00 6.7116176491278372e+00 0.0000000000000000e+00  4.2498654864701777e+00 6.8381861648351849e+00 0.0000000000000000e+00  4.1711131954360345e+00 6.9917899275774138e+00 0.0000000000000000e+00  4.0457808640684716e+00 7.1556705373767278e+00 0.0000000000000000e+00  4.0130394783087588e+00 7.2440532495042040e+00 0.0000000000000000e+00  3.8498948906878177e+00 7.4820932693145883e+00 0.0000000000000000e+00  3.7622143501359169e+00 7.6186340958825349e+00 0.0000000000000000e+00  3.6533451007625319e+00 7.7455491842501498e+00 0.0000000000000000e+00  3.6373878609131558e+00 7.7901779830840301e+00 0.0000000000000000e+00  3.8535715305246154e+00 7.4561874036953100e+00 0.0000000000000000e+00  3.9069033167016975e+00 7.3637780769061214e+00 0.0000000000000000e+00  3.8536777691812443e+00 7.4303724959095163e+00 0.0000000000000000e+00  3.8509898381440171e+00 7.4315029573362725e+00 0.0000000000000000e+00  3.8701877039890151e+00 7.4066375268388702e+00 0.0000000000000000e+00  3.8952441705277248e+00 7.3752147201237248e+00 0.0000000000000000e+00  3.9107284784543204e+00 7.3566793882160226e+00 0.0000000000000000e+00  3.9101946248589923e+00 7.3585446792277471e+00 0.0000000000000000e+00  3.9028776729110031e+00 7.3682872396848182e+00 0.0000000000000000e+00  3.9066549703492157e+00 7.3618206027084216e+00 0.0000000000000000e+00  3.9203008076586143e+00 7.3444151429111288e+00 0.0000000000000000e+00  3.9332320058792782e+00 7.3299334011700630e+00 0.0000000000000000e+00  3.9361348277991155e+00 7.3271946441753038e+00 0.0000000000000000e+00  3.9267447190700047e+00 7.3379774482264537e+00 0.0000000000000000e+00  3.9153047075921363e+00 7.3489850437863034e+00 0.0000000000000000e+00  3.9121944895930159e+00 7.3491548075720612e+00 0.0000000000000000e+00  3.9156907424558893e+00 7.3433284006828616e+00 0.0000000000000000e+00  3.9208994806396218e+00 7.3371053734344454e+00 0.0000000000000000e+00  3.9235086884015957e+00 7.3339475186919056e+00 0.0000000000000000e+00  3.9212762682474387e+00 7.3357535488430061e+00 0.0000000000000000e+00  3.9181020116877687e+00 7.3367527081858670e+00 0.0000000000000000e+00  3.9172363602093561e+00 7.3340381780132988e+00 0.0000000000000000e+00  3.9173114316927431e+00 7.3311567051111926e+00 0.0000000000000000e+00  3.9184232074039356e+00 7.3278974627340707e+00 0.0000000000000000e+00  3.9207067176727595e+00 7.3246004833341010e+00 0.0000000000000000e+00  3.9223000277259841e+00 7.3243897687817174e+00 0.0000000000000000e+00  3.9232720352502359e+00 7.3260705032242859e+00 0.0000000000000000e+00  3.9244737816497990e+00 7.3279426834333661e+00 0.0000000000000000e+00  3.9251364938749855e+00 7.3304166237435568e+00 0.0000000000000000e+00  3.9249423939601091e+00 7.3315048104704577e+00 0.0000000000000000e+00  3.9239200337004050e+00 7.3290015798650847e+00 0.0000000000000000e+00  3.9205610586163067e+00 7.3209270832959614e+00 0.0000000000000000e+00  3.9114849562631924e+00 7.3013302496182080e+00 0.0000000000000000e+00  3.8896782793941740e+00 7.2594765421647462e+00 0.0000000000000000e+00  3.8407577445934455e+00 7.1724247279379698e+00 0.0000000000000000e+00  3.7370686001223512e+00 6.9925352426835481e+00 0.0000000000000000e+00  3.5190042543581548e+00 6.6113900137470116e+00 0.0000000000000000e+00  3.0781452188803766e+00 5.7863772904262571e+00 0.0000000000000000e+00  2.3216962012007447e+00 4.0993027773450255e+00 0.0000000000000000e+00  1.3581512267305653e+00 1.1787074527679866e+00 0.0000000000000000e+00  1.0046773004864005e+00 1.3465095229663613e-02 0.0000000000000000e+00  1.0011026805272747e+00 -2.5858388985912002e-03 0.0000000000000000e+00  9.9961164337859454e-01 1.2648186741490825e-03 0.0000000000000000e+00  1.0000394934492658e+00 -1.1347588087178302e-04 0.0000000000000000e+00  1.0000487829075906e+00 -1.5842535607408191e-04 0.0000000000000000e+00  9.9995635264702420e-01 1.4128344212548086e-04 0.0000000000000000e+00  1.0000322515767301e+00 -1.0389091489615612e-04 0.0000000000000000e+00  9.9996945834001394e-01 9.6827685389284511e-05 0.0000000000000000e+00  1.0000323317997790e+00 -1.0095040231992830e-04 0.0000000000000000e+00  9.9996827954122658e-01 9.7910962660506895e-05 0.0000000000000000e+00  1.0000277520429126e+00 -8.4693360839758651e-05 0.0000000000000000e+00  9.9997770432594091e-01 6.7093951788006200e-05 0.0000000000000000e+00  1.0000172866994548e+00 -5.1110066195411244e-05 0.0000000000000000e+00  9.9998649085782210e-01 3.9174003488780169e-05 0.0000000000000000e+00  1.0000107847360218e+00 -3.0707447785809032e-05 0.0000000000000000e+00  9.9999136030695401e-01 2.4203875242088879e-05 0.0000000000000000e+00  1.0000067619685518e+00 -1.8644909994355531e-05 0.0000000000000000e+00  9.9999491415453023e-01 1.3777025216299562e-05 0.0000000000000000e+00  1.0000036692421037e+00 -9.7349522944778409e-06 0.0000000000000000e+00  9.9999743811767861e-01 6.6391581910033894e-06 0.0000000000000000e+00  1.0000017532168803e+00 -4.4345097164263851e-06 0.0000000000000000e+00  9.9999881296626125e-01 2.9352609048383540e-06 0.0000000000000000e+00  1.0000007962484714e+00 -1.9303596136175600e-06 0.0000000000000000e+00  9.9999947387502608e-01 1.2528908479052182e-06 0.0000000000000000e+00  1.0000003397276402e+00 -7.9439291279344804e-07 0.0000000000000000e+00  9.9999978668146916e-01 4.8864242229962002e-07 0.0000000000000000e+00  1.0000001303538322e+00 -2.9169273115863598e-07 0.0000000000000000e+00  9.9999992199275756e-01 1.7033671343543427e-07 0.0000000000000000e+00  1.0000000461239775e+00 -9.8523942116775884e-08 0.0000000000000000e+00  9.9999997285965347e-01 5.7053669753851210e-08 0.0000000000000000e+00  1.0000000159234106e+00 -3.3178585836235824e-08 0.0000000000000000e+00  9.9999999071680112e-01 1.9269053994896189e-08 0.0000000000000000e+00  1.0000000053491576e+00 -1.1076603878918348e-08 0.0000000000000000e+00  9.9999999696207631e-01 6.2682018320554028e-09 0.0000000000000000e+00  1.0000000017042525e+00 -3.4992814667622410e-09 0.0000000000000000e+00  9.9999999904948800e-01 1.9438768038148502e-09 0.0000000000000000e+00  1.0000000005306191e+00 -1.0847082050418761e-09 0.0000000000000000e+00  9.9999999970286269e-01 6.0969953482459591e-10 0.0000000000000000e+00  1.0000000001661469e+00 -3.4272132990456617e-10 0.0000000000000000e+00  9.9999999990806010e-01 1.9009880451922344e-10 0.0000000000000000e+00  1.0000000000499358e+00 -1.0280055414381947e-10 0.0000000000000000e+00  9.9999999997347544e-01 5.3915060173380227e-11 0.0000000000000000e+00  1.0000000000138145e+00 -2.7524139705887304e-11 0.0000000000000000e+00  9.9999999999291189e-01 1.3787863713038870e-11 0.0000000000000000e+00  1.0000000000036147e+00 -6.8690320087680852e-12 0.0000000000000000e+00  9.9999999999819500e-01 3.3231719604721754e-12 0.0000000000000000e+00  1.0000000000008902e+00 -1.5900574222932523e-12 0.0000000000000000e+00  9.9999999999959588e-01 6.5795864235108742e-13 0.0000000000000000e+00  1.0000000000001787e+00 -2.6429078495700883e-13 0.0000000000000000e+00  9.9999999999990774e-01 5.6479744421574075e-14 0.0000000000000000e+00  1.0000000000000280e+00 0.0000000000000000e+00 -1.6982811926951921e-14  1.0000000000002467e+00 0.0000000000000000e+00 -2.9838747246651079e-13  1.0000000000000742e+00 0.0000000000000000e+00 2.7356935667389628e-13  9.9999999999988087e-01 0.0000000000000000e+00 -3.0015564492784074e-13  1.0000000000000695e+00 0.0000000000000000e+00 -1.1168593080418100e-13  1.0000000000005005e+00 0.0000000000000000e+00 -6.8664048614118860e-13  1.0000000000001197e+00 0.0000000000000000e+00 5.2107132829910706e-13  9.9999999999989053e-01 0.0000000000000000e+00 -4.7060444355408832e-13  1.0000000000001410e+00 0.0000000000000000e+00 -1.2772983599599456e-13  1.0000000000008751e+00 0.0000000000000000e+00 -9.9222010479222205e-13  1.0000000000000435e+00 0.0000000000000000e+00 -4.9070460926169143e-14  1.0000000000004119e+00 0.0000000000000000e+00 -6.2989388923787141e-13  1.0000000000010263e+00 0.0000000000000000e+00 6.3513371789824143e-13  1.0000000000007649e+00 0.0000000000000000e+00 -3.8626818162708595e-13  9.9999999999957578e-01 0.0000000000000000e+00 1.0479616670425977e-12  1.0000000000006308e+00 0.0000000000000000e+00 -7.2172582840523047e-13  1.0000000000003566e+00 0.0000000000000000e+00 2.7774128124063633e-13  9.9999999999997968e-01 0.0000000000000000e+00 -2.6406679061452571e-13  9.9999999999999523e-01 0.0000000000000000e+00 4.3579406711725314e-13  1.0000000000006548e+00 0.0000000000000000e+00 -1.0218988007892281e-12  9.9999999999996259e-01 0.0000000000000000e+00 7.5866202255913206e-13  1.0000000000000497e+00 0.0000000000000000e+00 -2.4229807905315247e-13  9.9999999999998745e-01 0.0000000000000000e+00 1.4389455345743682e-13  1.0000000000001663e+00 0.0000000000000000e+00 -2.7406051979259153e-13  9.9999999999997391e-01 0.0000000000000000e+00 2.0375465428698239e-13  1.0000000000000167e+00 0.0000000000000000e+00 -4.8232874965476645e-14  9.9999999999998257e-01 0.0000000000000000e+00 3.6293722010885821e-14  1.0000000000000120e+00 0.0000000000000000e+00 -3.4389881279964396e-14  9.9999999999998901e-01 0.0000000000000000e+00 2.9254187984999922e-14  1.0000000000000002e+00 0.0000000000000000e+00 -1.7050426874055043e-14  9.9999999999999278e-01 0.0000000000000000e+00 7.8605320776108775e-15  1.0000000000000018e+00 0.0000000000000000e+00 -9.8604965376863789e-15  9.9999999999999900e-01 0.0000000000000000e+00 4.0164190729773481e-15  9.9999999999999856e-01 0.0000000000000000e+00 -5.3552649636279635e-16  9.9999999999999800e-01 0.0000000000000000e+00 5.9840922150243563e-16  9.9999999999999856e-01 0.0000000000000000e+00 -2.1745932127510210e-15  1.0000000000000009e+00 0.0000000000000000e+00 -6.6287340841853015e-16  9.9999999999999978e-01 0.0000000000000000e+00 -1.0223155184036508e-15  1.0000000000000020e+00 0.0000000000000000e+00 3.0676683629443672e-15  1.0000000000000024e+00 -3.5561681955832829e-15 0.0000000000000000e+00  9.9999999999999645e-01 1.2166356599710469e-14 0.0000000000000000e+00  1.0000000000000047e+00 -1.4794357202486130e-14 0.0000000000000000e+00  1.0000000000000009e+00 1.2002814210545590e-14 0.0000000000000000e+00  9.9999999999998346e-01 4.1526639201005286e-14 0.0000000000000000e+00  1.0000000000000566e+00 -1.7141602453760719e-13 0.0000000000000000e+00  9.9999999999991862e-01 2.9919155537876091e-13 0.0000000000000000e+00  1.0000000000000857e+00 -3.4082096897870263e-13 0.0000000000000000e+00  1.0000000000001119e+00 -2.9515202047015845e-13 0.0000000000000000e+00  9.9999999999931333e-01 1.7695360921577087e-12 0.0000000000000000e+00  1.0000000000011857e+00 -4.2104054307611666e-12 0.0000000000000000e+00  9.9999999999863454e-01 4.8802035728474020e-12 0.0000000000000000e+00  9.9999999999900058e-01 1.3517325810293052e-12 0.0000000000000000e+00  1.0000000000066658e+00 -1.7341447139334574e-11 0.0000000000000000e+00  9.9999999998670264e-01 3.6726278428898423e-11 0.0000000000000000e+00  1.0000000000119200e+00 -4.6311530496008189e-11 0.0000000000000000e+00  1.0000000000015867e+00 2.2268223742916957e-11 0.0000000000000000e+00  9.9999999997014122e-01 1.1102250172806475e-10 0.0000000000000000e+00  1.0000000000902884e+00 -3.6461632083198433e-10 0.0000000000000000e+00  9.9999999988404564e-01 2.9657607027920524e-10 0.0000000000000000e+00  9.9999999979168042e-01 5.2417104189394927e-10 0.0000000000000000e+00  1.0000000007611569e+00 -2.2853007209137693e-09 0.0000000000000000e+00  9.9999999881231061e-01 3.6645455180800295e-09 0.0000000000000000e+00  1.0000000001849632e+00 -3.8120796809645865e-10 0.0000000000000000e+00  1.0000000036623689e+00 -1.1795396517890829e-08 0.0000000000000000e+00  9.9999999103427750e-01 2.3663654599582156e-08 0.0000000000000000e+00  1.0000000052359606e+00 -9.6860310282398946e-09 0.0000000000000000e+00  1.0000000124961477e+00 -8.9217363514340671e-08 0.0000000000000000e+00  9.9999994236068135e-01 1.7493913706067360e-07 0.0000000000000000e+00  9.9999998057190354e-01 -1.8536123046383069e-07 0.0000000000000000e+00  1.0000001877327995e+00 -2.9919839097267410e-07 0.0000000000000000e+00  9.9999929398416632e-01 1.7752598968628646e-06 0.0000000000000000e+00  1.0000014053296473e+00 -3.5755601075347323e-06 0.0000000000000000e+00  9.9999809250556848e-01 4.6539033429798647e-06 0.0000000000000000e+00  1.0000016033205505e+00 -4.9880444051567252e-06 0.0000000000000000e+00  9.9999781838220247e-01 8.3020412207605317e-06 0.0000000000000000e+00  1.0000059471493921e+00 -1.2592422466081933e-05 0.0000000000000000e+00  9.9999576392966394e-01 -3.1373415970791027e-06 0.0000000000000000e+00  9.9999764964341664e-01 1.1806478837599180e-05 0.0000000000000000e+00  9.9998814470116071e-01 -4.2978220955416115e-06 0.0000000000000000e+00  1.0000450125512348e+00 -7.6311790465629999e-05 0.00000000000