<?xml version="1.0"?>
<VTKFile type="UnstructuredGrid"  version="0.1"  >
<UnstructuredGrid>
<Piece  NumberOfPoints="9509" NumberOfCells="18536">
<Points>
<DataArray  type="Float64"  NumberOfComponents="3"  format="ascii">-5 -1 0  5 -1 0  5 1 0  -5 1 0  -4.949999999999965 -1 0  -4.899999999999877 -1 0  -4.849999999999826 -1 0  -4.799999999999754 -1 0  -4.749999999999695 -1 0  -4.69999999999963 -1 0  -4.649999999999565 -1 0  -4.599999999999507 -1 0  -4.549999999999454 -1 0  -4.499999999999384 -1 0  -4.449999999999317 -1 0  -4.399999999999261 -1 0  -4.349999999999206 -1 0  -4.299999999999137 -1 0  -4.249999999999075 -1 0  -4.199999999999013 -1 0  -4.149999999998934 -1 0  -4.09999999999889 -1 0  -4.049999999998847 -1 0  -3.999999999998767 -1 0  -3.949999999998706 -1 0  -3.899999999998644 -1 0  -3.849999999998594 -1 0  -3.799999999998552 -1 0  -3.749999999998549 -1 0  -3.699999999998651 -1 0  -3.649999999998804 -1 0  -3.59999999999894 -1 0  -3.549999999999097 -1 0  -3.499999999999261 -1 0  -3.449999999999394 -1 0  -3.399999999999582 -1 0  -3.349999999999742 -1 0  -3.299999999999902 -1 0  -3.25000000000006 -1 0  -3.200000000000223 -1 0  -3.150000000000369 -1 0  -3.100000000000544 -1 0  -3.050000000000704 -1 0  -3.000000000000864 -1 0  -2.950000000001029 -1 0  -2.900000000001185 -1 0  -2.850000000001347 -1 0  -2.800000000001506 -1 0  -2.750000000001665 -1 0  -2.700000000001827 -1 0  -2.650000000001979 -1 0  -2.600000000002148 -1 0  -2.550000000002311 -1 0  -2.500000000002468 -1 0  -2.450000000002635 -1 0  -2.400000000002789 -1 0  -2.35000000000295 -1 0  -2.30000000000311 -1 0  -2.250000000003253 -1 0  -2.200000000003431 -1 0  -2.150000000003601 -1 0  -2.100000000003752 -1 0  -2.050000000003922 -1 0  -2.000000000004072 -1 0  -1.950000000004237 -1 0  -1.900000000004393 -1 0  -1.850000000004541 -1 0  -1.800000000004714 -1 0  -1.750000000004886 -1 0  -1.700000000005035 -1 0  -1.650000000005206 -1 0  -1.600000000005355 -1 0  -1.550000000005516 -1 0  -1.500000000005676 -1 0  -1.450000000005824 -1 0  -1.400000000005996 -1 0  -1.350000000006146 -1 0  -1.300000000006318 -1 0  -1.250000000006505 -1 0  -1.200000000006638 -1 0  -1.150000000006797 -1 0  -1.100000000006959 -1 0  -1.050000000007106 -1 0  -1.000000000007245 -1 0  -0.9500000000072193 -1 0  -0.9000000000072612 -1 0  -0.8500000000071966 -1 0  -0.8000000000071381 -1 0  -0.750000000007085 -1 0  -0.700000000007015 -1 0  -0.6500000000069521 -1 0  -0.6000000000068919 -1 0  -0.5500000000068104 -1 0  -0.5000000000067688 -1 0  -0.4500000000067104 -1 0  -0.4000000000066457 -1 0  -0.3500000000065757 -1 0  -0.3000000000065226 -1 0  -0.2500000000064961 -1 0  -0.2000000000063995 -1 0  -0.1500000000063775 -1 0  -0.1000000000062764 -1 0  -0.0500000000062597 -1 0  -6.153300091682468e-12 -1 0  0.04999999999390781 -1 0  0.09999999999396891 -1 0  0.14999999999403 -1 0  0.1999999999940929 -1 0  0.2499999999941318 -1 0  0.299999999994216 -1 0  0.349999999994254 -1 0  0.3999999999943391 -1 0  0.4499999999944038 -1 0  0.4999999999944613 -1 0  0.5499999999945429 -1 0  0.5999999999945853 -1 0  0.6499999999946606 -1 0  0.6999999999947084 -1 0  0.7499999999947651 -1 0  0.7999999999948315 -1 0  0.8499999999948926 -1 0  0.8999999999949537 -1 0  0.9499999999950148 -1 0  0.9999999999950768 -1 0  1.049999999995139 -1 0  1.0999999999952 -1 0  1.149999999995266 -1 0  1.199999999995324 -1 0  1.249999999995385 -1 0  1.299999999995446 -1 0  1.349999999995488 -1 0  1.399999999995569 -1 0  1.449999999995604 -1 0  1.499999999995692 -1 0  1.549999999995753 -1 0  1.599999999995816 -1 0  1.649999999995892 -1 0  1.699999999995939 -1 0  1.749999999996017 -1 0  1.799999999996063 -1 0  1.849999999996111 -1 0  1.899999999996185 -1 0  1.949999999996246 -1 0  1.999999999996308 -1 0  2.049999999996351 -1 0  2.099999999996431 -1 0  2.149999999996504 -1 0  2.199999999996555 -1 0  2.249999999996616 -1 0  2.299999999996677 -1 0  2.349999999996736 -1 0  2.3999999999968 -1 0  2.449999999996847 -1 0  2.499999999996923 -1 0  2.549999999997 -1 0  2.599999999997047 -1 0  2.649999999997093 -1 0  2.69999999999717 -1 0  2.749999999997245 -1 0  2.799999999997293 -1 0  2.849999999997344 -1 0  2.899999999997416 -1 0  2.949999999997469 -1 0  2.999999999997539 -1 0  3.049999999997576 -1 0  3.099999999997662 -1 0  3.149999999997725 -1 0  3.199999999997784 -1 0  3.249999999997829 -1 0  3.299999999997908 -1 0  3.349999999997921 -1 0  3.39999999999803 -1 0  3.4499999999981 -1 0  3.499999999998153 -1 0  3.549999999998214 -1 0  3.599999999998277 -1 0  3.649999999998409 -1 0  3.699999999998401 -1 0  3.749999999998444 -1 0  3.799999999998523 -1 0  3.849999999998602 -1 0  3.899999999998645 -1 0  3.949999999998658 -1 0  3.999999999998769 -1 0  4.049999999998814 -1 0  4.099999999998893 -1 0  4.149999999998883 -1 0  4.199999999999015 -1 0  4.249999999999064 -1 0  4.299999999999137 -1 0  4.349999999999152 -1 0  4.399999999999261 -1 0  4.44999999999933 -1 0  4.499999999999385 -1 0  4.549999999999446 -1 0  4.599999999999508 -1 0  4.649999999999633 -1 0  4.699999999999632 -1 0  4.749999999999723 -1 0  4.799999999999754 -1 0  4.849999999999801 -1 0  4.899999999999876 -1 0  4.949999999999925 -1 0  5 -0.950000000000111 0  5 -0.9000000000002774 0  5 -0.8500000000004283 0  5 -0.8000000000005548 0  5 -0.7500000000006787 0  5 -0.7000000000008322 0  5 -0.6500000000009709 0  5 -0.6000000000011096 0  5 -0.5500000000012484 0  5 -0.500000000001387 0  5 -0.4500000000015256 0  5 -0.4000000000016644 0  5 -0.3500000000018031 0  5 -0.3000000000019418 0  5 -0.2500000000020806 0  5 -0.2000000000022192 0  5 -0.1500000000023578 0  5 -0.1000000000024964 0  5 -0.05000000000262439 0  5 -2.752242878045763e-12 0  5 0.0499999999973757 0  5 0.09999999999750342 0  5 0.1499999999976422 0  5 0.1999999999977808 0  5 0.2499999999979194 0  5 0.2999999999980583 0  5 0.3499999999981969 0  5 0.3999999999983355 0  5 0.4499999999984743 0  5 0.4999999999986129 0  5 0.5499999999987515 0  5 0.5999999999988903 0  5 0.6499999999990291 0  5 0.699999999999168 0  5 0.7499999999993068 0  5 0.7999999999994454 0  5 0.849999999999584 0  5 0.8999999999997226 0  5 0.9499999999998612 0  4.949999999999965 1 0  4.899999999999877 1 0  4.849999999999826 1 0  4.799999999999754 1 0  4.749999999999695 1 0  4.69999999999963 1 0  4.649999999999565 1 0  4.599999999999507 1 0  4.549999999999454 1 0  4.499999999999384 1 0  4.449999999999317 1 0  4.399999999999261 1 0  4.349999999999206 1 0  4.299999999999137 1 0  4.249999999999075 1 0  4.199999999999013 1 0  4.149999999998934 1 0  4.09999999999889 1 0  4.049999999998847 1 0  3.999999999998767 1 0  3.949999999998706 1 0  3.899999999998644 1 0  3.849999999998594 1 0  3.799999999998552 1 0  3.749999999998549 1 0  3.699999999998651 1 0  3.649999999998804 1 0  3.59999999999894 1 0  3.549999999999097 1 0  3.499999999999261 1 0  3.449999999999394 1 0  3.399999999999582 1 0  3.349999999999742 1 0  3.299999999999902 1 0  3.25000000000006 1 0  3.200000000000223 1 0  3.150000000000369 1 0  3.100000000000544 1 0  3.050000000000704 1 0  3.000000000000864 1 0  2.950000000001029 1 0  2.900000000001185 1 0  2.850000000001347 1 0  2.800000000001506 1 0  2.750000000001665 1 0  2.700000000001827 1 0  2.650000000001979 1 0  2.600000000002148 1 0  2.550000000002311 1 0  2.500000000002468 1 0  2.450000000002635 1 0  2.400000000002789 1 0  2.35000000000295 1 0  2.30000000000311 1 0  2.250000000003253 1 0  2.200000000003431 1 0  2.150000000003601 1 0  2.100000000003752 1 0  2.050000000003922 1 0  2.000000000004072 1 0  1.950000000004237 1 0  1.900000000004393 1 0  1.850000000004541 1 0  1.800000000004714 1 0  1.750000000004886 1 0  1.700000000005035 1 0  1.650000000005206 1 0  1.600000000005355 1 0  1.550000000005516 1 0  1.500000000005676 1 0  1.450000000005824 1 0  1.400000000005996 1 0  1.350000000006146 1 0  1.300000000006318 1 0  1.250000000006505 1 0  1.200000000006638 1 0  1.150000000006797 1 0  1.100000000006959 1 0  1.050000000007106 1 0  1.000000000007245 1 0  0.9500000000072193 1 0  0.9000000000072612 1 0  0.8500000000071966 1 0  0.8000000000071381 1 0  0.750000000007085 1 0  0.700000000007015 1 0  0.6500000000069521 1 0  0.6000000000068919 1 0  0.5500000000068104 1 0  0.5000000000067688 1 0  0.4500000000067104 1 0  0.4000000000066457 1 0  0.3500000000065757 1 0  0.3000000000065226 1 0  0.2500000000064961 1 0  0.2000000000063995 1 0  0.1500000000063775 1 0  0.1000000000062764 1 0  0.0500000000062597 1 0  6.153300091682468e-12 1 0  -0.04999999999390781 1 0  -0.09999999999396891 1 0  -0.14999999999403 1 0  -0.1999999999940929 1 0  -0.2499999999941318 1 0  -0.299999999994216 1 0  -0.349999999994254 1 0  -0.3999999999943391 1 0  -0.4499999999944038 1 0  -0.4999999999944613 1 0  -0.5499999999945429 1 0  -0.5999999999945853 1 0  -0.6499999999946606 1 0  -0.6999999999947084 1 0  -0.7499999999947651 1 0  -0.7999999999948315 1 0  -0.8499999999948926 1 0  -0.8999999999949537 1 0  -0.9499999999950148 1 0  -0.9999999999950768 1 0  -1.049999999995139 1 0  -1.0999999999952 1 0  -1.149999999995266 1 0  -1.199999999995324 1 0  -1.249999999995385 1 0  -1.299999999995446 1 0  -1.349999999995488 1 0  -1.399999999995569 1 0  -1.449999999995604 1 0  -1.499999999995692 1 0  -1.549999999995753 1 0  -1.599999999995816 1 0  -1.649999999995892 1 0  -1.699999999995939 1 0  -1.749999999996017 1 0  -1.799999999996063 1 0  -1.849999999996111 1 0  -1.899999999996185 1 0  -1.949999999996246 1 0  -1.999999999996308 1 0  -2.049999999996351 1 0  -2.099999999996431 1 0  -2.149999999996504 1 0  -2.199999999996555 1 0  -2.249999999996616 1 0  -2.299999999996677 1 0  -2.349999999996736 1 0  -2.3999999999968 1 0  -2.449999999996847 1 0  -2.499999999996923 1 0  -2.549999999997 1 0  -2.599999999997047 1 0  -2.649999999997093 1 0  -2.69999999999717 1 0  -2.749999999997245 1 0  -2.799999999997293 1 0  -2.849999999997344 1 0  -2.899999999997416 1 0  -2.949999999997469 1 0  -2.999999999997539 1 0  -3.049999999997576 1 0  -3.099999999997662 1 0  -3.149999999997725 1 0  -3.199999999997784 1 0  -3.249999999997829 1 0  -3.29999
[...]
<PointData  Vectors="(h, u)"> 
<DataArray  type="Float64"  Name="(h, u)"  NumberOfComponents="3" format="ascii">4.9777578150387276e+00 0.0000000000000000e+00 0.0000000000000000e+00  9.5034222163804447e+00 0.0000000000000000e+00 0.0000000000000000e+00  9.5141907479743058e+00 0.0000000000000000e+00 0.0000000000000000e+00  4.9811186028711223e+00 0.0000000000000000e+00 0.0000000000000000e+00  4.9953115540342807e+00 6.2351278077790055e-02 0.0000000000000000e+00  4.9778239063567415e+00 1.5531631947842162e-01 0.0000000000000000e+00  4.9938476076067682e+00 2.1127434224649227e-01 0.0000000000000000e+00  4.9756463420008137e+00 2.4757381251307628e-01 0.0000000000000000e+00  4.9949108713195551e+00 3.5482458870518280e-01 0.0000000000000000e+00  4.9801739141982715e+00 4.4226766864102879e-01 0.0000000000000000e+00  4.9870354208015897e+00 4.5932955565662087e-01 0.0000000000000000e+00  4.9800712670726988e+00 6.0338320755337305e-01 0.0000000000000000e+00  4.9896853271733006e+00 6.2224734317462638e-01 0.0000000000000000e+00  4.9723404034476379e+00 6.7778664287539736e-01 0.0000000000000000e+00  4.9900927870668843e+00 7.7830283862096150e-01 0.0000000000000000e+00  4.9784869306726964e+00 8.7052316817712094e-01 0.0000000000000000e+00  4.9754385211037997e+00 8.1941897643086381e-01 0.0000000000000000e+00  4.9820922178862963e+00 1.0764232122394950e+00 0.0000000000000000e+00  4.9807946859282524e+00 9.9144160169352757e-01 0.0000000000000000e+00  4.9670138476470420e+00 1.1168544664416404e+00 0.0000000000000000e+00  4.9814885530399620e+00 1.1896249836701489e+00 0.0000000000000000e+00  4.9771991567690268e+00 1.3056862452441567e+00 0.0000000000000000e+00  4.9601930029353145e+00 1.2298360876477863e+00 0.0000000000000000e+00  4.9802117520697884e+00 1.4445756836798676e+00 0.0000000000000000e+00  4.9696571378318630e+00 1.5024922603112993e+00 0.0000000000000000e+00  4.9580743191702954e+00 1.4350916539464402e+00 0.0000000000000000e+00  4.9709095130142389e+00 1.6504417559636630e+00 0.0000000000000000e+00  4.9699156867959973e+00 1.6920131498640201e+00 0.0000000000000000e+00  4.9457375656174243e+00 1.6652058732350150e+00 0.0000000000000000e+00  4.9713198306528348e+00 1.8706008981101965e+00 0.0000000000000000e+00  4.9572715695744369e+00 1.8332221184750244e+00 0.0000000000000000e+00  4.9466225297728181e+00 1.9452956861346318e+00 0.0000000000000000e+00  4.9553804969303785e+00 2.0463316445435606e+00 0.0000000000000000e+00  4.9604642044235545e+00 2.0379792177222171e+00 0.0000000000000000e+00  4.9288892989158111e+00 2.1564115585460115e+00 0.0000000000000000e+00  4.9571163908099436e+00 2.2450376387446922e+00 0.0000000000000000e+00  4.9425456031243025e+00 2.2574633225939578e+00 0.0000000000000000e+00  4.9316478148444052e+00 2.3522394642917841e+00 0.0000000000000000e+00  4.9362798171056834e+00 2.4422526874004102e+00 0.0000000000000000e+00  4.9451704743948204e+00 2.4783276766202609e+00 0.0000000000000000e+00  4.9129741188643221e+00 2.5608511243809806e+00 0.0000000000000000e+00  4.9354214425911778e+00 2.6278032036692576e+00 0.0000000000000000e+00  4.9260811714316235e+00 2.7070481779716395e+00 0.0000000000000000e+00  4.9146371669610698e+00 2.7600446005053856e+00 0.0000000000000000e+00  4.9135570167175215e+00 2.8193407183548009e+00 0.0000000000000000e+00  4.9246002780416109e+00 2.9357723537756901e+00 0.0000000000000000e+00  4.8980740447246651e+00 2.9435372874291259e+00 0.0000000000000000e+00  4.9066409974804879e+00 3.0366243372701582e+00 0.0000000000000000e+00  4.9071311390003221e+00 3.1356665179737857e+00 0.0000000000000000e+00  4.8938932586667692e+00 3.1412027030017433e+00 0.0000000000000000e+00  4.8878248436165954e+00 3.2554027357200770e+00 0.0000000000000000e+00  4.8978451638685350e+00 3.3129056368608207e+00 0.0000000000000000e+00  4.8814261025747374e+00 3.3742250482022298e+00 0.0000000000000000e+00  4.8736607712198596e+00 3.4248497532366322e+00 0.0000000000000000e+00  4.8833280290006957e+00 3.5414621478338608e+00 0.0000000000000000e+00  4.8697898813375140e+00 3.5528513978558833e+00 0.0000000000000000e+00  4.8578827658943222e+00 3.6419769138884135e+00 0.0000000000000000e+00  4.8664765308609237e+00 3.7342208708344411e+00 0.0000000000000000e+00  4.8592990303757650e+00 3.7473002901275434e+00 0.0000000000000000e+00  4.8384817821189108e+00 3.8550296270050262e+00 0.0000000000000000e+00  4.8520191981678895e+00 3.9185519974509933e+00 0.0000000000000000e+00  4.8428770642695378e+00 3.9535874685484731e+00 0.0000000000000000e+00  4.8245356232872574e+00 4.0501925525002163e+00 0.0000000000000000e+00  4.8301299042010148e+00 4.1179141467972400e+00 0.0000000000000000e+00  4.8283798056839373e+00 4.1443241238752337e+00 0.0000000000000000e+00  4.8046868252337438e+00 4.2621160197294943e+00 0.0000000000000000e+00  4.8107280126142768e+00 4.2913692045480119e+00 0.0000000000000000e+00  4.8041985675203351e+00 4.3709371174858571e+00 0.0000000000000000e+00  4.7895050402295940e+00 4.4264462367586708e+00 0.0000000000000000e+00  4.7848212119909377e+00 4.5108803300485931e+00 0.0000000000000000e+00  4.7824269544095097e+00 4.5448022739185454e+00 0.0000000000000000e+00  4.7703153247514321e+00 4.6342360799107114e+00 0.0000000000000000e+00  4.7653759089899381e+00 4.6737223620444510e+00 0.0000000000000000e+00  4.7486048908860701e+00 4.7717965048054864e+00 0.0000000000000000e+00  4.7590254792937392e+00 4.7840465383902782e+00 0.0000000000000000e+00  4.7418045752303826e+00 4.8752595459525532e+00 0.0000000000000000e+00  4.7217158112491688e+00 4.9505970629419975e+00 0.0000000000000000e+00  4.7368148547591318e+00 4.9737391413923113e+00 0.0000000000000000e+00  4.7251177837428564e+00 5.0315112542489269e+00 0.0000000000000000e+00  4.6897346595501848e+00 5.1668167335989601e+00 0.0000000000000000e+00  4.7016507529855023e+00 5.1275967540799101e+00 0.0000000000000000e+00  4.7021627562557988e+00 5.2484075399216072e+00 0.0000000000000000e+00  4.6622263396372894e+00 5.2987916291810313e+00 0.0000000000000000e+00  4.6623833020121852e+00 5.3574074426349165e+00 0.0000000000000000e+00  4.6521980199106476e+00 5.4159906551152304e+00 0.0000000000000000e+00  4.6593920648799907e+00 5.4681494818612890e+00 0.0000000000000000e+00  4.6022861131398383e+00 5.5282251107088065e+00 0.0000000000000000e+00  4.6231463403057678e+00 5.6275516904300869e+00 0.0000000000000000e+00  4.6033849225537331e+00 5.6232770259219373e+00 0.0000000000000000e+00  4.5907709516355819e+00 5.7025525059879998e+00 0.0000000000000000e+00  4.5586868578491382e+00 5.8028906990060456e+00 0.0000000000000000e+00  4.5681564240358012e+00 5.8106723904115123e+00 0.0000000000000000e+00  4.5200804942008981e+00 5.8826353812201013e+00 0.0000000000000000e+00  4.5525665068495798e+00 5.9601914564270970e+00 0.0000000000000000e+00  4.4850072457844155e+00 5.9669005747404924e+00 0.0000000000000000e+00  4.5121810770791857e+00 6.0748781038349318e+00 0.0000000000000000e+00  4.4853568613046608e+00 6.0605947893042611e+00 0.0000000000000000e+00  4.4968126554783048e+00 6.1274386682204778e+00 0.0000000000000000e+00  4.4040438126117758e+00 6.2434928236808878e+00 0.0000000000000000e+00  4.4790576717637514e+00 6.2304979164840040e+00 0.0000000000000000e+00  4.3958679394626410e+00 6.2849735529411683e+00 0.0000000000000000e+00  4.3870649223102465e+00 6.4236363612505034e+00 0.0000000000000000e+00  4.3898975861092566e+00 6.3580596119907327e+00 0.0000000000000000e+00  4.3967132886386349e+00 6.4297507896899555e+00 0.0000000000000000e+00  4.2674742282118547e+00 6.5999987137935143e+00 0.0000000000000000e+00  4.3396059896460546e+00 6.5489439679415344e+00 0.0000000000000000e+00  4.2832461590002779e+00 6.6238872465235197e+00 0.0000000000000000e+00  4.2691601164649313e+00 6.6762936995081317e+00 0.0000000000000000e+00  4.2771692489178985e+00 6.6857383432341289e+00 0.0000000000000000e+00  4.2630522370865815e+00 6.7180257175213685e+00 0.0000000000000000e+00  4.2489245165844451e+00 6.7576161303789926e+00 0.0000000000000000e+00  4.1737487060147034e+00 6.8863305281384921e+00 0.0000000000000000e+00  4.1935344788379840e+00 6.8657236882320358e+00 0.0000000000000000e+00  4.1359705662159518e+00 6.9519663908878755e+00 0.0000000000000000e+00  4.2198266156583450e+00 6.8733884966045142e+00 0.0000000000000000e+00  4.0786104543136679e+00 7.0654056147900910e+00 0.0000000000000000e+00  4.0830572885125296e+00 7.0495823191695539e+00 0.0000000000000000e+00  4.0340676505129336e+00 7.1976778007405828e+00 0.0000000000000000e+00  4.0660152844771629e+00 7.0758003771272291e+00 0.0000000000000000e+00  4.0812622914219183e+00 7.1194106477964052e+00 0.0000000000000000e+00  4.0200672871770324e+00 7.2201283671811227e+00 0.0000000000000000e+00  3.9811309298859578e+00 7.2472138080375421e+00 0.0000000000000000e+00  3.9363812566593754e+00 7.3391440320696333e+00 0.0000000000000000e+00  3.9522419066486734e+00 7.3273028399355145e+00 0.0000000000000000e+00  3.8915849344998610e+00 7.4377521103042401e+00 0.0000000000000000e+00  3.9083049973183557e+00 7.3436420686560435e+00 0.0000000000000000e+00  3.8662817038410231e+00 7.5371000134373070e+00 0.0000000000000000e+00  3.8654178304021141e+00 7.4131898700656924e+00 0.0000000000000000e+00  3.7854383181405149e+00 7.6280980980581417e+00 0.0000000000000000e+00  3.8249402053491197e+00 7.5581638195831982e+00 0.0000000000000000e+00  3.7724739080687471e+00 7.6159994207942141e+00 0.0000000000000000e+00  3.6832891471553033e+00 7.7456912733497543e+00 0.0000000000000000e+00  3.8567296452626190e+00 7.5217842255483118e+00 0.0000000000000000e+00  3.9619432875297877e+00 7.3186772321927558e+00 0.0000000000000000e+00  4.0038128499425758e+00 7.2623995460841479e+00 0.0000000000000000e+00  4.0266925037647390e+00 7.2491109249710464e+00 0.0000000000000000e+00  4.0127849712655426e+00 7.2594050668844092e+00 0.0000000000000000e+00  3.9181076652922529e+00 7.3843483664078571e+00 0.0000000000000000e+00  3.9373338155513089e+00 7.3659924740006124e+00 0.0000000000000000e+00  3.9884957983842670e+00 7.3226408817972768e+00 0.0000000000000000e+00  3.9507233624173406e+00 7.2975155958843727e+00 0.0000000000000000e+00  3.9260967381005667e+00 7.4295551593425291e+00 0.0000000000000000e+00  3.9734036856636177e+00 7.2733799461293112e+00 0.0000000000000000e+00  3.9496135183572245e+00 7.3765191709688276e+00 0.0000000000000000e+00  3.9408990126704220e+00 7.3363265070628891e+00 0.0000000000000000e+00  3.9622205135379693e+00 7.3498165427973463e+00 0.0000000000000000e+00  3.9468889696143226e+00 7.3191637052724658e+00 0.0000000000000000e+00  3.9898792451185212e+00 7.3219854200647312e+00 0.0000000000000000e+00  3.9198959242413052e+00 7.3550556834077403e+00 0.0000000000000000e+00  3.9708666800420609e+00 7.3270447390648288e+00 0.0000000000000000e+00  3.9492077342138403e+00 7.3338845876558114e+00 0.0000000000000000e+00  3.9409168383212583e+00 7.3659159360742343e+00 0.0000000000000000e+00  3.9359181000824828e+00 7.3440035384993623e+00 0.0000000000000000e+00  3.9759972730070290e+00 7.3240249596342588e+00 0.0000000000000000e+00  3.9495505356869391e+00 7.3304138142366781e+00 0.0000000000000000e+00  3.9630878086022978e+00 7.3344508352826505e+00 0.0000000000000000e+00  3.9574572036331817e+00 7.3353556803144082e+00 0.0000000000000000e+00  3.9582627911666854e+00 7.3108534938102707e+00 0.0000000000000000e+00  3.9542994167042922e+00 7.3698819724849347e+00 0.0000000000000000e+00  3.9478588340710985e+00 7.3572838801852996e+00 0.0000000000000000e+00  3.9595864028216869e+00 7.2071340871329443e+00 0.0000000000000000e+00  3.9470342576728128e+00 7.5110051903976647e+00 0.0000000000000000e+00  3.8701508418011059e+00 7.6183352970692235e+00 0.0000000000000000e+00  5.6331689464891017e+00 4.0801983162096374e+00 0.0000000000000000e+00  9.8569323718672184e+00 -3.1579152054131726e-01 0.0000000000000000e+00  9.2951164379519895e+00 2.1537568423459411e-01 0.0000000000000000e+00  9.4175132119862592e+00 5.4355138025987487e-02 0.0000000000000000e+00  9.5614815006346277e+00 -5.7819530941802456e-02 0.0000000000000000e+00  9.3963684805893539e+00 1.0430529052100816e-01 0.0000000000000000e+00  9.5415653026229084e+00 -5.9170452235201898e-02 0.0000000000000000e+00  9.4271992730490020e+00 6.5438582271415316e-02 0.0000000000000000e+00  9.5058274969415404e+00 3.6308543079781802e-04 0.0000000000000000e+00  9.4689662726845878e+00 9.4470806104718294e-03 0.0000000000000000e+00  9.4903258187201782e+00 6.0977419990413126e-03 0.0000000000000000e+00  9.4717838099953227e+00 2.2852163766117796e-02 0.0000000000000000e+00  9.4884365635481114e+00 2.9601917898978776e-03 0.0000000000000000e+00  9.4804828638316430e+00 2.1308971001962218e-02 0.0000000000000000e+00  9.4872376743247635e+00 7.0127044596957466e-03 0.0000000000000000e+00  9.4796789483529320e+00 1.0940584226788029e-02 0.0000000000000000e+00  9.4912233496483882e+00 1.4638856509498399e-02 0.0000000000000000e+00  9.4813098583905990e+00 2.3397636897409944e-02 0.0000000000000000e+00  9.4907192487412093e+00 2.7765888032482895e-03 0.0000000000000000e+00  9.4857045042580488e+00 1.3894467599022336e-02 0.0000000000000000e+00  9.4904969859074058e+00 8.6328882595317208e-03 0.0000000000000000e+00  9.4890724305338274e+00 8.2313464071723103e-03 0.0000000000000000e+00  9.4928037977998905e+00 1.7458909717050042e-02 0.0000000000000000e+00  9.4914777918768785e+00 5.8991924214420238e-03 0.0000000000000000e+00  9.4959883266154286e+00 1.1405863802067774e-02 0.0000000000000000e+00  9.4931023947462503e+00 4.7364747397327690e-03 0.0000000000000000e+00  9.4974505683942336e+00 2.0560546378780204e-02 0.0000000000000000e+00  9.4958309042970157e+00 -3.9699845590706953e-03 0.0000000000000000e+00  9.4971950507162273e+00 2.9259468526961430e-02 0.0000000000000000e+00  9.4962640000663434e+00 -9.1164607760438787e-04 0.0000000000000000e+00  9.4992933102580857e+00 2.7203154474538322e-02 0.0000000000000000e+00  9.4936639573711386e+00 5.1467058951552248e-03 0.0000000000000000e+00  9.5009982869914325e+00 1.6097182102953436e-02 0.0000000000000000e+00  9.4934533496298137e+00 -3.6629121758692410e-04 0.0000000000000000e+00  9.4995368375306022e+00 -6.7370538782511079e-03 0.0000000000000000e+00  9.4931082820113328e+00 2.9949201488217513e-02 0.0000000000000000e+00  9.5013494552564275e+00 -6.8125412248881106e-02 0.0000000000000000e+00  9.4909048967602505e+00 1.6016423775610134e-02 0.0000000000000000e+00  9.5024629865875596e+00 -4.6866594869345080e-02 0.0000000000000000e+00  9.4923257811654498e+00 -1.9037732787496620e-01 0.0000000000000000e+00  9.4930293000323065e+00 0.0000000000000000e+00 -7.3564148765735374e-02  9.5013241221174365e+00 0.0000000000000000e+00 -2.8953402820346280e-02  9.4927478433713972e+00 0.0000000000000000e+00 -4.3026917762840837e-02  9.5021655558110965e+00 0.0000000000000000e+00 -1.0919225229453564e-01  9.4937186755775560e+00 0.0000000000000000e+00 2.8562923314538659e-02  9.4962730605877486e+00 0.0000000000000000e+00 6.0257022132026945e-02  9.4954458432951991e+00 0.0000000000000000e+00 -2.3462843243634061e-02  9.4969240631249523e+00 0.0000000000000000e+00 -1.2303826908961900e-01  9.4937930682468572e+00 0.0000000000000000e+00 -1.0551544625573583e-01  9.4949937307749597e+00 0.0000000000000000e+00 1.3523496124203624e-01  9.4954825543339716e+00 0.0000000000000000e+00 -3.4681527561125643e-02  9.4914418661381692e+00 0.0000000000000000e+00 -1.3954286183000540e-02  9.4983473539131378e+00 0.0000000000000000e+00 -5.2146532277721445e-02  9.4932183998843893e+00 0.0000000000000000e+00 -4.8530365638073253e-02  9.4904717538358501e+00 0.0000000000000000e+00 -9.0757597795127459e-02  9.4967058174903460e+00 0.0000000000000000e+00 -1.8804639486195138e-01  9.4972675625636374e+00 0.0000000000000000e+00 -1.1217965807654239e-01  9.4954145080213816e+00 0.0000000000000000e+00 -2.7922246036255044e-01  9.4949904594085499e+00 0.0000000000000000e+00 4.7855667598331680e-02  9.4976168302493420e+00 0.0000000000000000e+00 5.8064561234737341e-02  9.5006528514758397e+00 0.0000000000000000e+00 -8.0379247537859702e-02  9.5016997034632631e+00 0.0000000000000000e+00 -2.2356639830156297e-01  9.4964136682476230e+00 0.0000000000000000e+00 -3.5086734263501548e-02  9.4972755563244338e+00 0.0000000000000000e+00 2.0702452231600560e-01  9.5047521973238442e+00 0.0000000000000000e+00 -7.2191825526974167e-03  9.5023734830988147e+00 0.0000000000000000e+00 5.8118701591587649e-02  9.4996598049039935e+00 0.0000000000000000e+00 -4.9954566357615048e-03  9.5004131558307030e+00 0.0000000000000000e+00 -1.2930433030174224e-01  9.5047639645167852e+00 0.0000000000000000e+00 -1.1230061295023336e-01  9.5012606853226380e+00 0.0000000000000000e+00 8.2718778590640557e-02  9.5000584655872728e+00 0.0000000000000000e+00 -4.2289792115795581e-02  9.5046855527247178e+00 0.0000000000000000e+00 -1.6084100164484744e-01  9.5036431251958735e+00 0.0000000000000000e+00 -4.3589087495430716e-02  9.5052037256019961e+00 0.0000000000000000e+00 -1.2325988311845022e-01  9.5026434262364905e+00 0.0000000000000000e+00 -1.1151504601102713e-01  9.5093297517296183e+00 0.0000000000000000e+00 -1.3350146086796552e-01  9.5024349508440462e+00 0.0000000000000000e+00 -1.4161556614528548e-01  9.5097627439905850e+00 0.0000000000000000e+00 -2.1165215009979882e-01  9.5046675301216990e+00 0.0000000000000000e+00 3.3991099411165701e-03  9.5033707242850554e+00 -3.6527447226971477e-01 0.0000000000000000e+00  9.5032099681648052e+00 -4.5061417506738044e-01 0.0000000000000000e+00  9.5009439236010493e+00 -2.5217778581614142e-01 0.0000000000000000e+00  9.5152239134784899e+00 1.5018243838830825e-02 0.0000000000000000e+00  9.5137612396230136e+00 -2.1305747302647107e-01 0.0000000000000000e+00  9.4814629779909545e+00 -7.7477136512636313e-01 0.0000000000000000e+00  9.5103837204737776e+00 -3.2914176955826480e-01 0.0000000000000000e+00  9.5022504482481587e+00 -4.8448421540631065e-01 0.0000000000000000e+00  9.4991125262066891e+00 -5.4722294553432727e-01 0.0000000000000000e+00  9.5000406650856366e+00 -3.4582288139262635e-01 0.0000000000000000e+00  9.5088643091485281e+00 -2.1868499796858742e-01 0.0000000000000000e+00  9.4998773994722416e+00 -5.9270892259225778e-02 0.0000000000000000e+00  9.5170486238167307e+00 -6.5924766155804088e-02 0.0000000000000000e+00  9.4995296414458927e+00 1.6881626040108288e-01 0.0000000000000000e+00  9.5108172377109028e+00 7.2941479039423190e-02 0.0000000000000000e+00  9.5053460013930664e+00 1.6482688327070394e-01 0.0000000000000000e+00  9.5065390269173466e+00 8.5881971967620610e-02 0.0000000000000000e+00  9.5009281821342082e+00 2.7644466671971211e-02 0.0000000000000000e+00  9.5216364294375069e+00 -8.0870595978731336e-02 0.0000000000000000e+00  9.4842908508762065e+00 1.2470867630996241e-01 0.0000000000000000e+00  9.5088823086238694e+00 -8.2450388910933814e-02 0.0000000000000000e+00  9.5109129558550105e+00 -8.4142420109636074e-02 0.0000000000000000e+00  9.4870655003555182e+00 -2.1021363863485713e-03 0.0000000000000000e+00  9.5167172766593602e+00 3.9302735731808820e-02 0.0000000000000000e+00  9.5059599914672468e+00 7.9056152603142221e-02 0.0000000000000000e+00  9.5146705812664631e+00 1.1040553699804458e-01 0.0000000000000000e+00  9.4853981711289741e+00 1.3805839312024115e-01 0.0000000000000000e+00  9.5384492811524968e+00 1.3182085648203115e-01 0.0000000000000000e+00  9.4790118527922687e+00 -2.3418209946744099e-02 0.0000000000000000e+00  9.5188204171866264e+00 3.3122643355333534e-02 0.0000000000000000e+00  9.4986531816897344e+00 -1.1216524938560085e-01 0.0000000000000000e+00  9.5305790867506897e+00 6.7810521389705921e-03 0.0000000000000000e+00  9.4941181324842194e+00 1.1993307131584348e-01 0.0000000000000000e+00  9.4799466424157579e+00 1.6210962852461305e-01 0.0000000000000000e+00  9.4494472737923161e+00 -1.6299806936000780e-02 0.0000000000000000e+00  9.4503000801246930e+00 3.7584055099980043e-02 0.0000000000000000e+00  9.4713576837389564e+00 9.3742219130921428e-02 0.0000000000000000e+00  9.4983735456881160e+00 9.9974281417831740e-02 0.0000000000000000e+00  9.7734323899099884e+00 -2.7887864348092722e-01 0.0000000000000000e+00  5.9656402458176929e+00 3.7350784461275812e+00 0.0000000000000000e+00  3.7773394698017877e+00 7.6663913350380994e+00 0.0000000000000000e+00  4.0805319092030414