<?xml version="1.0"?>
<VTKFile type="UnstructuredGrid"  version="0.1"  >
<UnstructuredGrid>
<Piece  NumberOfPoints="9509" NumberOfCells="18536">
<Points>
<DataArray  type="Float64"  NumberOfComponents="3"  format="ascii">-5 -1 0  5 -1 0  5 1 0  -5 1 0  -4.949999999999965 -1 0  -4.899999999999877 -1 0  -4.849999999999826 -1 0  -4.799999999999754 -1 0  -4.749999999999695 -1 0  -4.69999999999963 -1 0  -4.649999999999565 -1 0  -4.599999999999507 -1 0  -4.549999999999454 -1 0  -4.499999999999384 -1 0  -4.449999999999317 -1 0  -4.399999999999261 -1 0  -4.349999999999206 -1 0  -4.299999999999137 -1 0  -4.249999999999075 -1 0  -4.199999999999013 -1 0  -4.149999999998934 -1 0  -4.09999999999889 -1 0  -4.049999999998847 -1 0  -3.999999999998767 -1 0  -3.949999999998706 -1 0  -3.899999999998644 -1 0  -3.849999999998594 -1 0  -3.799999999998552 -1 0  -3.749999999998549 -1 0  -3.699999999998651 -1 0  -3.649999999998804 -1 0  -3.59999999999894 -1 0  -3.549999999999097 -1 0  -3.499999999999261 -1 0  -3.449999999999394 -1 0  -3.399999999999582 -1 0  -3.349999999999742 -1 0  -3.299999999999902 -1 0  -3.25000000000006 -1 0  -3.200000000000223 -1 0  -3.150000000000369 -1 0  -3.100000000000544 -1 0  -3.050000000000704 -1 0  -3.000000000000864 -1 0  -2.950000000001029 -1 0  -2.900000000001185 -1 0  -2.850000000001347 -1 0  -2.800000000001506 -1 0  -2.750000000001665 -1 0  -2.700000000001827 -1 0  -2.650000000001979 -1 0  -2.600000000002148 -1 0  -2.550000000002311 -1 0  -2.500000000002468 -1 0  -2.450000000002635 -1 0  -2.400000000002789 -1 0  -2.35000000000295 -1 0  -2.30000000000311 -1 0  -2.250000000003253 -1 0  -2.200000000003431 -1 0  -2.150000000003601 -1 0  -2.100000000003752 -1 0  -2.050000000003922 -1 0  -2.000000000004072 -1 0  -1.950000000004237 -1 0  -1.900000000004393 -1 0  -1.850000000004541 -1 0  -1.800000000004714 -1 0  -1.750000000004886 -1 0  -1.700000000005035 -1 0  -1.650000000005206 -1 0  -1.600000000005355 -1 0  -1.550000000005516 -1 0  -1.500000000005676 -1 0  -1.450000000005824 -1 0  -1.400000000005996 -1 0  -1.350000000006146 -1 0  -1.300000000006318 -1 0  -1.250000000006505 -1 0  -1.200000000006638 -1 0  -1.150000000006797 -1 0  -1.100000000006959 -1 0  -1.050000000007106 -1 0  -1.000000000007245 -1 0  -0.9500000000072193 -1 0  -0.9000000000072612 -1 0  -0.8500000000071966 -1 0  -0.8000000000071381 -1 0  -0.750000000007085 -1 0  -0.700000000007015 -1 0  -0.6500000000069521 -1 0  -0.6000000000068919 -1 0  -0.5500000000068104 -1 0  -0.5000000000067688 -1 0  -0.4500000000067104 -1 0  -0.4000000000066457 -1 0  -0.3500000000065757 -1 0  -0.3000000000065226 -1 0  -0.2500000000064961 -1 0  -0.2000000000063995 -1 0  -0.1500000000063775 -1 0  -0.1000000000062764 -1 0  -0.0500000000062597 -1 0  -6.153300091682468e-12 -1 0  0.04999999999390781 -1 0  0.09999999999396891 -1 0  0.14999999999403 -1 0  0.1999999999940929 -1 0  0.2499999999941318 -1 0  0.299999999994216 -1 0  0.349999999994254 -1 0  0.3999999999943391 -1 0  0.4499999999944038 -1 0  0.4999999999944613 -1 0  0.5499999999945429 -1 0  0.5999999999945853 -1 0  0.6499999999946606 -1 0  0.6999999999947084 -1 0  0.7499999999947651 -1 0  0.7999999999948315 -1 0  0.8499999999948926 -1 0  0.8999999999949537 -1 0  0.9499999999950148 -1 0  0.9999999999950768 -1 0  1.049999999995139 -1 0  1.0999999999952 -1 0  1.149999999995266 -1 0  1.199999999995324 -1 0  1.249999999995385 -1 0  1.299999999995446 -1 0  1.349999999995488 -1 0  1.399999999995569 -1 0  1.449999999995604 -1 0  1.499999999995692 -1 0  1.549999999995753 -1 0  1.599999999995816 -1 0  1.649999999995892 -1 0  1.699999999995939 -1 0  1.749999999996017 -1 0  1.799999999996063 -1 0  1.849999999996111 -1 0  1.899999999996185 -1 0  1.949999999996246 -1 0  1.999999999996308 -1 0  2.049999999996351 -1 0  2.099999999996431 -1 0  2.149999999996504 -1 0  2.199999999996555 -1 0  2.249999999996616 -1 0  2.299999999996677 -1 0  2.349999999996736 -1 0  2.3999999999968 -1 0  2.449999999996847 -1 0  2.499999999996923 -1 0  2.549999999997 -1 0  2.599999999997047 -1 0  2.649999999997093 -1 0  2.69999999999717 -1 0  2.749999999997245 -1 0  2.799999999997293 -1 0  2.849999999997344 -1 0  2.899999999997416 -1 0  2.949999999997469 -1 0  2.999999999997539 -1 0  3.049999999997576 -1 0  3.099999999997662 -1 0  3.149999999997725 -1 0  3.199999999997784 -1 0  3.249999999997829 -1 0  3.299999999997908 -1 0  3.349999999997921 -1 0  3.39999999999803 -1 0  3.4499999999981 -1 0  3.499999999998153 -1 0  3.549999999998214 -1 0  3.599999999998277 -1 0  3.649999999998409 -1 0  3.699999999998401 -1 0  3.749999999998444 -1 0  3.799999999998523 -1 0  3.849999999998602 -1 0  3.899999999998645 -1 0  3.949999999998658 -1 0  3.999999999998769 -1 0  4.049999999998814 -1 0  4.099999999998893 -1 0  4.149999999998883 -1 0  4.199999999999015 -1 0  4.249999999999064 -1 0  4.299999999999137 -1 0  4.349999999999152 -1 0  4.399999999999261 -1 0  4.44999999999933 -1 0  4.499999999999385 -1 0  4.549999999999446 -1 0  4.599999999999508 -1 0  4.649999999999633 -1 0  4.699999999999632 -1 0  4.749999999999723 -1 0  4.799999999999754 -1 0  4.849999999999801 -1 0  4.899999999999876 -1 0  4.949999999999925 -1 0  5 -0.950000000000111 0  5 -0.9000000000002774 0  5 -0.8500000000004283 0  5 -0.8000000000005548 0  5 -0.7500000000006787 0  5 -0.7000000000008322 0  5 -0.6500000000009709 0  5 -0.6000000000011096 0  5 -0.5500000000012484 0  5 -0.500000000001387 0  5 -0.4500000000015256 0  5 -0.4000000000016644 0  5 -0.3500000000018031 0  5 -0.3000000000019418 0  5 -0.2500000000020806 0  5 -0.2000000000022192 0  5 -0.1500000000023578 0  5 -0.1000000000024964 0  5 -0.05000000000262439 0  5 -2.752242878045763e-12 0  5 0.0499999999973757 0  5 0.09999999999750342 0  5 0.1499999999976422 0  5 0.1999999999977808 0  5 0.2499999999979194 0  5 0.2999999999980583 0  5 0.3499999999981969 0  5 0.3999999999983355 0  5 0.4499999999984743 0  5 0.4999999999986129 0  5 0.5499999999987515 0  5 0.5999999999988903 0  5 0.6499999999990291 0  5 0.699999999999168 0  5 0.7499999999993068 0  5 0.7999999999994454 0  5 0.849999999999584 0  5 0.8999999999997226 0  5 0.9499999999998612 0  4.949999999999965 1 0  4.899999999999877 1 0  4.849999999999826 1 0  4.799999999999754 1 0  4.749999999999695 1 0  4.69999999999963 1 0  4.649999999999565 1 0  4.599999999999507 1 0  4.549999999999454 1 0  4.499999999999384 1 0  4.449999999999317 1 0  4.399999999999261 1 0  4.349999999999206 1 0  4.299999999999137 1 0  4.249999999999075 1 0  4.199999999999013 1 0  4.149999999998934 1 0  4.09999999999889 1 0  4.049999999998847 1 0  3.999999999998767 1 0  3.949999999998706 1 0  3.899999999998644 1 0  3.849999999998594 1 0  3.799999999998552 1 0  3.749999999998549 1 0  3.699999999998651 1 0  3.649999999998804 1 0  3.59999999999894 1 0  3.549999999999097 1 0  3.499999999999261 1 0  3.449999999999394 1 0  3.399999999999582 1 0  3.349999999999742 1 0  3.299999999999902 1 0  3.25000000000006 1 0  3.200000000000223 1 0  3.150000000000369 1 0  3.100000000000544 1 0  3.050000000000704 1 0  3.000000000000864 1 0  2.950000000001029 1 0  2.900000000001185 1 0  2.850000000001347 1 0  2.800000000001506 1 0  2.750000000001665 1 0  2.700000000001827 1 0  2.650000000001979 1 0  2.600000000002148 1 0  2.550000000002311 1 0  2.500000000002468 1 0  2.450000000002635 1 0  2.400000000002789 1 0  2.35000000000295 1 0  2.30000000000311 1 0  2.250000000003253 1 0  2.200000000003431 1 0  2.150000000003601 1 0  2.100000000003752 1 0  2.050000000003922 1 0  2.000000000004072 1 0  1.950000000004237 1 0  1.900000000004393 1 0  1.850000000004541 1 0  1.800000000004714 1 0  1.750000000004886 1 0  1.700000000005035 1 0  1.650000000005206 1 0  1.600000000005355 1 0  1.550000000005516 1 0  1.500000000005676 1 0  1.450000000005824 1 0  1.400000000005996 1 0  1.350000000006146 1 0  1.300000000006318 1 0  1.250000000006505 1 0  1.200000000006638 1 0  1.150000000006797 1 0  1.100000000006959 1 0  1.050000000007106 1 0  1.000000000007245 1 0  0.9500000000072193 1 0  0.9000000000072612 1 0  0.8500000000071966 1 0  0.8000000000071381 1 0  0.750000000007085 1 0  0.700000000007015 1 0  0.6500000000069521 1 0  0.6000000000068919 1 0  0.5500000000068104 1 0  0.5000000000067688 1 0  0.4500000000067104 1 0  0.4000000000066457 1 0  0.3500000000065757 1 0  0.3000000000065226 1 0  0.2500000000064961 1 0  0.2000000000063995 1 0  0.1500000000063775 1 0  0.1000000000062764 1 0  0.0500000000062597 1 0  6.153300091682468e-12 1 0  -0.04999999999390781 1 0  -0.09999999999396891 1 0  -0.14999999999403 1 0  -0.1999999999940929 1 0  -0.2499999999941318 1 0  -0.299999999994216 1 0  -0.349999999994254 1 0  -0.3999999999943391 1 0  -0.4499999999944038 1 0  -0.4999999999944613 1 0  -0.5499999999945429 1 0  -0.5999999999945853 1 0  -0.6499999999946606 1 0  -0.6999999999947084 1 0  -0.7499999999947651 1 0  -0.7999999999948315 1 0  -0.8499999999948926 1 0  -0.8999999999949537 1 0  -0.9499999999950148 1 0  -0.9999999999950768 1 0  -1.049999999995139 1 0  -1.0999999999952 1 0  -1.149999999995266 1 0  -1.199999999995324 1 0  -1.249999999995385 1 0  -1.299999999995446 1 0  -1.349999999995488 1 0  -1.399999999995569 1 0  -1.449999999995604 1 0  -1.499999999995692 1 0  -1.549999999995753 1 0  -1.599999999995816 1 0  -1.649999999995892 1 0  -1.699999999995939 1 0  -1.749999999996017 1 0  -1.799999999996063 1 0  -1.849999999996111 1 0  -1.899999999996185 1 0  -1.949999999996246 1 0  -1.999999999996308 1 0  -2.049999999996351 1 0  -2.099999999996431 1 0  -2.149999999996504 1 0  -2.199999999996555 1 0  -2.249999999996616 1 0  -2.299999999996677 1 0  -2.349999999996736 1 0  -2.3999999999968 1 0  -2.449999999996847 1 0  -2.499999999996923 1 0  -2.549999999997 1 0  -2.599999999997047 1 0  -2.649999999997093 1 0  -2.69999999999717 1 0  -2.749999999997245 1 0  -2.799999999997293 1 0  -2.849999999997344 1 0  -2.899999999997416 1 0  -2.949999999997469 1 0  -2.999999999997539 1 0  -3.049999999997576 1 0  -3.099999999997662 1 0  -3.149999999997725 1 0  -3.199999999997784 1 0  -3.249999999997829 1 0  -3.29999
[...]
<PointData  Vectors="(h, u)"> 
<DataArray  type="Float64"  Name="(h, u)"  NumberOfComponents="3" format="ascii">5.2743883625374828e+00 0.0000000000000000e+00 0.0000000000000000e+00  9.4826072217811568e+00 0.0000000000000000e+00 0.0000000000000000e+00  9.5063367289641310e+00 0.0000000000000000e+00 0.0000000000000000e+00  5.2786588213554939e+00 0.0000000000000000e+00 0.0000000000000000e+00  5.2857210256120224e+00 6.5644242452109536e-02 0.0000000000000000e+00  5.2741936748899780e+00 1.6235788890460187e-01 0.0000000000000000e+00  5.2833638819917264e+00 2.0971212288799781e-01 0.0000000000000000e+00  5.2726342620357203e+00 2.7782012614393725e-01 0.0000000000000000e+00  5.2842610574516584e+00 3.7196726382981465e-01 0.0000000000000000e+00  5.2742881705573330e+00 4.5077563823848582e-01 0.0000000000000000e+00  5.2790171011773861e+00 4.9972096060468368e-01 0.0000000000000000e+00  5.2697546184090553e+00 6.1296762561025686e-01 0.0000000000000000e+00  5.2828784357306509e+00 6.4964109896836952e-01 0.0000000000000000e+00  5.2629306967427398e+00 7.2448990912812916e-01 0.0000000000000000e+00  5.2786253647353076e+00 8.0481941775809884e-01 0.0000000000000000e+00  5.2683116048379892e+00 9.0320151805615534e-01 0.0000000000000000e+00  5.2694840044960456e+00 8.8388047930749336e-01 0.0000000000000000e+00  5.2619349771489325e+00 1.1100373751245063e+00 0.0000000000000000e+00  5.2769077738895271e+00 1.0294641685744348e+00 0.0000000000000000e+00  5.2511119498020049e+00 1.1909487061481865e+00 0.0000000000000000e+00  5.2682154589212660e+00 1.2416876758714184e+00 0.0000000000000000e+00  5.2611440081492145e+00 1.3380000372498464e+00 0.0000000000000000e+00  5.2558156723063592e+00 1.3212985581447734e+00 0.0000000000000000e+00  5.2498813169839442e+00 1.5068165561604985e+00 0.0000000000000000e+00  5.2686148562394495e+00 1.5556900257412571e+00 0.0000000000000000e+00  5.2355889798746862e+00 1.5011821955844733e+00 0.0000000000000000e+00  5.2559993015599993e+00 1.7595932672141021e+00 0.0000000000000000e+00  5.2496015964628482e+00 1.7453860831164330e+00 0.0000000000000000e+00  5.2407515236763471e+00 1.7381144099040824e+00 0.0000000000000000e+00  5.2355327716973079e+00 1.9752160265111407e+00 0.0000000000000000e+00  5.2546501872649509e+00 1.9262667861636114e+00 0.0000000000000000e+00  5.2209167809722485e+00 2.0068900221719339e+00 0.0000000000000000e+00  5.2372057720559706e+00 2.1681568382046525e+00 0.0000000000000000e+00  5.2367501101411129e+00 2.1129972537498989e+00 0.0000000000000000e+00  5.2201497461770465e+00 2.2668648483547034e+00 0.0000000000000000e+00  5.2191534477998145e+00 2.3541388467562965e+00 0.0000000000000000e+00  5.2339324101971112e+00 2.3351242626549262e+00 0.0000000000000000e+00  5.2033485013250216e+00 2.4828997968833906e+00 0.0000000000000000e+00  5.2130391013040365e+00 2.5622437642422740e+00 0.0000000000000000e+00  5.2181094705850661e+00 2.5617452553309423e+00 0.0000000000000000e+00  5.1948451844163470e+00 2.6999366829970310e+00 0.0000000000000000e+00  5.1981499318231190e+00 2.7513052357621435e+00 0.0000000000000000e+00  5.2054026816983692e+00 2.8153324133935711e+00 0.0000000000000000e+00  5.1828924075557943e+00 2.8856614977730559e+00 0.0000000000000000e+00  5.1818284482592132e+00 2.9631683884683175e+00 0.0000000000000000e+00  5.1935343056186678e+00 3.0539707955237536e+00 0.0000000000000000e+00  5.1655496185380638e+00 3.0678364483444041e+00 0.0000000000000000e+00  5.1702082151042310e+00 3.1910379115072658e+00 0.0000000000000000e+00  5.1722837787028073e+00 3.2641700702258225e+00 0.0000000000000000e+00  5.1569223596748106e+00 3.2715574220261612e+00 0.0000000000000000e+00  5.1450568854699021e+00 3.4124017785705290e+00 0.0000000000000000e+00  5.1632006411961040e+00 3.4566112511160267e+00 0.0000000000000000e+00  5.1325473118616056e+00 3.5024443769403346e+00 0.0000000000000000e+00  5.1340615134163841e+00 3.5918635393564742e+00 0.0000000000000000e+00  5.1358483537415287e+00 3.6931410862138403e+00 0.0000000000000000e+00  5.1239510990114514e+00 3.6870575234250840e+00 0.0000000000000000e+00  5.1036869739572177e+00 3.8067643230809214e+00 0.0000000000000000e+00  5.1235401285490818e+00 3.9043031914620316e+00 0.0000000000000000e+00  5.0955629479869113e+00 3.8765281853640579e+00 0.0000000000000000e+00  5.0895651642284090e+00 4.0333028377310312e+00 0.0000000000000000e+00  5.0919140864500392e+00 4.0845536123611819e+00 0.0000000000000000e+00  5.0805320574526585e+00 4.0989972171079838e+00 0.0000000000000000e+00  5.0593625592355194e+00 4.2259924303380236e+00 0.0000000000000000e+00  5.0732300525541874e+00 4.2807243330477709e+00 0.0000000000000000e+00  5.0480038424360858e+00 4.3115187799775150e+00 0.0000000000000000e+00  5.0415185232614670e+00 4.4163207867823671e+00 0.0000000000000000e+00  5.0404530150529103e+00 4.4709006154880404e+00 0.0000000000000000e+00  5.0209145703539448e+00 4.5302410913943190e+00 0.0000000000000000e+00  5.0132761891819566e+00 4.5891370996789185e+00 0.0000000000000000e+00  5.0119009251061915e+00 4.6756761043898152e+00 0.0000000000000000e+00  4.9822641170648359e+00 4.7289042737927636e+00 0.0000000000000000e+00  4.9878247494171442e+00 4.7747967216736811e+00 0.0000000000000000e+00  4.9813672058228962e+00 4.8565829546165888e+00 0.0000000000000000e+00  4.9410297436344823e+00 4.9352392833411267e+00 0.0000000000000000e+00  4.9598626375717876e+00 4.9510391558384166e+00 0.0000000000000000e+00  4.9448286773527670e+00 5.0339771295798341e+00 0.0000000000000000e+00  4.9103770174786794e+00 5.1322862057290966e+00 0.0000000000000000e+00  4.9121527809020851e+00 5.1219741410971737e+00 0.0000000000000000e+00  4.9220986682861385e+00 5.2159443667686203e+00 0.0000000000000000e+00  4.8692578606638675e+00 5.3022930444819014e+00 0.0000000000000000e+00  4.8747391824537729e+00 5.2986863410441520e+00 0.0000000000000000e+00  4.8663130713805565e+00 5.4153619307634147e+00 0.0000000000000000e+00  4.8579344865189418e+00 5.4305749165462185e+00 0.0000000000000000e+00  4.8046471147301810e+00 5.5044227750949206e+00 0.0000000000000000e+00  4.8220396888146970e+00 5.5939437775800984e+00 0.0000000000000000e+00  4.8112516437386272e+00 5.5879707607867726e+00 0.0000000000000000e+00  4.7645661302568136e+00 5.6668345859433344e+00 0.0000000000000000e+00  4.7564473879817077e+00 5.7827449143113290e+00 0.0000000000000000e+00  4.7510831382024117e+00 5.7566817141235385e+00 0.0000000000000000e+00  4.7189405340570207e+00 5.8284225976797366e+00 0.0000000000000000e+00  4.7054664666934434e+00 5.9336903911785548e+00 0.0000000000000000e+00  4.6810399235969795e+00 5.9414333845495033e+00 0.0000000000000000e+00  4.6498548049908166e+00 5.9891526913277371e+00 0.0000000000000000e+00  4.6626493084813347e+00 6.1010101360080711e+00 0.0000000000000000e+00  4.5982273591478968e+00 6.0689726640969912e+00 0.0000000000000000e+00  4.6087704530453575e+00 6.1876776533243003e+00 0.0000000000000000e+00  4.5888021053423920e+00 6.1889125639807014e+00 0.0000000000000000e+00  4.5834469960181670e+00 6.2114321781742126e+00 0.0000000000000000e+00  4.4957059844773086e+00 6.3607573958933816e+00 0.0000000000000000e+00  4.5531224928085878e+00 6.3190989421614931e+00 0.0000000000000000e+00  4.4740099583128394e+00 6.3962724164708114e+00 0.0000000000000000e+00  4.4506975631394328e+00 6.5006471690289978e+00 0.0000000000000000e+00  4.4617575198299377e+00 6.4484128091562170e+00 0.0000000000000000e+00  4.4484984542194033e+00 6.5293376561723235e+00 0.0000000000000000e+00  4.3386629970534498e+00 6.6390092695095975e+00 0.0000000000000000e+00  4.3637247779222426e+00 6.6707321176542269e+00 0.0000000000000000e+00  4.3440498909777521e+00 6.6823791432855444e+00 0.0000000000000000e+00  4.3025571559857037e+00 6.7355390380925533e+00 0.0000000000000000e+00  4.2947151013008540e+00 6.7904902607795421e+00 0.0000000000000000e+00  4.2967253837846719e+00 6.7887007691263053e+00 0.0000000000000000e+00  4.2646665423274079e+00 6.7984778988227363e+00 0.0000000000000000e+00  4.2081757386271317e+00 6.9755810530241611e+00 0.0000000000000000e+00  4.1935505464338743e+00 6.9127959936187846e+00 0.0000000000000000e+00  4.1809938839808680e+00 6.9919119738299367e+00 0.0000000000000000e+00  4.2022658365208763e+00 6.9544893842043107e+00 0.0000000000000000e+00  4.1046102740863484e+00 7.0988054427086364e+00 0.0000000000000000e+00  4.0877409876756543e+00 7.1040022227151471e+00 0.0000000000000000e+00  4.0402093764238591e+00 7.2393004843111379e+00 0.0000000000000000e+00  4.0781662012238060e+00 7.0989224752133948e+00 0.0000000000000000e+00  4.0615081974664049e+00 7.2110547900192268e+00 0.0000000000000000e+00  4.0082033781288198e+00 7.2409170394909026e+00 0.0000000000000000e+00  3.9750580499369219e+00 7.3294043665785633e+00 0.0000000000000000e+00  3.9391306718225190e+00 7.3396440666707941e+00 0.0000000000000000e+00  3.9106331895651669e+00 7.4332056802660134e+00 0.0000000000000000e+00  3.8920316755073929e+00 7.4387605784611699e+00 0.0000000000000000e+00  3.9287449470743101e+00 7.3662781126722585e+00 0.0000000000000000e+00  3.7917235630136372e+00 7.6340673391680598e+00 0.0000000000000000e+00  3.8336901381643291e+00 7.4901922166338277e+00 0.0000000000000000e+00  3.7379919189506250e+00 7.7218975670485044e+00 0.0000000000000000e+00  3.8404680322497984e+00 7.5474009121749122e+00 0.0000000000000000e+00  3.7600009576225490e+00 7.6606706958848090e+00 0.0000000000000000e+00  3.7844800477908747e+00 7.5891376197986844e+00 0.0000000000000000e+00  3.9741828144638460e+00 7.3291687147204057e+00 0.0000000000000000e+00  3.9769575988537351e+00 7.2992036891435728e+00 0.0000000000000000e+00  4.0352587478937432e+00 7.2353657756903944e+00 0.0000000000000000e+00  3.9978470398220551e+00 7.2808605312140058e+00 0.0000000000000000e+00  3.9940672397035426e+00 7.2967745265638815e+00 0.0000000000000000e+00  3.9405891623139100e+00 7.3535825401907946e+00 0.0000000000000000e+00  3.9055093789345356e+00 7.4260897528158276e+00 0.0000000000000000e+00  4.0164145301043375e+00 7.2643004435637160e+00 0.0000000000000000e+00  3.9750212859263487e+00 7.3014574422789496e+00 0.0000000000000000e+00  3.9042121226517446e+00 7.4417257069611704e+00 0.0000000000000000e+00  3.9871729332117725e+00 7.2678636857705543e+00 0.0000000000000000e+00  3.9570809538891374e+00 7.3755864436956653e+00 0.0000000000000000e+00  3.9404942426634624e+00 7.3371844282777410e+00 0.0000000000000000e+00  3.9873531617000304e+00 7.3275342112264683e+00 0.0000000000000000e+00  3.9414232134312970e+00 7.3346528232883728e+00 0.0000000000000000e+00  3.9969210981372645e+00 7.3133446439311127e+00 0.0000000000000000e+00  3.9480301976152683e+00 7.3375218267985112e+00 0.0000000000000000e+00  3.9629316070160132e+00 7.3322025060425542e+00 0.0000000000000000e+00  3.9612767947170195e+00 7.3420814108225496e+00 0.0000000000000000e+00  3.9423336561396849e+00 7.3521494112068586e+00 0.0000000000000000e+00  3.9524184198667798e+00 7.3434300645109793e+00 0.0000000000000000e+00  3.9648909693667882e+00 7.3247669168205460e+00 0.0000000000000000e+00  3.9540803918928029e+00 7.3446602985801031e+00 0.0000000000000000e+00  3.9567146382320515e+00 7.3282575050295122e+00 0.0000000000000000e+00  3.9668909908995746e+00 7.3376002545206438e+00 0.0000000000000000e+00  3.9660824926000640e+00 7.3125991531693479e+00 0.0000000000000000e+00  3.9494612431867737e+00 7.3531885353262547e+00 0.0000000000000000e+00  3.9364323412638220e+00 7.3634038142807601e+00 0.0000000000000000e+00  3.9843186301828761e+00 7.3009328366348027e+00 0.0000000000000000e+00  3.9705926366104149e+00 7.3079729159106996e+00 0.0000000000000000e+00  3.9449442596924831e+00 7.3917216228534270e+00 0.0000000000000000e+00  3.9519237079515279e+00 7.2935281622321515e+00 0.0000000000000000e+00  3.9689464806852510e+00 7.2735344120911183e+00 0.0000000000000000e+00  3.9173781225170901e+00 7.5985470021423893e+00 0.0000000000000000e+00  4.0437847027042304e+00 7.0822585983987718e+00 0.0000000000000000e+00  4.4857919187714872e+00 5.9888763057014964e+00 0.0000000000000000e+00  1.0075424261880576e+01 -4.5913079096007203e-01 0.0000000000000000e+00  9.0156837223660720e+00 4.9146835674267814e-01 0.0000000000000000e+00  9.6039393236799686e+00 -1.1079858561411257e-01 0.0000000000000000e+00  9.4535889481960673e+00 4.3927452746122087e-02 0.0000000000000000e+00  9.4342346455461907e+00 5.1698360968751855e-02 0.0000000000000000e+00  9.5207401317286475e+00 -3.2610945806653961e-02 0.0000000000000000e+00  9.4295857053307337e+00 7.3205317744037018e-02 0.0000000000000000e+00  9.4956940476076568e+00 -1.2238646701321389e-02 0.0000000000000000e+00  9.4620365543311227e+00 4.6049372005508897e-02 0.0000000000000000e+00  9.4867902356153468e+00 8.0895293468854906e-03 0.0000000000000000e+00  9.4685814607287373e+00 2.5304854772323988e-02 0.0000000000000000e+00  9.4832552476360163e+00 2.0114273965479358e-02 0.0000000000000000e+00  9.4786640448512323e+00 4.0762137318637787e-02 0.0000000000000000e+00  9.4788544359577624e+00 8.9423018905664142e-04 0.0000000000000000e+00  9.4808225033603932e+00 2.5491240833482302e-02 0.0000000000000000e+00  9.4844034450213375e+00 1.1087297528592367e-02 0.0000000000000000e+00  9.4713688427448393e+00 1.4524685243250532e-02 0.0000000000000000e+00  9.4871061789733222e+00 1.1832822070948414e-02 0.0000000000000000e+00  9.4796156430104013e+00 1.4792462180462481e-02 0.0000000000000000e+00  9.4758822226328174e+00 3.4077411466353976e-03 0.0000000000000000e+00  9.4798846082832053e+00 1.2006528720901875e-02 0.0000000000000000e+00  9.4847558539924179e+00 1.4217730404596207e-02 0.0000000000000000e+00  9.4709670439584546e+00 2.7921823387211100e-03 0.0000000000000000e+00  9.4838204819852034e+00 2.7185287913764376e-02 0.0000000000000000e+00  9.4788113490552366e+00 5.6120611896173910e-03 0.0000000000000000e+00  9.4771401830129509e+00 2.4921010151497339e-02 0.0000000000000000e+00  9.4797452763578534e+00 1.6118878577006161e-02 0.0000000000000000e+00  9.4836634460072169e+00 1.1997325695620781e-02 0.0000000000000000e+00  9.4759796273303056e+00 6.8652219060958098e-03 0.0000000000000000e+00  9.4842998131620870e+00 -5.2494787772287823e-03 0.0000000000000000e+00  9.4826758972729728e+00 2.9702613322463423e-02 0.0000000000000000e+00  9.4803905817076028e+00 -6.7024130108047697e-02 0.0000000000000000e+00  9.4819466858004624e+00 1.8235897892300311e-02 0.0000000000000000e+00  9.4852802718735720e+00 -5.1439425524996488e-02 0.0000000000000000e+00  9.4768525904843361e+00 -1.8212744167237768e-01 0.0000000000000000e+00  9.4748187901292802e+00 0.0000000000000000e+00 -6.8796825867941322e-02  9.4837071245215814e+00 0.0000000000000000e+00 -3.1717602080455973e-02  9.4802629639620228e+00 0.0000000000000000e+00 -3.4105465910450258e-02  9.4841748280686478e+00 0.0000000000000000e+00 -1.0042000223759555e-01  9.4770354929731209e+00 0.0000000000000000e+00 2.4478790607892469e-02  9.4916647044372677e+00 0.0000000000000000e+00 6.7496240590044318e-02  9.4821633108964782e+00 0.0000000000000000e+00 -8.7630171947591703e-03  9.4940781279589892e+00 0.0000000000000000e+00 -1.2266171756455221e-01  9.4849498450000098e+00 0.0000000000000000e+00 -1.0458297247018196e-01  9.5009167516185666e+00 0.0000000000000000e+00 1.4972812298754845e-01  9.4856775043221369e+00 0.0000000000000000e+00 -2.9615828268334247e-02  9.5100840532792859e+00 0.0000000000000000e+00 1.9489711400766557e-03  9.4891785727872211e+00 0.0000000000000000e+00 -6.2541370970899179e-02  9.5117960868489160e+00 0.0000000000000000e+00 -4.1699999267239031e-02  9.4985680992015578e+00 0.0000000000000000e+00 -8.4506487953065201e-02  9.5112062710409031e+00 0.0000000000000000e+00 -1.7042213089225949e-01  9.4955350888577748e+00 0.0000000000000000e+00 -1.2241227954457692e-01  9.5132172627365250e+00 0.0000000000000000e+00 -2.8482698925741734e-01  9.5003732167755484e+00 0.0000000000000000e+00 5.1673413905475828e-02  9.5158719555519209e+00 0.0000000000000000e+00 7.9501955968313109e-02  9.4988215644208545e+00 0.0000000000000000e+00 -8.3604963826875114e-02  9.5096700407494659e+00 0.0000000000000000e+00 -2.1279878432742452e-01  9.5025762504430169e+00 0.0000000000000000e+00 -3.6026149525105911e-02  9.5151540414327780e+00 0.0000000000000000e+00 2.2133344304340286e-01  9.4978921244203676e+00 0.0000000000000000e+00 -3.6808249953668134e-03  9.5103473805041610e+00 0.0000000000000000e+00 5.7267780214491151e-02  9.5040355983393088e+00 0.0000000000000000e+00 -2.8572085633944808e-03  9.5151830467094687e+00 0.0000000000000000e+00 -1.1791524130925114e-01  9.4975674700983035e+00 0.0000000000000000e+00 -1.0337593020742056e-01  9.5173797689973760e+00 0.0000000000000000e+00 6.7517124245846022e-02  9.5036814626929313e+00 0.0000000000000000e+00 -2.9303254416104162e-02  9.5102972642168044e+00 0.0000000000000000e+00 -1.5255831432246339e-01  9.5036578554470985e+00 0.0000000000000000e+00 -3.7095632129831073e-02  9.5109509538604406e+00 0.0000000000000000e+00 -1.2676517425006353e-01  9.4984484629357571e+00 0.0000000000000000e+00 -1.0661956762477080e-01  9.5113581850540090e+00 0.0000000000000000e+00 -1.3161980460868694e-01  9.5015322613694746e+00 0.0000000000000000e+00 -1.4474470847477580e-01  9.5065871266180402e+00 0.0000000000000000e+00 -2.2373463202134669e-01  9.5115672839941521e+00 0.0000000000000000e+00 1.6877103842528288e-02  9.5125908194810478e+00 -3.7155507781965502e-01 0.0000000000000000e+00  9.5035987652699916e+00 -4.0218457325206647e-01 0.0000000000000000e+00  9.5031911203985153e+00 -2.2617956222344981e-01 0.0000000000000000e+00  9.5205085790393795e+00 -3.9496326938485649e-02 0.0000000000000000e+00  9.5156914174877976e+00 -3.0651562237744184e-01 0.0000000000000000e+00  9.4955382771072934e+00 -7.8883350559905452e-01 0.0000000000000000e+00  9.5037788760729232e+00 -3.4510493718556307e-01 0.0000000000000000e+00  9.5013308638670679e+00 -4.9244712161378285e-01 0.0000000000000000e+00  9.5087449718683867e+00 -5.3898231378357209e-01 0.0000000000000000e+00  9.5051106749635359e+00 -3.2123072387205953e-01 0.0000000000000000e+00  9.4928909220421556e+00 -1.8301548555027478e-01 0.0000000000000000e+00  9.5344598657158404e+00 -7.8608420378063537e-02 0.0000000000000000e+00  9.4867489733093961e+00 -4.2903085182675924e-02 0.0000000000000000e+00  9.5212148560482639e+00 1.5466402189510758e-01 0.0000000000000000e+00  9.4980359953845745e+00 7.7285664785403427e-02 0.0000000000000000e+00  9.5073411014820710e+00 1.6901678761615668e-01 0.0000000000000000e+00  9.5043996696058581e+00 8.0337219316298156e-02 0.0000000000000000e+00  9.5109316648063373e+00 2.3943761886623918e-02 0.0000000000000000e+00  9.4796192964960699e+00 -7.3865994555130182e-02 0.0000000000000000e+00  9.5390415848153847e+00 1.0382609462319962e-01 0.0000000000000000e+00  9.4763231035258944e+00 -7.7681371189623399e-02 0.0000000000000000e+00  9.5094680249936410e+00 -7.9885544204613246e-02 0.0000000000000000e+00  9.5120212780307121e+00 -1.0674427548393810e-02 0.0000000000000000e+00  9.5028476223902096e+00 4.6028559015489100e-02 0.0000000000000000e+00  9.4845562767793137e+00 9.2406665287181611e-02 0.0000000000000000e+00  9.5246688510168838e+00 1.0314817610182495e-01 0.0000000000000000e+00  9.5085937400217837e+00 1.4150829872722184e-01 0.0000000000000000e+00  9.4698914232167830e+00 1.7673454740870312e-01 0.0000000000000000e+00  9.5680647049708423e+00 -9.7362600922259845e-02 0.0000000000000000e+00  9.4366314408539314e+00 1.0421709772772865e-01 0.0000000000000000e+00  9.5419422486969427e+00 -2.0322074743957469e-01 0.0000000000000000e+00  9.3970950893088876e+00 1.1094407460690327e-01 0.0000000000000000e+00  9.7918684960005447e+00 -9.7882253666713187e-02 0.0000000000000000e+00  9.0400117950792378e+00 5.3225872694354426e-01 0.0000000000000000e+00  1.0082960781976350e+01 -3.4473894732823746e-01 0.0000000000000000e+00  4.3804495121303759e+00 5.9987278745889157e+00 0.0000000000000000e+00  4.1134511567558540e+00 7.0994116691253568e+00 0.0000000000000000e+00  3.9641382376464338e+00 7.5667157210871627e+00 0.0000000000000000e+00  4.0028882041710467e+00 7.2006979776844000e+00 0.0000000000000000e+00  4.0752882922781399e+00 7.3703430446506051e+00 0.0000000000000000e+00  4.0078989570818360e+00 7.2889948402884350e+00 0.0000000000000000e+00  4.0773510857540387e+