<?xml version="1.0"?>
<VTKFile type="UnstructuredGrid"  version="0.1"  >
<UnstructuredGrid>
<Piece  NumberOfPoints="9509" NumberOfCells="18536">
<Points>
<DataArray  type="Float64"  NumberOfComponents="3"  format="ascii">-5 -1 0  5 -1 0  5 1 0  -5 1 0  -4.949999999999965 -1 0  -4.899999999999877 -1 0  -4.849999999999826 -1 0  -4.799999999999754 -1 0  -4.749999999999695 -1 0  -4.69999999999963 -1 0  -4.649999999999565 -1 0  -4.599999999999507 -1 0  -4.549999999999454 -1 0  -4.499999999999384 -1 0  -4.449999999999317 -1 0  -4.399999999999261 -1 0  -4.349999999999206 -1 0  -4.299999999999137 -1 0  -4.249999999999075 -1 0  -4.199999999999013 -1 0  -4.149999999998934 -1 0  -4.09999999999889 -1 0  -4.049999999998847 -1 0  -3.999999999998767 -1 0  -3.949999999998706 -1 0  -3.899999999998644 -1 0  -3.849999999998594 -1 0  -3.799999999998552 -1 0  -3.749999999998549 -1 0  -3.699999999998651 -1 0  -3.649999999998804 -1 0  -3.59999999999894 -1 0  -3.549999999999097 -1 0  -3.499999999999261 -1 0  -3.449999999999394 -1 0  -3.399999999999582 -1 0  -3.349999999999742 -1 0  -3.299999999999902 -1 0  -3.25000000000006 -1 0  -3.200000000000223 -1 0  -3.150000000000369 -1 0  -3.100000000000544 -1 0  -3.050000000000704 -1 0  -3.000000000000864 -1 0  -2.950000000001029 -1 0  -2.900000000001185 -1 0  -2.850000000001347 -1 0  -2.800000000001506 -1 0  -2.750000000001665 -1 0  -2.700000000001827 -1 0  -2.650000000001979 -1 0  -2.600000000002148 -1 0  -2.550000000002311 -1 0  -2.500000000002468 -1 0  -2.450000000002635 -1 0  -2.400000000002789 -1 0  -2.35000000000295 -1 0  -2.30000000000311 -1 0  -2.250000000003253 -1 0  -2.200000000003431 -1 0  -2.150000000003601 -1 0  -2.100000000003752 -1 0  -2.050000000003922 -1 0  -2.000000000004072 -1 0  -1.950000000004237 -1 0  -1.900000000004393 -1 0  -1.850000000004541 -1 0  -1.800000000004714 -1 0  -1.750000000004886 -1 0  -1.700000000005035 -1 0  -1.650000000005206 -1 0  -1.600000000005355 -1 0  -1.550000000005516 -1 0  -1.500000000005676 -1 0  -1.450000000005824 -1 0  -1.400000000005996 -1 0  -1.350000000006146 -1 0  -1.300000000006318 -1 0  -1.250000000006505 -1 0  -1.200000000006638 -1 0  -1.150000000006797 -1 0  -1.100000000006959 -1 0  -1.050000000007106 -1 0  -1.000000000007245 -1 0  -0.9500000000072193 -1 0  -0.9000000000072612 -1 0  -0.8500000000071966 -1 0  -0.8000000000071381 -1 0  -0.750000000007085 -1 0  -0.700000000007015 -1 0  -0.6500000000069521 -1 0  -0.6000000000068919 -1 0  -0.5500000000068104 -1 0  -0.5000000000067688 -1 0  -0.4500000000067104 -1 0  -0.4000000000066457 -1 0  -0.3500000000065757 -1 0  -0.3000000000065226 -1 0  -0.2500000000064961 -1 0  -0.2000000000063995 -1 0  -0.1500000000063775 -1 0  -0.1000000000062764 -1 0  -0.0500000000062597 -1 0  -6.153300091682468e-12 -1 0  0.04999999999390781 -1 0  0.09999999999396891 -1 0  0.14999999999403 -1 0  0.1999999999940929 -1 0  0.2499999999941318 -1 0  0.299999999994216 -1 0  0.349999999994254 -1 0  0.3999999999943391 -1 0  0.4499999999944038 -1 0  0.4999999999944613 -1 0  0.5499999999945429 -1 0  0.5999999999945853 -1 0  0.6499999999946606 -1 0  0.6999999999947084 -1 0  0.7499999999947651 -1 0  0.7999999999948315 -1 0  0.8499999999948926 -1 0  0.8999999999949537 -1 0  0.9499999999950148 -1 0  0.9999999999950768 -1 0  1.049999999995139 -1 0  1.0999999999952 -1 0  1.149999999995266 -1 0  1.199999999995324 -1 0  1.249999999995385 -1 0  1.299999999995446 -1 0  1.349999999995488 -1 0  1.399999999995569 -1 0  1.449999999995604 -1 0  1.499999999995692 -1 0  1.549999999995753 -1 0  1.599999999995816 -1 0  1.649999999995892 -1 0  1.699999999995939 -1 0  1.749999999996017 -1 0  1.799999999996063 -1 0  1.849999999996111 -1 0  1.899999999996185 -1 0  1.949999999996246 -1 0  1.999999999996308 -1 0  2.049999999996351 -1 0  2.099999999996431 -1 0  2.149999999996504 -1 0  2.199999999996555 -1 0  2.249999999996616 -1 0  2.299999999996677 -1 0  2.349999999996736 -1 0  2.3999999999968 -1 0  2.449999999996847 -1 0  2.499999999996923 -1 0  2.549999999997 -1 0  2.599999999997047 -1 0  2.649999999997093 -1 0  2.69999999999717 -1 0  2.749999999997245 -1 0  2.799999999997293 -1 0  2.849999999997344 -1 0  2.899999999997416 -1 0  2.949999999997469 -1 0  2.999999999997539 -1 0  3.049999999997576 -1 0  3.099999999997662 -1 0  3.149999999997725 -1 0  3.199999999997784 -1 0  3.249999999997829 -1 0  3.299999999997908 -1 0  3.349999999997921 -1 0  3.39999999999803 -1 0  3.4499999999981 -1 0  3.499999999998153 -1 0  3.549999999998214 -1 0  3.599999999998277 -1 0  3.649999999998409 -1 0  3.699999999998401 -1 0  3.749999999998444 -1 0  3.799999999998523 -1 0  3.849999999998602 -1 0  3.899999999998645 -1 0  3.949999999998658 -1 0  3.999999999998769 -1 0  4.049999999998814 -1 0  4.099999999998893 -1 0  4.149999999998883 -1 0  4.199999999999015 -1 0  4.249999999999064 -1 0  4.299999999999137 -1 0  4.349999999999152 -1 0  4.399999999999261 -1 0  4.44999999999933 -1 0  4.499999999999385 -1 0  4.549999999999446 -1 0  4.599999999999508 -1 0  4.649999999999633 -1 0  4.699999999999632 -1 0  4.749999999999723 -1 0  4.799999999999754 -1 0  4.849999999999801 -1 0  4.899999999999876 -1 0  4.949999999999925 -1 0  5 -0.950000000000111 0  5 -0.9000000000002774 0  5 -0.8500000000004283 0  5 -0.8000000000005548 0  5 -0.7500000000006787 0  5 -0.7000000000008322 0  5 -0.6500000000009709 0  5 -0.6000000000011096 0  5 -0.5500000000012484 0  5 -0.500000000001387 0  5 -0.4500000000015256 0  5 -0.4000000000016644 0  5 -0.3500000000018031 0  5 -0.3000000000019418 0  5 -0.2500000000020806 0  5 -0.2000000000022192 0  5 -0.1500000000023578 0  5 -0.1000000000024964 0  5 -0.05000000000262439 0  5 -2.752242878045763e-12 0  5 0.0499999999973757 0  5 0.09999999999750342 0  5 0.1499999999976422 0  5 0.1999999999977808 0  5 0.2499999999979194 0  5 0.2999999999980583 0  5 0.3499999999981969 0  5 0.3999999999983355 0  5 0.4499999999984743 0  5 0.4999999999986129 0  5 0.5499999999987515 0  5 0.5999999999988903 0  5 0.6499999999990291 0  5 0.699999999999168 0  5 0.7499999999993068 0  5 0.7999999999994454 0  5 0.849999999999584 0  5 0.8999999999997226 0  5 0.9499999999998612 0  4.949999999999965 1 0  4.899999999999877 1 0  4.849999999999826 1 0  4.799999999999754 1 0  4.749999999999695 1 0  4.69999999999963 1 0  4.649999999999565 1 0  4.599999999999507 1 0  4.549999999999454 1 0  4.499999999999384 1 0  4.449999999999317 1 0  4.399999999999261 1 0  4.349999999999206 1 0  4.299999999999137 1 0  4.249999999999075 1 0  4.199999999999013 1 0  4.149999999998934 1 0  4.09999999999889 1 0  4.049999999998847 1 0  3.999999999998767 1 0  3.949999999998706 1 0  3.899999999998644 1 0  3.849999999998594 1 0  3.799999999998552 1 0  3.749999999998549 1 0  3.699999999998651 1 0  3.649999999998804 1 0  3.59999999999894 1 0  3.549999999999097 1 0  3.499999999999261 1 0  3.449999999999394 1 0  3.399999999999582 1 0  3.349999999999742 1 0  3.299999999999902 1 0  3.25000000000006 1 0  3.200000000000223 1 0  3.150000000000369 1 0  3.100000000000544 1 0  3.050000000000704 1 0  3.000000000000864 1 0  2.950000000001029 1 0  2.900000000001185 1 0  2.850000000001347 1 0  2.800000000001506 1 0  2.750000000001665 1 0  2.700000000001827 1 0  2.650000000001979 1 0  2.600000000002148 1 0  2.550000000002311 1 0  2.500000000002468 1 0  2.450000000002635 1 0  2.400000000002789 1 0  2.35000000000295 1 0  2.30000000000311 1 0  2.250000000003253 1 0  2.200000000003431 1 0  2.150000000003601 1 0  2.100000000003752 1 0  2.050000000003922 1 0  2.000000000004072 1 0  1.950000000004237 1 0  1.900000000004393 1 0  1.850000000004541 1 0  1.800000000004714 1 0  1.750000000004886 1 0  1.700000000005035 1 0  1.650000000005206 1 0  1.600000000005355 1 0  1.550000000005516 1 0  1.500000000005676 1 0  1.450000000005824 1 0  1.400000000005996 1 0  1.350000000006146 1 0  1.300000000006318 1 0  1.250000000006505 1 0  1.200000000006638 1 0  1.150000000006797 1 0  1.100000000006959 1 0  1.050000000007106 1 0  1.000000000007245 1 0  0.9500000000072193 1 0  0.9000000000072612 1 0  0.8500000000071966 1 0  0.8000000000071381 1 0  0.750000000007085 1 0  0.700000000007015 1 0  0.6500000000069521 1 0  0.6000000000068919 1 0  0.5500000000068104 1 0  0.5000000000067688 1 0  0.4500000000067104 1 0  0.4000000000066457 1 0  0.3500000000065757 1 0  0.3000000000065226 1 0  0.2500000000064961 1 0  0.2000000000063995 1 0  0.1500000000063775 1 0  0.1000000000062764 1 0  0.0500000000062597 1 0  6.153300091682468e-12 1 0  -0.04999999999390781 1 0  -0.09999999999396891 1 0  -0.14999999999403 1 0  -0.1999999999940929 1 0  -0.2499999999941318 1 0  -0.299999999994216 1 0  -0.349999999994254 1 0  -0.3999999999943391 1 0  -0.4499999999944038 1 0  -0.4999999999944613 1 0  -0.5499999999945429 1 0  -0.5999999999945853 1 0  -0.6499999999946606 1 0  -0.6999999999947084 1 0  -0.7499999999947651 1 0  -0.7999999999948315 1 0  -0.8499999999948926 1 0  -0.8999999999949537 1 0  -0.9499999999950148 1 0  -0.9999999999950768 1 0  -1.049999999995139 1 0  -1.0999999999952 1 0  -1.149999999995266 1 0  -1.199999999995324 1 0  -1.249999999995385 1 0  -1.299999999995446 1 0  -1.349999999995488 1 0  -1.399999999995569 1 0  -1.449999999995604 1 0  -1.499999999995692 1 0  -1.549999999995753 1 0  -1.599999999995816 1 0  -1.649999999995892 1 0  -1.699999999995939 1 0  -1.749999999996017 1 0  -1.799999999996063 1 0  -1.849999999996111 1 0  -1.899999999996185 1 0  -1.949999999996246 1 0  -1.999999999996308 1 0  -2.049999999996351 1 0  -2.099999999996431 1 0  -2.149999999996504 1 0  -2.199999999996555 1 0  -2.249999999996616 1 0  -2.299999999996677 1 0  -2.349999999996736 1 0  -2.3999999999968 1 0  -2.449999999996847 1 0  -2.499999999996923 1 0  -2.549999999997 1 0  -2.599999999997047 1 0  -2.649999999997093 1 0  -2.69999999999717 1 0  -2.749999999997245 1 0  -2.799999999997293 1 0  -2.849999999997344 1 0  -2.899999999997416 1 0  -2.949999999997469 1 0  -2.999999999997539 1 0  -3.049999999997576 1 0  -3.099999999997662 1 0  -3.149999999997725 1 0  -3.199999999997784 1 0  -3.249999999997829 1 0  -3.29999
[...]
<PointData  Vectors="(h, u)"> 
<DataArray  type="Float64"  Name="(h, u)"  NumberOfComponents="3" format="ascii">9.9636188494216782e+00 0.0000000000000000e+00 0.0000000000000000e+00  9.9999239345150959e-01 0.0000000000000000e+00 0.0000000000000000e+00  9.9999982699904222e-01 0.0000000000000000e+00 0.0000000000000000e+00  9.9586405963296940e+00 0.0000000000000000e+00 0.0000000000000000e+00  9.9758861613983605e+00 7.7404045396836626e-03 0.0000000000000000e+00  9.9602919896365396e+00 2.4336484497819624e-02 0.0000000000000000e+00  9.9782186297206188e+00 1.8610387421544999e-02 0.0000000000000000e+00  9.9550335111535233e+00 1.2637255730670148e-02 0.0000000000000000e+00  9.9585237397246864e+00 4.1665909308170185e-02 0.0000000000000000e+00  9.9379038324415916e+00 3.4073879971710033e-02 0.0000000000000000e+00  9.9516938634891918e+00 4.2796263862954265e-02 0.0000000000000000e+00  9.9176434607216883e+00 1.1295436225486545e-01 0.0000000000000000e+00  9.9213766425980037e+00 4.8303059330881394e-02 0.0000000000000000e+00  9.8945747273184299e+00 7.7134629634056609e-02 0.0000000000000000e+00  9.8904933676332973e+00 1.5500920036294191e-01 0.0000000000000000e+00  9.8479938695176035e+00 1.1137914763274402e-01 0.0000000000000000e+00  9.8559004867520343e+00 1.3789399660650958e-01 0.0000000000000000e+00  9.8024987853345724e+00 2.1487954466544473e-01 0.0000000000000000e+00  9.7933655813621954e+00 1.9247025539771223e-01 0.0000000000000000e+00  9.7495218968147697e+00 2.1982637119190029e-01 0.0000000000000000e+00  9.7367561965792948e+00 2.9880369112211869e-01 0.0000000000000000e+00  9.6684513972624604e+00 2.9489604392710284e-01 0.0000000000000000e+00  9.6651988348533102e+00 3.2528989770115735e-01 0.0000000000000000e+00  9.6009719407540590e+00 4.0867130573135590e-01 0.0000000000000000e+00  9.5688391286114154e+00 4.1555514107677510e-01 0.0000000000000000e+00  9.5086317370467448e+00 4.5897653441109315e-01 0.0000000000000000e+00  9.4949734782139519e+00 5.3615315855087009e-01 0.0000000000000000e+00  9.3976446604471775e+00 5.6198564649073413e-01 0.0000000000000000e+00  9.3850369048965749e+00 6.1210808901711311e-01 0.0000000000000000e+00  9.3174205419011322e+00 6.8645738913711485e-01 0.0000000000000000e+00  9.2653108694801212e+00 7.2727111386281906e-01 0.0000000000000000e+00  9.1885800385946386e+00 7.8494597158411505e-01 0.0000000000000000e+00  9.1830970382654602e+00 8.5551336760303642e-01 0.0000000000000000e+00  9.0606701547922714e+00 9.0814975015131572e-01 0.0000000000000000e+00  9.0392604599102011e+00 9.7711440080154988e-01 0.0000000000000000e+00  8.9750844834334877e+00 1.0365964711615496e+00 0.0000000000000000e+00  8.9082713920625807e+00 1.1083731645931902e+00 0.0000000000000000e+00  8.8150836152943004e+00 1.1753131757861002e+00 0.0000000000000000e+00  8.8222579395363567e+00 1.2390794316116476e+00 0.0000000000000000e+00  8.6804633165971037e+00 1.3077475172272934e+00 0.0000000000000000e+00  8.6506607040784349e+00 1.3979236256715419e+00 0.0000000000000000e+00  8.5912658801946051e+00 1.4357425189903013e+00 0.0000000000000000e+00  8.5169307714239881e+00 1.5367164241569000e+00 0.0000000000000000e+00  8.4079553958383322e+00 1.6031347895774501e+00 0.0000000000000000e+00  8.4262196862232752e+00 1.6706180223772398e+00 0.0000000000000000e+00  8.2746775133011177e+00 1.7360866677587969e+00 0.0000000000000000e+00  8.2365677114594522e+00 1.8528169812162694e+00 0.0000000000000000e+00  8.1793491141158743e+00 1.8717658714442129e+00 0.0000000000000000e+00  8.1069122349680036e+00 1.9871885811090255e+00 0.0000000000000000e+00  7.9857812710925895e+00 2.0596533929245613e+00 0.0000000000000000e+00  8.0059342789197530e+00 2.1282623217182759e+00 0.0000000000000000e+00  7.8601384782850250e+00 2.1944791795764300e+00 0.0000000000000000e+00  7.8128577648995181e+00 2.3078121063170989e+00 0.0000000000000000e+00  7.7513002590403666e+00 2.3654077329693424e+00 0.0000000000000000e+00  7.6911369359458819e+00 2.4141300298707202e+00 0.0000000000000000e+00  7.5631028140182401e+00 2.5756542676336838e+00 0.0000000000000000e+00  7.5718348402853408e+00 2.5663988445759665e+00 0.0000000000000000e+00  7.4447273624767227e+00 2.7040102572271505e+00 0.0000000000000000e+00  7.3920578460964368e+00 2.7614500546997798e+00 0.0000000000000000e+00  7.3136959809728470e+00 2.8574887892447611e+00 0.0000000000000000e+00  7.2765055194207520e+00 2.9219022528613694e+00 0.0000000000000000e+00  7.1433437132789672e+00 3.0109944520268357e+00 0.0000000000000000e+00  7.1365220119120822e+00 3.1008643439184849e+00 0.0000000000000000e+00  7.0269809979380851e+00 3.1939719478213680e+00 0.0000000000000000e+00  6.9789391354809487e+00 3.2076028096986673e+00 0.0000000000000000e+00  6.8789819837574875e+00 3.3989531053178066e+00 0.0000000000000000e+00  6.8628567314383213e+00 3.4113442790777291e+00 0.0000000000000000e+00  6.7321810548349008e+00 3.4625128836468386e+00 0.0000000000000000e+00  6.7119913654078545e+00 3.6466624916074672e+00 0.0000000000000000e+00  6.6140570462245059e+00 3.6687947977407833e+00 0.0000000000000000e+00  6.5726856128503801e+00 3.6838161515732604e+00 0.0000000000000000e+00  6.4613244802409202e+00 3.9570486758126600e+00 0.0000000000000000e+00  6.4520979423010250e+00 3.8192484011007770e+00 0.0000000000000000e+00  6.3262919486769436e+00 4.0672462870474044e+00 0.0000000000000000e+00  6.2983772396218987e+00 4.0808360083893191e+00 0.0000000000000000e+00  6.2063653275573358e+00 4.1837237109336396e+00 0.0000000000000000e+00  6.1638312417219696e+00 4.2441366008676553e+00 0.0000000000000000e+00  6.0543487060527887e+00 4.3962504109094640e+00 0.0000000000000000e+00  6.0424177988341699e+00 4.3847736426986845e+00 0.0000000000000000e+00  5.9256153659109705e+00 4.5640722643199840e+00 0.0000000000000000e+00  5.8876717246670021e+00 4.5812274450804598e+00 0.0000000000000000e+00  5.8088554505651642e+00 4.7157510909750764e+00 0.0000000000000000e+00  5.7627657271596417e+00 4.7464412491829551e+00 0.0000000000000000e+00  5.6590782743907990e+00 4.9025995704808025e+00 0.0000000000000000e+00  5.6436926440995743e+00 4.9163644154811079e+00 0.0000000000000000e+00  5.5446814212492130e+00 5.0421438260102285e+00 0.0000000000000000e+00  5.4957692899550983e+00 5.1174946752647683e+00 0.0000000000000000e+00  5.4284255373103338e+00 5.2081273794285181e+00 0.0000000000000000e+00  5.3849532485079097e+00 5.2532891861579891e+00 0.0000000000000000e+00  5.2886306717594920e+00 5.4069597234395594e+00 0.0000000000000000e+00  5.2664168095889039e+00 5.4257126409079941e+00 0.0000000000000000e+00  5.1836029258050331e+00 5.5317654296373693e+00 0.0000000000000000e+00  5.1360593024173244e+00 5.6247279567004673e+00 0.0000000000000000e+00  5.0543373705022274e+00 5.7185620949965257e+00 0.0000000000000000e+00  5.0233849652202069e+00 5.7561061410596963e+00 0.0000000000000000e+00  4.9220636413350141e+00 5.9361989063532938e+00 0.0000000000000000e+00  4.8922474457377438e+00 5.9333497739922159e+00 0.0000000000000000e+00  4.8292971054886626e+00 6.0503626562372315e+00 0.0000000000000000e+00  4.7276428603479426e+00 6.2030913519442601e+00 0.0000000000000000e+00  4.6922408536159015e+00 6.2187497803071450e+00 0.0000000000000000e+00  4.7108543672510290e+00 6.2423746296996701e+00 0.0000000000000000e+00  4.4423713511504168e+00 6.5866963449101492e+00 0.0000000000000000e+00  4.5799805072973427e+00 6.4249529811077775e+00 0.0000000000000000e+00  4.5142686684202875e+00 6.4972528693402820e+00 0.0000000000000000e+00  4.4226422887760366e+00 6.6641014950102306e+00 0.0000000000000000e+00  4.3232752187329320e+00 6.7736354383060036e+00 0.0000000000000000e+00  4.2844591283758664e+00 6.8673586832611822e+00 0.0000000000000000e+00  4.2208242626114476e+00 6.9304965351392394e+00 0.0000000000000000e+00  4.2027421490907395e+00 6.9928720526782175e+00 0.0000000000000000e+00  4.1393502234374830e+00 7.0760455714516395e+00 0.0000000000000000e+00  4.0381664770313961e+00 7.2305495821249215e+00 0.0000000000000000e+00  4.0197755171950158e+00 7.2744590557944298e+00 0.0000000000000000e+00  3.8903859466274202e+00 7.4382386340883020e+00 0.0000000000000000e+00  4.0154711222372104e+00 7.3213175223061935e+00 0.0000000000000000e+00  3.8121338759900865e+00 7.5602397154670733e+00 0.0000000000000000e+00  3.8560976684819481e+00 7.5483380979376120e+00 0.0000000000000000e+00  3.7312182754560830e+00 7.7103700698375341e+00 0.0000000000000000e+00  3.5225186964762396e+00 7.9998165427704588e+00 0.0000000000000000e+00  3.8457394130375957e+00 7.5581384281784025e+00 0.0000000000000000e+00  3.8439860678912114e+00 7.5175619501514195e+00 0.0000000000000000e+00  3.9507046492153211e+00 7.3803477166078579e+00 0.0000000000000000e+00  3.8214517252772091e+00 7.5409071335847440e+00 0.0000000000000000e+00  3.9699188341318901e+00 7.3661234268986586e+00 0.0000000000000000e+00  3.8642967192515880e+00 7.4841526565593179e+00 0.0000000000000000e+00  3.9243572270195095e+00 7.4157094566792106e+00 0.0000000000000000e+00  3.9108379511949325e+00 7.4211830048329483e+00 0.0000000000000000e+00  3.9261008039848271e+00 7.4060747930178188e+00 0.0000000000000000e+00  3.9372574853676734e+00 7.3872575897162323e+00 0.0000000000000000e+00  3.9283807592605458e+00 7.4113906929416551e+00 0.0000000000000000e+00  3.8648492099464500e+00 7.4773684987046076e+00 0.0000000000000000e+00  3.8794845041889272e+00 7.4523872229746564e+00 0.0000000000000000e+00  3.9680816420446674e+00 7.3517864137950859e+00 0.0000000000000000e+00  4.0629721771794012e+00 7.2506553133042262e+00 0.0000000000000000e+00  4.1001194369844107e+00 7.2276116347775945e+00 0.0000000000000000e+00  4.0724096422276643e+00 7.2559981584974258e+00 0.0000000000000000e+00  4.0754025262340976e+00 7.2639491666095140e+00 0.0000000000000000e+00  4.0669403750598221e+00 7.2664110312860304e+00 0.0000000000000000e+00  4.0779841736227418e+00 7.2662344938759222e+00 0.0000000000000000e+00  4.0455679367123762e+00 7.2872280181928071e+00 0.0000000000000000e+00  4.0523490317989035e+00 7.2891313477097821e+00 0.0000000000000000e+00  4.0295325493745562e+00 7.3038765849946126e+00 0.0000000000000000e+00  4.0362112332748907e+00 7.3038813322755107e+00 0.0000000000000000e+00  4.0196323527543525e+00 7.3103252750150114e+00 0.0000000000000000e+00  4.0235297259770810e+00 7.3103986359570525e+00 0.0000000000000000e+00  4.0050978897634444e+00 7.3215365514359618e+00 0.0000000000000000e+00  4.0059690683379667e+00 7.3230097811290769e+00 0.0000000000000000e+00  3.9994653709985482e+00 7.3253622925405253e+00 0.0000000000000000e+00  4.0012898457052808e+00 7.3258630016707809e+00 0.0000000000000000e+00  3.9950735045100267e+00 7.3273872034273628e+00 0.0000000000000000e+00  3.9952808445073584e+00 7.3247566720710866e+00 0.0000000000000000e+00  3.9891511988919497e+00 7.3277707355306267e+00 0.0000000000000000e+00  3.9827781774372468e+00 7.3346225429980709e+00 0.0000000000000000e+00  3.9763293666463437e+00 7.3396076714894187e+00 0.0000000000000000e+00  3.9772050987122660e+00 7.3368432412305635e+00 0.0000000000000000e+00  3.9805597473737584e+00 7.3313354826605224e+00 0.0000000000000000e+00  3.9823624838265421e+00 7.3283027183236440e+00 0.0000000000000000e+00  3.9798697401354364e+00 7.3296969014400100e+00 0.0000000000000000e+00  3.9770768073214708e+00 7.3314936291960882e+00 0.0000000000000000e+00  3.9761770875728613e+00 7.3315503520024299e+00 0.0000000000000000e+00  3.9766619798953999e+00 7.3307950523761125e+00 0.0000000000000000e+00  3.9762712435775303e+00 7.3323084649020664e+00 0.0000000000000000e+00  3.9751467673060192e+00 7.3350529971661365e+00 0.0000000000000000e+00  3.9743991351561503e+00 7.3373785964957436e+00 0.0000000000000000e+00  3.9747420178979982e+00 7.3386420292758716e+00 0.0000000000000000e+00  3.9749294981968455e+00 7.3407906081448084e+00 0.0000000000000000e+00  3.9744760567247259e+00 7.3430536987397046e+00 0.0000000000000000e+00  3.9733601922621373e+00 7.3455171471026564e+00 0.0000000000000000e+00  3.9719260437100581e+00 7.3471324535332059e+00 0.0000000000000000e+00  3.9704272010299846e+00 7.3476895044040189e+00 0.0000000000000000e+00  3.9696826705782740e+00 7.3458223168925008e+00 0.0000000000000000e+00  3.9691325608396100e+00 7.3430280435093813e+00 0.0000000000000000e+00  3.9682429747035424e+00 7.3390845827901261e+00 0.0000000000000000e+00  3.9670971653083988e+00 7.3343824074069444e+00 0.0000000000000000e+00  3.9658968858017607e+00 7.3282715618341543e+00 0.0000000000000000e+00  3.9637440205572076e+00 7.3217525545997129e+00 0.0000000000000000e+00  3.9605954242029378e+00 7.3138022202357789e+00 0.0000000000000000e+00  3.9559949120553828e+00 7.3036931792398683e+00 0.0000000000000000e+00  3.9480148921608769e+00 7.2886502308695658e+00 0.0000000000000000e+00  3.9326534840970737e+00 7.2639408937553069e+00 0.0000000000000000e+00  3.9031888542650002e+00 7.2172355241098991e+00 0.0000000000000000e+00  3.8416950604578544e+00 7.1196807761293792e+00 0.0000000000000000e+00  3.7103471721091146e+00 6.9071794830457298e+00 0.0000000000000000e+00  3.4398384853786412e+00 6.4455218377465071e+00 0.0000000000000000e+00  2.9145220373107308e+00 5.4434413331389937e+00 0.0000000000000000e+00  2.0757110013149074e+00 3.4449399662895579e+00 0.0000000000000000e+00  1.1965293455439945e+00 5.9762003706300548e-01 0.0000000000000000e+00  9.9530977247793417e-01 3.0262117595654969e-03 0.0000000000000000e+00  1.0009495177079470e+00 -3.6519088839103366e-03 0.0000000000000000e+00  9.9983004420706567e-01 4.3133072188466972e-04 0.0000000000000000e+00  9.9993678157451948e-01 2.3617635474412676e-04 0.0000000000000000e+00  1.0000704640566134e+00 -2.4986088815728060e-04 0.0000000000000000e+00  9.9995052366826531e-01 1.7342938864499391e-04 0.0000000000000000e+00  1.0000370819133351e+00 -1.2639127689139127e-04 0.0000000000000000e+00  9.9996870301129193e-01 1.0225875174801022e-04 0.0000000000000000e+00  1.0000275749244465e+00 -8.6468060548318447e-05 0.0000000000000000e+00  9.9997577850973607e-01 7.3042141973646458e-05 0.0000000000000000e+00  1.0000207662730083e+00 -5.9916269941432841e-05 0.0000000000000000e+00  9.9998242611665344e-01 4.7983457768122560e-05 0.0000000000000000e+00  1.0000141805541345e+00 -3.6142647338925371e-05 0.0000000000000000e+00  9.9998855941486309e-01 2.8935910301924324e-05 0.0000000000000000e+00  1.0000078273480575e+00 -2.0149144722570953e-05 0.0000000000000000e+00  9.9999305105384506e-01 2.1453930316541013e-05 0.0000000000000000e+00  1.0000040956290874e+00 -9.6022046393507180e-06 0.0000000000000000e+00  1.0000003493544760e+00 0.0000000000000000e+00 -4.3587780547211900e-06  9.9999399348463169e-01 0.0000000000000000e+00 3.9131493763097034e-06  1.0000005876475957e+00 0.0000000000000000e+00 1.1058729891672156e-06  9.9999299229082150e-01 0.0000000000000000e+00 -7.5919405429052046e-06  9.9999924096407977e-01 0.0000000000000000e+00 -1.7718905566010516e-06  9.9999757287721103e-01 0.0000000000000000e+00 -2.9469160472448886e-06  1.0000003669799509e+00 0.0000000000000000e+00 7.2658761488989743e-06  9.9999285251183745e-01 0.0000000000000000e+00 -1.0817087488366246e-05  9.9999976874764140e-01 0.0000000000000000e+00 -1.6202798079645042e-06  1.0000014738966996e+00 0.0000000000000000e+00 -4.7459063890772493e-06  9.9999808084078434e-01 0.0000000000000000e+00 2.2510388084016841e-06  9.9999719592517344e-01 0.0000000000000000e+00 -8.3902684616867216e-06  1.0000044250202327e+00 0.0000000000000000e+00 6.3476840786514305e-06  9.9999896150556833e-01 0.0000000000000000e+00 -1.4448814297448746e-06  9.9999509085464133e-01 0.0000000000000000e+00 7.2310094817257030e-06  1.0000009505900251e+00 0.0000000000000000e+00 -8.7097498541247404e-06  1.0000007791390997e+00 0.0000000000000000e+00 4.5181645632427000e-06  9.9999672540545104e-01 0.0000000000000000e+00 -5.9340985502302563e-06  9.9999931196656544e-01 0.0000000000000000e+00 3.1465997548305723e-07  1.0000026792552645e+00 0.0000000000000000e+00 -7.4881161131170183e-06  9.9999932760837373e-01 0.0000000000000000e+00 8.6058646351724819e-06  9.9999827462869106e-01 0.0000000000000000e+00 -5.5973428506583690e-06  9.9999945767817644e-01 0.0000000000000000e+00 -3.2887800334779640e-08  1.0000014916856919e+00 0.0000000000000000e+00 -3.6737523368723480e-06  9.9999935820538310e-01 0.0000000000000000e+00 3.6192996732168288e-06  9.9999949578464797e-01 0.0000000000000000e+00 -1.1328171653283143e-06  9.9999952486536925e-01 0.0000000000000000e+00 -1.3171616518996387e-07  1.0000001710130375e+00 0.0000000000000000e+00 -7.4856360003017863e-07  9.9999952225608313e-01 0.0000000000000000e+00 1.1868180476471966e-06  9.9999971193944559e-01 0.0000000000000000e+00 -7.4506358072095283e-07  9.9999970419630468e-01 0.0000000000000000e+00 1.7677460762010387e-07  1.0000000140582344e+00 0.0000000000000000e+00 -8.4065101167280273e-07  9.9999976291870085e-01 0.0000000000000000e+00 5.9474000922644396e-07  9.9999992918014136e-01 0.0000000000000000e+00 5.9914301088424624e-08  9.9999966492824743e-01 0.0000000000000000e+00 2.2946309882983980e-07  9.9999961060783205e-01 0.0000000000000000e+00 -2.6652035047051693e-07  9.9999994334036746e-01 0.0000000000000000e+00 -1.2739278072614909e-08  9.9999971906264995e-01 0.0000000000000000e+00 -7.3916187879611424e-07  9.9999999703672671e-01 0.0000000000000000e+00 4.9989545543910696e-07  1.0000002409523199e+00 -5.4583878131570336e-07 0.0000000000000000e+00  9.9999961279166893e-01 1.3059766263919903e-06 0.0000000000000000e+00  1.0000004715697215e+00 -1.2399684947697743e-06 0.0000000000000000e+00  9.9999946653177796e-01 7.1895352129222243e-07 0.0000000000000000e+00  1.0000007518987710e+00 -1.9971032731177154e-06 0.0000000000000000e+00  9.9999856580508240e-01 3.9958909990777214e-06 0.0000000000000000e+00  1.0000021604527689e+00 -2.8457333210200435e-06 0.0000000000000000e+00  9.9999719269628207e-01 2.2376977814506826e-06 0.0000000000000000e+00  1.0000041767747665e+00 -9.7124131677219029e-06 0.0000000000000000e+00  9.9999235320191715e-01 1.2685805014522012e-05 0.0000000000000000e+00  1.0000091795490340e+00 -2.5704065327669564e-05 0.0000000000000000e+00  9.9998034186038709e-01 5.8419937618441653e-05 0.0000000000000000e+00  1.0000307314959154e+00 -9.7617350718036898e-05 0.0000000000000000e+00  1.0000037592285089e+00 -1.9162814624641910e-05 0.0000000000000000e+00  9.9975225326811579e-01 7.5451629518137478e-04 0.0000000000000000e+00  1.0004782649418993e+00 -3.3299966431966314e-03 0.0000000000000000e+00  9.9862999906810124e-01 -2.1483358817691693e-03 0.0000000000000000e+00  1.3185941190187673e+00 1.0354094798573210e+00 0.0000000000000000e+00  2.2651451953638264e+00 3.9363459317316982e+00 0.0000000000000000e+00  3.0423320927426918e+00 5.6684033250675716e+00 0.0000000000000000e+00  3.5147671782172973e+00 6.5101358373033698e+00 0.0000000000000000e+00  3.7462028876010089e+00 6.8945112056369871e+00 0.0000000000000000e+00  3.8531559512592506e+00 7.0285994122527793e+00 0.0000000000000000e+00  3.9107629993404895e+00 7.1246991306713134e+00 0.0000000000000000e+00  3.9266683532956841e+00 7.1235096176886312e+00 0.0000000000000000e+00  3.9566844260520506e+00 7.1167995337969110e+00 0.0000000000000000e+00  3.9334755689012666e+00 7.1279946632599342e+00 0.0000000000000000e+00  3.9490245737148388e+00 7.1271067856908745e+00 0.0000000000000000e+00  3.9555443638350103e+00 7.0682547762299075e+00 0.0000000000000000e+00  3.9529288002507021e+00 7.1182543792280084e+00 0.0000000000000000e+00  3.9267469030605704e+00 7.0443404832700942e+00 0.0000000000000000e+00  3.9567517134435106e+00 7.0455858844130068e+00 0.0000000000000000e+00  3.9596061182357674e+00 7.0982781058854014e+00 0.0000000000000000e+00  3.9394042599455474e+00 7.0801551550834398e+00 0.0000000000000000e+00  3.9790063070482136e+00 7.0776499703950737e+00 0.0000000000000000e+00  3.9407851813273953e+00 7.1689969198453216e+00 0.0000000000000000e+00  3.9326132976459176e+00 6.9778553977068052e+00 0.0000000000000000e+00  3.9690076511351782e+00 7.0966324041410527e+00 0.0000000000000000e+00  3.9397664570017565e+00 7.3203417495525702e+00 0.0000000000000000e+00  3.9479733159158057e+00 7.1902314686128665e+00 0.0000000000000000e+00  3.9554269495395293e+00 7.2098722072040600e+00 0.0000000000000000e+00  3.9530989208698037e+00 7.313105664547