<?xml version="1.0"?>
<VTKFile type="UnstructuredGrid"  version="0.1"  >
<UnstructuredGrid>
<Piece  NumberOfPoints="9509" NumberOfCells="18536">
<Points>
<DataArray  type="Float64"  NumberOfComponents="3"  format="ascii">-5 -1 0  5 -1 0  5 1 0  -5 1 0  -4.949999999999965 -1 0  -4.899999999999877 -1 0  -4.849999999999826 -1 0  -4.799999999999754 -1 0  -4.749999999999695 -1 0  -4.69999999999963 -1 0  -4.649999999999565 -1 0  -4.599999999999507 -1 0  -4.549999999999454 -1 0  -4.499999999999384 -1 0  -4.449999999999317 -1 0  -4.399999999999261 -1 0  -4.349999999999206 -1 0  -4.299999999999137 -1 0  -4.249999999999075 -1 0  -4.199999999999013 -1 0  -4.149999999998934 -1 0  -4.09999999999889 -1 0  -4.049999999998847 -1 0  -3.999999999998767 -1 0  -3.949999999998706 -1 0  -3.899999999998644 -1 0  -3.849999999998594 -1 0  -3.799999999998552 -1 0  -3.749999999998549 -1 0  -3.699999999998651 -1 0  -3.649999999998804 -1 0  -3.59999999999894 -1 0  -3.549999999999097 -1 0  -3.499999999999261 -1 0  -3.449999999999394 -1 0  -3.399999999999582 -1 0  -3.349999999999742 -1 0  -3.299999999999902 -1 0  -3.25000000000006 -1 0  -3.200000000000223 -1 0  -3.150000000000369 -1 0  -3.100000000000544 -1 0  -3.050000000000704 -1 0  -3.000000000000864 -1 0  -2.950000000001029 -1 0  -2.900000000001185 -1 0  -2.850000000001347 -1 0  -2.800000000001506 -1 0  -2.750000000001665 -1 0  -2.700000000001827 -1 0  -2.650000000001979 -1 0  -2.600000000002148 -1 0  -2.550000000002311 -1 0  -2.500000000002468 -1 0  -2.450000000002635 -1 0  -2.400000000002789 -1 0  -2.35000000000295 -1 0  -2.30000000000311 -1 0  -2.250000000003253 -1 0  -2.200000000003431 -1 0  -2.150000000003601 -1 0  -2.100000000003752 -1 0  -2.050000000003922 -1 0  -2.000000000004072 -1 0  -1.950000000004237 -1 0  -1.900000000004393 -1 0  -1.850000000004541 -1 0  -1.800000000004714 -1 0  -1.750000000004886 -1 0  -1.700000000005035 -1 0  -1.650000000005206 -1 0  -1.600000000005355 -1 0  -1.550000000005516 -1 0  -1.500000000005676 -1 0  -1.450000000005824 -1 0  -1.400000000005996 -1 0  -1.350000000006146 -1 0  -1.300000000006318 -1 0  -1.250000000006505 -1 0  -1.200000000006638 -1 0  -1.150000000006797 -1 0  -1.100000000006959 -1 0  -1.050000000007106 -1 0  -1.000000000007245 -1 0  -0.9500000000072193 -1 0  -0.9000000000072612 -1 0  -0.8500000000071966 -1 0  -0.8000000000071381 -1 0  -0.750000000007085 -1 0  -0.700000000007015 -1 0  -0.6500000000069521 -1 0  -0.6000000000068919 -1 0  -0.5500000000068104 -1 0  -0.5000000000067688 -1 0  -0.4500000000067104 -1 0  -0.4000000000066457 -1 0  -0.3500000000065757 -1 0  -0.3000000000065226 -1 0  -0.2500000000064961 -1 0  -0.2000000000063995 -1 0  -0.1500000000063775 -1 0  -0.1000000000062764 -1 0  -0.0500000000062597 -1 0  -6.153300091682468e-12 -1 0  0.04999999999390781 -1 0  0.09999999999396891 -1 0  0.14999999999403 -1 0  0.1999999999940929 -1 0  0.2499999999941318 -1 0  0.299999999994216 -1 0  0.349999999994254 -1 0  0.3999999999943391 -1 0  0.4499999999944038 -1 0  0.4999999999944613 -1 0  0.5499999999945429 -1 0  0.5999999999945853 -1 0  0.6499999999946606 -1 0  0.6999999999947084 -1 0  0.7499999999947651 -1 0  0.7999999999948315 -1 0  0.8499999999948926 -1 0  0.8999999999949537 -1 0  0.9499999999950148 -1 0  0.9999999999950768 -1 0  1.049999999995139 -1 0  1.0999999999952 -1 0  1.149999999995266 -1 0  1.199999999995324 -1 0  1.249999999995385 -1 0  1.299999999995446 -1 0  1.349999999995488 -1 0  1.399999999995569 -1 0  1.449999999995604 -1 0  1.499999999995692 -1 0  1.549999999995753 -1 0  1.599999999995816 -1 0  1.649999999995892 -1 0  1.699999999995939 -1 0  1.749999999996017 -1 0  1.799999999996063 -1 0  1.849999999996111 -1 0  1.899999999996185 -1 0  1.949999999996246 -1 0  1.999999999996308 -1 0  2.049999999996351 -1 0  2.099999999996431 -1 0  2.149999999996504 -1 0  2.199999999996555 -1 0  2.249999999996616 -1 0  2.299999999996677 -1 0  2.349999999996736 -1 0  2.3999999999968 -1 0  2.449999999996847 -1 0  2.499999999996923 -1 0  2.549999999997 -1 0  2.599999999997047 -1 0  2.649999999997093 -1 0  2.69999999999717 -1 0  2.749999999997245 -1 0  2.799999999997293 -1 0  2.849999999997344 -1 0  2.899999999997416 -1 0  2.949999999997469 -1 0  2.999999999997539 -1 0  3.049999999997576 -1 0  3.099999999997662 -1 0  3.149999999997725 -1 0  3.199999999997784 -1 0  3.249999999997829 -1 0  3.299999999997908 -1 0  3.349999999997921 -1 0  3.39999999999803 -1 0  3.4499999999981 -1 0  3.499999999998153 -1 0  3.549999999998214 -1 0  3.599999999998277 -1 0  3.649999999998409 -1 0  3.699999999998401 -1 0  3.749999999998444 -1 0  3.799999999998523 -1 0  3.849999999998602 -1 0  3.899999999998645 -1 0  3.949999999998658 -1 0  3.999999999998769 -1 0  4.049999999998814 -1 0  4.099999999998893 -1 0  4.149999999998883 -1 0  4.199999999999015 -1 0  4.249999999999064 -1 0  4.299999999999137 -1 0  4.349999999999152 -1 0  4.399999999999261 -1 0  4.44999999999933 -1 0  4.499999999999385 -1 0  4.549999999999446 -1 0  4.599999999999508 -1 0  4.649999999999633 -1 0  4.699999999999632 -1 0  4.749999999999723 -1 0  4.799999999999754 -1 0  4.849999999999801 -1 0  4.899999999999876 -1 0  4.949999999999925 -1 0  5 -0.950000000000111 0  5 -0.9000000000002774 0  5 -0.8500000000004283 0  5 -0.8000000000005548 0  5 -0.7500000000006787 0  5 -0.7000000000008322 0  5 -0.6500000000009709 0  5 -0.6000000000011096 0  5 -0.5500000000012484 0  5 -0.500000000001387 0  5 -0.4500000000015256 0  5 -0.4000000000016644 0  5 -0.3500000000018031 0  5 -0.3000000000019418 0  5 -0.2500000000020806 0  5 -0.2000000000022192 0  5 -0.1500000000023578 0  5 -0.1000000000024964 0  5 -0.05000000000262439 0  5 -2.752242878045763e-12 0  5 0.0499999999973757 0  5 0.09999999999750342 0  5 0.1499999999976422 0  5 0.1999999999977808 0  5 0.2499999999979194 0  5 0.2999999999980583 0  5 0.3499999999981969 0  5 0.3999999999983355 0  5 0.4499999999984743 0  5 0.4999999999986129 0  5 0.5499999999987515 0  5 0.5999999999988903 0  5 0.6499999999990291 0  5 0.699999999999168 0  5 0.7499999999993068 0  5 0.7999999999994454 0  5 0.849999999999584 0  5 0.8999999999997226 0  5 0.9499999999998612 0  4.949999999999965 1 0  4.899999999999877 1 0  4.849999999999826 1 0  4.799999999999754 1 0  4.749999999999695 1 0  4.69999999999963 1 0  4.649999999999565 1 0  4.599999999999507 1 0  4.549999999999454 1 0  4.499999999999384 1 0  4.449999999999317 1 0  4.399999999999261 1 0  4.349999999999206 1 0  4.299999999999137 1 0  4.249999999999075 1 0  4.199999999999013 1 0  4.149999999998934 1 0  4.09999999999889 1 0  4.049999999998847 1 0  3.999999999998767 1 0  3.949999999998706 1 0  3.899999999998644 1 0  3.849999999998594 1 0  3.799999999998552 1 0  3.749999999998549 1 0  3.699999999998651 1 0  3.649999999998804 1 0  3.59999999999894 1 0  3.549999999999097 1 0  3.499999999999261 1 0  3.449999999999394 1 0  3.399999999999582 1 0  3.349999999999742 1 0  3.299999999999902 1 0  3.25000000000006 1 0  3.200000000000223 1 0  3.150000000000369 1 0  3.100000000000544 1 0  3.050000000000704 1 0  3.000000000000864 1 0  2.950000000001029 1 0  2.900000000001185 1 0  2.850000000001347 1 0  2.800000000001506 1 0  2.750000000001665 1 0  2.700000000001827 1 0  2.650000000001979 1 0  2.600000000002148 1 0  2.550000000002311 1 0  2.500000000002468 1 0  2.450000000002635 1 0  2.400000000002789 1 0  2.35000000000295 1 0  2.30000000000311 1 0  2.250000000003253 1 0  2.200000000003431 1 0  2.150000000003601 1 0  2.100000000003752 1 0  2.050000000003922 1 0  2.000000000004072 1 0  1.950000000004237 1 0  1.900000000004393 1 0  1.850000000004541 1 0  1.800000000004714 1 0  1.750000000004886 1 0  1.700000000005035 1 0  1.650000000005206 1 0  1.600000000005355 1 0  1.550000000005516 1 0  1.500000000005676 1 0  1.450000000005824 1 0  1.400000000005996 1 0  1.350000000006146 1 0  1.300000000006318 1 0  1.250000000006505 1 0  1.200000000006638 1 0  1.150000000006797 1 0  1.100000000006959 1 0  1.050000000007106 1 0  1.000000000007245 1 0  0.9500000000072193 1 0  0.9000000000072612 1 0  0.8500000000071966 1 0  0.8000000000071381 1 0  0.750000000007085 1 0  0.700000000007015 1 0  0.6500000000069521 1 0  0.6000000000068919 1 0  0.5500000000068104 1 0  0.5000000000067688 1 0  0.4500000000067104 1 0  0.4000000000066457 1 0  0.3500000000065757 1 0  0.3000000000065226 1 0  0.2500000000064961 1 0  0.2000000000063995 1 0  0.1500000000063775 1 0  0.1000000000062764 1 0  0.0500000000062597 1 0  6.153300091682468e-12 1 0  -0.04999999999390781 1 0  -0.09999999999396891 1 0  -0.14999999999403 1 0  -0.1999999999940929 1 0  -0.2499999999941318 1 0  -0.299999999994216 1 0  -0.349999999994254 1 0  -0.3999999999943391 1 0  -0.4499999999944038 1 0  -0.4999999999944613 1 0  -0.5499999999945429 1 0  -0.5999999999945853 1 0  -0.6499999999946606 1 0  -0.6999999999947084 1 0  -0.7499999999947651 1 0  -0.7999999999948315 1 0  -0.8499999999948926 1 0  -0.8999999999949537 1 0  -0.9499999999950148 1 0  -0.9999999999950768 1 0  -1.049999999995139 1 0  -1.0999999999952 1 0  -1.149999999995266 1 0  -1.199999999995324 1 0  -1.249999999995385 1 0  -1.299999999995446 1 0  -1.349999999995488 1 0  -1.399999999995569 1 0  -1.449999999995604 1 0  -1.499999999995692 1 0  -1.549999999995753 1 0  -1.599999999995816 1 0  -1.649999999995892 1 0  -1.699999999995939 1 0  -1.749999999996017 1 0  -1.799999999996063 1 0  -1.849999999996111 1 0  -1.899999999996185 1 0  -1.949999999996246 1 0  -1.999999999996308 1 0  -2.049999999996351 1 0  -2.099999999996431 1 0  -2.149999999996504 1 0  -2.199999999996555 1 0  -2.249999999996616 1 0  -2.299999999996677 1 0  -2.349999999996736 1 0  -2.3999999999968 1 0  -2.449999999996847 1 0  -2.499999999996923 1 0  -2.549999999997 1 0  -2.599999999997047 1 0  -2.649999999997093 1 0  -2.69999999999717 1 0  -2.749999999997245 1 0  -2.799999999997293 1 0  -2.849999999997344 1 0  -2.899999999997416 1 0  -2.949999999997469 1 0  -2.999999999997539 1 0  -3.049999999997576 1 0  -3.099999999997662 1 0  -3.149999999997725 1 0  -3.199999999997784 1 0  -3.249999999997829 1 0  -3.29999
[...]
<PointData  Vectors="(h, u)"> 
<DataArray  type="Float64"  Name="(h, u)"  NumberOfComponents="3" format="ascii">9.9999999999999947e+00 0.0000000000000000e+00 0.0000000000000000e+00  9.9999999999999933e-01 0.0000000000000000e+00 0.0000000000000000e+00  9.9999999999999911e-01 0.0000000000000000e+00 0.0000000000000000e+00  9.9999999999999929e+00 0.0000000000000000e+00 0.0000000000000000e+00  1.0000000000000007e+01 1.6049712381351229e-15 0.0000000000000000e+00  9.9999999999999947e+00 9.7099648359543714e-16 0.0000000000000000e+00  1.0000000000000007e+01 -9.1324267222943800e-16 0.0000000000000000e+00  9.9999999999999929e+00 -5.0668451743108596e-16 0.0000000000000000e+00  1.0000000000000009e+01 -5.1555483579281762e-16 0.0000000000000000e+00  9.9999999999999929e+00 1.8913494494653321e-15 0.0000000000000000e+00  1.0000000000000007e+01 7.5992288344065214e-16 0.0000000000000000e+00  9.9999999999999911e+00 8.3550780229016876e-16 0.0000000000000000e+00  1.0000000000000005e+01 1.4148989187656328e-15 0.0000000000000000e+00  9.9999999999999911e+00 1.0557126594417116e-15 0.0000000000000000e+00  1.0000000000000007e+01 -9.9501060978657828e-16 0.0000000000000000e+00  9.9999999999999893e+00 2.0598425126155704e-15 0.0000000000000000e+00  1.0000000000000009e+01 -1.7380015228739283e-15 0.0000000000000000e+00  9.9999999999999876e+00 8.4574895461463610e-16 0.0000000000000000e+00  1.0000000000000011e+01 -5.1571967128964192e-16 0.0000000000000000e+00  9.9999999999999876e+00 -1.5500473059334395e-15 0.0000000000000000e+00  1.0000000000000014e+01 4.7601175419639562e-15 0.0000000000000000e+00  9.9999999999999805e+00 -7.9277032562766688e-15 0.0000000000000000e+00  1.0000000000000025e+01 9.2957782985139060e-15 0.0000000000000000e+00  9.9999999999999662e+00 -1.9625008409231676e-14 0.0000000000000000e+00  1.0000000000000050e+01 3.1574378624709502e-14 0.0000000000000000e+00  9.9999999999999254e+00 -4.8693106339106559e-14 0.0000000000000000e+00  1.0000000000000110e+01 7.7378011527341139e-14 0.0000000000000000e+00  9.9999999999998384e+00 -1.1664930710764512e-13 0.0000000000000000e+00  1.0000000000000233e+01 1.7154604752411022e-13 0.0000000000000000e+00  9.9999999999996554e+00 -2.5391356525632298e-13 0.0000000000000000e+00  1.0000000000000524e+01 3.8656381615739816e-13 0.0000000000000000e+00  9.9999999999991900e+00 -6.0563240814601478e-13 0.0000000000000000e+00  1.0000000000001252e+01 9.4214691864689345e-13 0.0000000000000000e+00  9.9999999999981064e+00 -1.4304684478600361e-12 0.0000000000000000e+00  1.0000000000002807e+01 2.1222479137592219e-12 0.0000000000000000e+00  9.9999999999958522e+00 -3.1414629548158378e-12 0.0000000000000000e+00  1.0000000000006263e+01 4.7904717228237860e-12 0.0000000000000000e+00  9.9999999999902851e+00 -7.5933652801217098e-12 0.0000000000000000e+00  1.0000000000015119e+01 1.2116417391225666e-11 0.0000000000000000e+00  9.9999999999771898e+00 -1.8654899419435810e-11 0.0000000000000000e+00  1.0000000000032673e+01 2.7116865161011807e-11 0.0000000000000000e+00  9.9999999999552180e+00 -3.7646492326277481e-11 0.0000000000000000e+00  1.0000000000061018e+01 5.2252441435207703e-11 0.0000000000000000e+00  9.9999999999136318e+00 -7.6057397446082733e-11 0.0000000000000000e+00  1.0000000000126867e+01 1.1515901127482812e-10 0.0000000000000000e+00  9.9999999998179128e+00 -1.6915271587474888e-10 0.0000000000000000e+00  1.0000000000236360e+01 2.2242066956131702e-10 0.0000000000000000e+00  9.9999999997377866e+00 -2.4770914818836776e-10 0.0000000000000000e+00  1.0000000000250276e+01 2.3598664209780722e-10 0.0000000000000000e+00  9.9999999997434745e+00 -2.4331794896006648e-10 0.0000000000000000e+00  1.0000000000411497e+01 3.9979438029806496e-10 0.0000000000000000e+00  9.9999999991881818e+00 -8.0129694786579882e-10 0.0000000000000000e+00  1.0000000001290783e+01 1.2816562144027052e-09 0.0000000000000000e+00  9.9999999987260040e+00 -1.2695707784225961e-09 0.0000000000000000e+00  1.0000000000114335e+01 1.2199771288992918e-10 0.0000000000000000e+00  1.0000000001895929e+01 1.8712605276481672e-09 0.0000000000000000e+00  9.9999999974922709e+00 -2.4781803665086878e-09 0.0000000000000000e+00  9.9999999982664463e+00 -1.7287214415309095e-09 0.0000000000000000e+00  1.0000000011408982e+01 1.1327413041463557e-08 0.0000000000000000e+00  9.9999999814343568e+00 -1.8432676284736716e-08 0.0000000000000000e+00  1.0000000006794750e+01 6.7779552619597108e-09 0.0000000000000000e+00  1.0000000033851343e+01 3.3503980051940564e-08 0.0000000000000000e+00  9.9999999207109429e+00 -7.8547378933704750e-08 0.0000000000000000e+00  1.0000000058804634e+01 5.8291151416274991e-08 0.0000000000000000e+00  1.0000000096866083e+01 9.5918554390739287e-08 0.0000000000000000e+00  9.9999996660684456e+00 -3.3078026058127476e-07 0.0000000000000000e+00  1.0000000374094094e+01 3.7065880048029320e-07 0.0000000000000000e+00  1.0000000159879798e+01 1.5822678985380906e-07 0.0000000000000000e+00  9.9999987469859271e+00 -1.2409482394641220e-06 0.0000000000000000e+00  1.0000001913560268e+01 1.8954187282202392e-06 0.0000000000000000e+00  9.9999996470644472e+00 -3.4980477208612829e-07 0.0000000000000000e+00  9.9999957986040648e+00 -4.1606885669811420e-06 0.0000000000000000e+00  1.0000008639987932e+01 8.5570106054115206e-06 0.0000000000000000e+00  9.9999946760510685e+00 -5.2730130284851826e-06 0.0000000000000000e+00  9.9999881078638158e+00 -1.1776657989177227e-05 0.0000000000000000e+00  1.0000035089558292e+01 3.4750774956018096e-05 0.0000000000000000e+00  9.9999654235127302e+00 -3.4242546507295691e-05 0.0000000000000000e+00  9.9999761972096017e+00 -2.3571658559941777e-05 0.0000000000000000e+00  1.0000128436518464e+01 1.2719275782174222e-04 0.0000000000000000e+00  9.9998254193381459e+00 -1.7288964472317173e-04 0.0000000000000000e+00  1.0000002786394544e+01 2.7575083062007118e-06 0.0000000000000000e+00  1.0000417415582184e+01 4.1336422462486867e-04 0.0000000000000000e+00  9.9992442612824171e+00 -7.4841131128260943e-04 0.0000000000000000e+00  1.0000354885126084e+01 3.5143998774621603e-04 0.0000000000000000e+00  1.0001156598478611e+01 1.1453855512139129e-03 0.0000000000000000e+00  9.9971200302078937e+00 -2.8518953543319688e-03 0.0000000000000000e+00  1.0002383989498632e+01 2.3615230792489034e-03 0.0000000000000000e+00  1.0002440172641300e+01 2.4185676896303922e-03 0.0000000000000000e+00  9.9903419579900667e+00 -9.5578080958782594e-03 0.0000000000000000e+00  1.0011167662117037e+01 1.1082053530276912e-02 0.0000000000000000e+00  1.0002126814842407e+01 2.1739763252684222e-03 0.0000000000000000e+00  9.9720167602830880e+00 -2.7522476560595772e-02 0.0000000000000000e+00  1.0041701528321632e+01 4.1860324240496467e-02 0.0000000000000000e+00  9.9876583533136216e+00 -1.0615684770684509e-02 0.0000000000000000e+00  9.9316901697773385e+00 -6.3325352939157864e-02 0.0000000000000000e+00  1.0121270028088926e+01 1.3184997640360333e-01 0.0000000000000000e+00  9.9099774902274174e+00 -5.7930124890572893e-02 0.0000000000000000e+00  9.8437060458234065e+00 -7.5325854467319736e-02 0.0000000000000000e+00  1.0190151353019919e+01 3.8586397098411818e-01 0.0000000000000000e+00  9.5433373898161289e+00 1.5283818254716176e-02 0.0000000000000000e+00  9.3417481762051935e+00 4.1165844603901741e-01 0.0000000000000000e+00  9.2223582061877902e+00 1.5460864824258318e+00 0.0000000000000000e+00  7.3909787330140002e+00 2.2195397766888680e+00 0.0000000000000000e+00  5.3935555235390664e+00 4.8773683261147109e+00 0.0000000000000000e+00  2.3792800651458843e+00 9.5148182248785353e+00 0.0000000000000000e+00  2.9470833329895085e+00 6.1371639220464029e+00 0.0000000000000000e+00  2.0936971209524184e+00 3.7390280663146123e+00 0.0000000000000000e+00  1.1833533487595185e+00 6.4743404927485781e-01 0.0000000000000000e+00  1.0071039913171345e+00 -8.7372380542012115e-02 0.0000000000000000e+00  9.9181237774048103e-01 2.2101977833926416e-02 0.0000000000000000e+00  9.9962634174398945e-01 1.0295607159068272e-03 0.0000000000000000e+00  1.0022853073424272e+00 -7.1575717830501271e-03 0.0000000000000000e+00  9.9860652866990185e-01 4.3658676265357424e-03 0.0000000000000000e+00  1.0003740576374194e+00 -1.1708297499614488e-03 0.0000000000000000e+00  1.0000560384833030e+00 -1.7543321671925242e-04 0.0000000000000000e+00  9.9989417138478498e-01 3.3141660173729434e-04 0.0000000000000000e+00  1.0000515029666524e+00 -1.6128070492654216e-04 0.0000000000000000e+00  9.9998940917019374e-01 3.3166496456740945e-05 0.0000000000000000e+00  9.9999695847525427e-01 9.5247536989049762e-06 0.0000000000000000e+00  1.0000035497331483e+00 -1.1116184154495467e-05 0.0000000000000000e+00  9.9999852490312835e-01 4.6193538619196360e-06 0.0000000000000000e+00  1.0000002288584822e+00 -7.1668284028433209e-07 0.0000000000000000e+00  1.0000001161460093e+00 -3.6371783683536477e-07 0.0000000000000000e+00  9.9999989892456487e-01 3.1652350510003505e-07 0.0000000000000000e+00  1.0000000366369850e+00 -1.1473080785394004e-07 0.0000000000000000e+00  9.9999999613122892e-01 1.2115276490149258e-08 0.0000000000000000e+00  9.9999999632012360e-01 1.1523743765227834e-08 0.0000000000000000e+00  1.0000000025933080e+00 -8.1210938501452477e-09 0.0000000000000000e+00  9.9999999917517823e-01 2.5829778566294600e-09 0.0000000000000000e+00  1.0000000000427287e+00 -1.3380824855998902e-10 0.0000000000000000e+00  1.0000000001035350e+00 -3.2422450731651440e-10 0.0000000000000000e+00  9.9999999993824507e-01 1.9338845324420708e-10 0.0000000000000000e+00  1.0000000000171776e+00 -5.3794645840830232e-11 0.0000000000000000e+00  1.0000000000001905e+00 -5.9694056153944126e-13 0.0000000000000000e+00  9.9999999999732192e-01 8.3881335382866521e-12 0.0000000000000000e+00  1.0000000000013873e+00 -4.3436848070324366e-12 0.0000000000000000e+00  9.9999999999966693e-01 1.0437479298716250e-12 0.0000000000000000e+00  9.9999999999996925e-01 9.3998417286695067e-14 0.0000000000000000e+00  1.0000000000000659e+00 -2.0336420748412193e-13 0.0000000000000000e+00  9.9999999999996980e-01 9.2687008887952756e-14 0.0000000000000000e+00  1.0000000000000062e+00 -1.8416970670747556e-14 0.0000000000000000e+00  1.0000000000000011e+00 -4.3968261624915028e-15 0.0000000000000000e+00  9.9999999999999900e-01 6.0380487387846286e-15 0.0000000000000000e+00  9.9999999999999933e-01 -2.6971587093894276e-15 0.0000000000000000e+00  1.0000000000000007e+00 1.5333077895895732e-17 0.0000000000000000e+00  9.9999999999999967e-01 -9.7588126043421583e-16 0.0000000000000000e+00  1.0000000000000009e+00 6.3707098097800533e-16 0.0000000000000000e+00  9.9999999999999933e-01 7.8130820388361144e-16 0.0000000000000000e+00  1.0000000000000007e+00 -1.4347260429470162e-16 0.0000000000000000e+00  9.9999999999999967e-01 -4.8645554417240389e-16 0.0000000000000000e+00  1.0000000000000002e+00 1.1171768055674544e-15 0.0000000000000000e+00  9.9999999999999933e-01 -8.9785478469600290e-16 0.0000000000000000e+00  1.0000000000000007e+00 -6.2314171360377565e-16 0.0000000000000000e+00  9.9999999999999989e-01 4.2307165596775423e-16 0.0000000000000000e+00  1.0000000000000009e+00 2.9164842703373050e-16 0.0000000000000000e+00  9.9999999999999933e-01 -1.4649193082768998e-16 0.0000000000000000e+00  1.0000000000000002e+00 1.3797976737890617e-16 0.0000000000000000e+00  1.0000000000000000e+00 -3.0783959340031533e-16 0.0000000000000000e+00  1.0000000000000000e+00 3.6703342920737676e-16 0.0000000000000000e+00  1.0000000000000000e+00 5.7732775137388641e-17 0.0000000000000000e+00  1.0000000000000000e+00 4.9272647632452267e-16 0.0000000000000000e+00  9.9999999999999944e-01 -1.0683117941646291e-16 0.0000000000000000e+00  1.0000000000000000e+00 -3.8584542324941521e-17 0.0000000000000000e+00  9.9999999999999956e-01 -5.5086582349069824e-16 0.0000000000000000e+00  1.0000000000000007e+00 -2.7787400908490053e-16 0.0000000000000000e+00  1.0000000000000000e+00 -2.7343418948967230e-16 0.0000000000000000e+00  1.0000000000000004e+00 8.4294346871701734e-16 0.0000000000000000e+00  9.9999999999999978e-01 -1.5696547444050956e-17 0.0000000000000000e+00  1.0000000000000000e+00 -5.1169777892930475e-16 0.0000000000000000e+00  9.9999999999999967e-01 5.8342314892874567e-16 0.0000000000000000e+00  1.0000000000000007e+00 -6.0701401910912187e-16 0.0000000000000000e+00  9.9999999999999900e-01 1.1682278805461531e-15 0.0000000000000000e+00  1.0000000000000004e+00 -8.8226234236883453e-17 0.0000000000000000e+00  9.9999999999999967e-01 3.4728283604797843e-17 0.0000000000000000e+00  9.9999999999999978e-01 8.3024213340895942e-17 0.0000000000000000e+00  9.9999999999999956e-01 -8.0213195491218629e-16 0.0000000000000000e+00  1.0000000000000007e+00 -2.8325679493170666e-16 0.0000000000000000e+00  9.9999999999999978e-01 6.9857219546100778e-16 0.0000000000000000e+00  1.0000000000000004e+00 -1.6999659136094946e-16 0.0000000000000000e+00  9.9999999999999944e-01 -4.2968601900792972e-16 0.0000000000000000e+00  1.0000000000000002e+00 4.3475807425315870e-16 0.0000000000000000e+00  9.9999999999999989e-01 -3.3108658410821951e-16 0.0000000000000000e+00  1.0000000000000000e+00 5.7422753577241573e-16 0.0000000000000000e+00  9.9999999999999956e-01 6.0673309410557889e-16 0.0000000000000000e+00  1.0000000000000000e+00 -6.4589464921084029e-16 0.0000000000000000e+00  9.9999999999999967e-01 -7.8057765709127507e-16 0.0000000000000000e+00  1.0000000000000002e+00 4.3574794644941788e-16 0.0000000000000000e+00  9.9999999999999989e-01 -1.7110602819413376e-16 0.0000000000000000e+00  1.0000000000000004e+00 -3.3488383401747629e-16 0.0000000000000000e+00  1.0000000000000000e+00 6.5427272883469554e-16 0.0000000000000000e+00  1.0000000000000007e+00 -1.2839111060119415e-15 0.0000000000000000e+00  9.9999999999999944e-01 1.6833889087144539e-15 0.0000000000000000e+00  1.0000000000000007e+00 -1.1188298147011234e-15 0.0000000000000000e+00  9.9999999999999944e-01 1.1228150085131012e-15 0.0000000000000000e+00  1.0000000000000002e+00 -1.1064497415778945e-15 0.0000000000000000e+00  9.9999999999999978e-01 1.0499195240626370e-15 0.0000000000000000e+00  1.0000000000000002e+00 -5.8732441937742648e-16 0.0000000000000000e+00  9.9999999999999944e-01 3.5331804571475383e-16 0.0000000000000000e+00  1.0000000000000002e+00 6.2321727761097281e-16 0.0000000000000000e+00  9.9999999999999944e-01 -5.6243634684597021e-16 0.0000000000000000e+00  1.0000000000000000e+00 9.8537886656104293e-17 0.0000000000000000e+00  9.9999999999999967e-01 -5.9140931558146001e-16 0.0000000000000000e+00  1.0000000000000004e+00 -5.2856638371806167e-16 0.0000000000000000e+00  1.0000000000000004e+00 0.0000000000000000e+00 1.4366669747567418e-15  9.9999999999999933e-01 0.0000000000000000e+00 -4.4990039586097758e-16  1.0000000000000004e+00 0.0000000000000000e+00 2.7937668109254733e-16  9.9999999999999933e-01 0.0000000000000000e+00 -8.0831695163298590e-16  1.0000000000000007e+00 0.0000000000000000e+00 7.7991181355964733e-16  9.9999999999999922e-01 0.0000000000000000e+00 9.6984554203542777e-16  9.9999999999999989e-01 0.0000000000000000e+00 5.3711888425952215e-16  9.9999999999999967e-01 0.0000000000000000e+00 -2.5540643154576036e-15  1.0000000000000004e+00 0.0000000000000000e+00 5.0264044624069000e-16  9.9999999999999989e-01 0.0000000000000000e+00 5.5919270619004946e-16  1.0000000000000002e+00 0.0000000000000000e+00 -6.6091830713656696e-16  9.9999999999999967e-01 0.0000000000000000e+00 1.3442339143394028e-16  1.0000000000000009e+00 0.0000000000000000e+00 -7.6370470165061493e-16  9.9999999999999944e-01 0.0000000000000000e+00 1.5139534447445620e-15  1.0000000000000000e+00 0.0000000000000000e+00 -8.5912766366006034e-16  9.9999999999999978e-01 0.0000000000000000e+00 -3.4052070423815406e-16  1.0000000000000007e+00 0.0000000000000000e+00 8.1013749545669223e-16  9.9999999999999944e-01 0.0000000000000000e+00 -2.3935781405043758e-16  1.0000000000000000e+00 0.0000000000000000e+00 -1.6583747677866927e-16  1.0000000000000000e+00 0.0000000000000000e+00 1.9187035043644936e-15  9.9999999999999967e-01 0.0000000000000000e+00 -9.5883386872825144e-16  9.9999999999999967e-01 0.0000000000000000e+00 4.7968238533132878e-16  1.0000000000000000e+00 0.0000000000000000e+00 -9.5997927360401873e-16  9.9999999999999911e-01 0.0000000000000000e+00 1.0402528043519119e-15  1.0000000000000004e+00 0.0000000000000000e+00 -1.0451509166286494e-15  9.9999999999999967e-01 0.0000000000000000e+00 -5.0106624263740849e-16  1.0000000000000004e+00 0.0000000000000000e+00 4.4089032245170465e-16  9.9999999999999967e-01 0.0000000000000000e+00 2.3768536379768587e-16  1.0000000000000004e+00 0.0000000000000000e+00 -3.5578608496458845e-16  9.9999999999999978e-01 0.0000000000000000e+00 4.4247594096827552e-16  1.0000000000000004e+00 0.0000000000000000e+00 -1.2735870727532272e-16  9.9999999999999956e-01 0.0000000000000000e+00 -1.6768606362961994e-16  1.0000000000000002e+00 0.0000000000000000e+00 2.8273668509566293e-16  9.9999999999999978e-01 0.0000000000000000e+00 1.1592183296562373e-16  1.0000000000000000e+00 0.0000000000000000e+00 -1.4515929454762540e-16  9.9999999999999967e-01 0.0000000000000000e+00 -3.5314021956425364e-17  1.0000000000000002e+00 0.0000000000000000e+00 -4.6907239699339354e-16  9.9999999999999956e-01 0.0000000000000000e+00 1.2558540587183794e-15  1.0000000000000002e+00 0.0000000000000000e+00 -1.3274631991707974e-15  1.0000000000000002e+00 -1.0459477504570494e-15 0.0000000000000000e+00  9.9999999999999967e-01 8.3739330232445703e-16 0.0000000000000000e+00  1.0000000000000004e+00 -8.1910372371706511e-16 0.0000000000000000e+00  9.9999999999999900e-01 9.7912179215608632e-16 0.0000000000000000e+00  1.0000000000000004e+00 1.2436244538114954e-17 0.0000000000000000e+00  9.9999999999999967e-01 1.0655672677025972e-16 0.0000000000000000e+00  1.0000000000000007e+00 7.8747970688859708e-16 0.0000000000000000e+00  9.9999999999999967e-01 -1.0326850107899649e-15 0.0000000000000000e+00  1.0000000000000002e+00 5.7545238485347301e-16 0.0000000000000000e+00  9.9999999999999967e-01 -6.2021766015110056e-16 0.0000000000000000e+00  1.0000000000000002e+00 6.6788412447304660e-16 0.0000000000000000e+00  9.9999999999999944e-01 -8.0567704074322229e-16 0.0000000000000000e+00  1.0000000000000000e+00 8.2542247978506386e-16 0.0000000000000000e+00  9.9999999999999944e-01 -8.6183622147396245e-16 0.0000000000000000e+00  1.0000000000000002e+00 7.2554610779965654e-16 0.0000000000000000e+00  9.9999999999999956e-01 -1.7341618384932762e-17 0.0000000000000000e+00  1.0000000000000002e+00 -2.6247246366874373e-16 0.0000000000000000e+00  9.9999999999999944e-01 1.9975018766947344e-16 0.0000000000000000e+00  9.9999999999999989e-01 2.1024434069927389e-16 0.0000000000000000e+00  9.9999999999999944e-01 -1.0877405858306961e-15 0.0000000000000000e+00  1.0000000000000002e+00 1.8818119465026855e-15 0.0000000000000000e+00  1.0000000000000000e+00 -5.8123896999627780e-16 0.0000000000000000e+00  1.0000000000000007e+00 9.4658388405255220e-16 0.0000000000000000e+00  1.0000000000000000e+00 -1.3593732618818471e-15 0.0000000000000000e+00  1.0000000000000004e+00 1.6178436737405948e-16 0.0000000000000000e+00  9.9999999999999944e-01 -9.5467741067349871e-16 0.0000000000000000e+00  1.0000000000000000e+00 1.0094238989578864e-15 0.0000000000000000e+00  9.9999999999999978e-01 -7.2706957068301643e-18 0.0000000000000000e+00  1.0000000000000007e+00 4.1907848152164768e-16 0.0000000000000000e+00  9.9999999999999911e-01 -4.3909506845533819e-16 0.0000000000000000e+00  1.0000000000000007e+00 -3.7797200836577700e-16 0.0000000000000000e+00  9.9999999999999956e-01 -8.5130827851203662e-17 0.0000000000000000e+00  9.9999999999999989e-01 -1.3876249111377862e-16 0.0000000000000000e+00  9.9999999999999989e-01 -1.4269236645389083e-15 0.0000000000000000e+00  9.9999999999999933e-01 1.0014634062740162e-15 0.0000000000000000e+00  9.9999999999999967e-01 9.7657365797210144e-16 0.0000000000000000e+00  1.0000000000000009e+00 3.8664122311182118e-16 0.0000000000000000e+00  9.9999999999999933e-01 2.0466527675736348e-15 0.0000000000000000e+00  1.0000000000000016e+00 -1.2781760018187925e-15 0.0000000000000000e+00  9.9999999999999978e-01 2.5594242906554419e-16 0.0000000000000000e+00  1.00000000000