<?xml version="1.0"?>
<VTKFile type="UnstructuredGrid"  version="0.1"  >
<UnstructuredGrid>
<Piece  NumberOfPoints="9509" NumberOfCells="18536">
<Points>
<DataArray  type="Float64"  NumberOfComponents="3"  format="ascii">-5 -1 0  5 -1 0  5 1 0  -5 1 0  -4.949999999999965 -1 0  -4.899999999999877 -1 0  -4.849999999999826 -1 0  -4.799999999999754 -1 0  -4.749999999999695 -1 0  -4.69999999999963 -1 0  -4.649999999999565 -1 0  -4.599999999999507 -1 0  -4.549999999999454 -1 0  -4.499999999999384 -1 0  -4.449999999999317 -1 0  -4.399999999999261 -1 0  -4.349999999999206 -1 0  -4.299999999999137 -1 0  -4.249999999999075 -1 0  -4.199999999999013 -1 0  -4.149999999998934 -1 0  -4.09999999999889 -1 0  -4.049999999998847 -1 0  -3.999999999998767 -1 0  -3.949999999998706 -1 0  -3.899999999998644 -1 0  -3.849999999998594 -1 0  -3.799999999998552 -1 0  -3.749999999998549 -1 0  -3.699999999998651 -1 0  -3.649999999998804 -1 0  -3.59999999999894 -1 0  -3.549999999999097 -1 0  -3.499999999999261 -1 0  -3.449999999999394 -1 0  -3.399999999999582 -1 0  -3.349999999999742 -1 0  -3.299999999999902 -1 0  -3.25000000000006 -1 0  -3.200000000000223 -1 0  -3.150000000000369 -1 0  -3.100000000000544 -1 0  -3.050000000000704 -1 0  -3.000000000000864 -1 0  -2.950000000001029 -1 0  -2.900000000001185 -1 0  -2.850000000001347 -1 0  -2.800000000001506 -1 0  -2.750000000001665 -1 0  -2.700000000001827 -1 0  -2.650000000001979 -1 0  -2.600000000002148 -1 0  -2.550000000002311 -1 0  -2.500000000002468 -1 0  -2.450000000002635 -1 0  -2.400000000002789 -1 0  -2.35000000000295 -1 0  -2.30000000000311 -1 0  -2.250000000003253 -1 0  -2.200000000003431 -1 0  -2.150000000003601 -1 0  -2.100000000003752 -1 0  -2.050000000003922 -1 0  -2.000000000004072 -1 0  -1.950000000004237 -1 0  -1.900000000004393 -1 0  -1.850000000004541 -1 0  -1.800000000004714 -1 0  -1.750000000004886 -1 0  -1.700000000005035 -1 0  -1.650000000005206 -1 0  -1.600000000005355 -1 0  -1.550000000005516 -1 0  -1.500000000005676 -1 0  -1.450000000005824 -1 0  -1.400000000005996 -1 0  -1.350000000006146 -1 0  -1.300000000006318 -1 0  -1.250000000006505 -1 0  -1.200000000006638 -1 0  -1.150000000006797 -1 0  -1.100000000006959 -1 0  -1.050000000007106 -1 0  -1.000000000007245 -1 0  -0.9500000000072193 -1 0  -0.9000000000072612 -1 0  -0.8500000000071966 -1 0  -0.8000000000071381 -1 0  -0.750000000007085 -1 0  -0.700000000007015 -1 0  -0.6500000000069521 -1 0  -0.6000000000068919 -1 0  -0.5500000000068104 -1 0  -0.5000000000067688 -1 0  -0.4500000000067104 -1 0  -0.4000000000066457 -1 0  -0.3500000000065757 -1 0  -0.3000000000065226 -1 0  -0.2500000000064961 -1 0  -0.2000000000063995 -1 0  -0.1500000000063775 -1 0  -0.1000000000062764 -1 0  -0.0500000000062597 -1 0  -6.153300091682468e-12 -1 0  0.04999999999390781 -1 0  0.09999999999396891 -1 0  0.14999999999403 -1 0  0.1999999999940929 -1 0  0.2499999999941318 -1 0  0.299999999994216 -1 0  0.349999999994254 -1 0  0.3999999999943391 -1 0  0.4499999999944038 -1 0  0.4999999999944613 -1 0  0.5499999999945429 -1 0  0.5999999999945853 -1 0  0.6499999999946606 -1 0  0.6999999999947084 -1 0  0.7499999999947651 -1 0  0.7999999999948315 -1 0  0.8499999999948926 -1 0  0.8999999999949537 -1 0  0.9499999999950148 -1 0  0.9999999999950768 -1 0  1.049999999995139 -1 0  1.0999999999952 -1 0  1.149999999995266 -1 0  1.199999999995324 -1 0  1.249999999995385 -1 0  1.299999999995446 -1 0  1.349999999995488 -1 0  1.399999999995569 -1 0  1.449999999995604 -1 0  1.499999999995692 -1 0  1.549999999995753 -1 0  1.599999999995816 -1 0  1.649999999995892 -1 0  1.699999999995939 -1 0  1.749999999996017 -1 0  1.799999999996063 -1 0  1.849999999996111 -1 0  1.899999999996185 -1 0  1.949999999996246 -1 0  1.999999999996308 -1 0  2.049999999996351 -1 0  2.099999999996431 -1 0  2.149999999996504 -1 0  2.199999999996555 -1 0  2.249999999996616 -1 0  2.299999999996677 -1 0  2.349999999996736 -1 0  2.3999999999968 -1 0  2.449999999996847 -1 0  2.499999999996923 -1 0  2.549999999997 -1 0  2.599999999997047 -1 0  2.649999999997093 -1 0  2.69999999999717 -1 0  2.749999999997245 -1 0  2.799999999997293 -1 0  2.849999999997344 -1 0  2.899999999997416 -1 0  2.949999999997469 -1 0  2.999999999997539 -1 0  3.049999999997576 -1 0  3.099999999997662 -1 0  3.149999999997725 -1 0  3.199999999997784 -1 0  3.249999999997829 -1 0  3.299999999997908 -1 0  3.349999999997921 -1 0  3.39999999999803 -1 0  3.4499999999981 -1 0  3.499999999998153 -1 0  3.549999999998214 -1 0  3.599999999998277 -1 0  3.649999999998409 -1 0  3.699999999998401 -1 0  3.749999999998444 -1 0  3.799999999998523 -1 0  3.849999999998602 -1 0  3.899999999998645 -1 0  3.949999999998658 -1 0  3.999999999998769 -1 0  4.049999999998814 -1 0  4.099999999998893 -1 0  4.149999999998883 -1 0  4.199999999999015 -1 0  4.249999999999064 -1 0  4.299999999999137 -1 0  4.349999999999152 -1 0  4.399999999999261 -1 0  4.44999999999933 -1 0  4.499999999999385 -1 0  4.549999999999446 -1 0  4.599999999999508 -1 0  4.649999999999633 -1 0  4.699999999999632 -1 0  4.749999999999723 -1 0  4.799999999999754 -1 0  4.849999999999801 -1 0  4.899999999999876 -1 0  4.949999999999925 -1 0  5 -0.950000000000111 0  5 -0.9000000000002774 0  5 -0.8500000000004283 0  5 -0.8000000000005548 0  5 -0.7500000000006787 0  5 -0.7000000000008322 0  5 -0.6500000000009709 0  5 -0.6000000000011096 0  5 -0.5500000000012484 0  5 -0.500000000001387 0  5 -0.4500000000015256 0  5 -0.4000000000016644 0  5 -0.3500000000018031 0  5 -0.3000000000019418 0  5 -0.2500000000020806 0  5 -0.2000000000022192 0  5 -0.1500000000023578 0  5 -0.1000000000024964 0  5 -0.05000000000262439 0  5 -2.752242878045763e-12 0  5 0.0499999999973757 0  5 0.09999999999750342 0  5 0.1499999999976422 0  5 0.1999999999977808 0  5 0.2499999999979194 0  5 0.2999999999980583 0  5 0.3499999999981969 0  5 0.3999999999983355 0  5 0.4499999999984743 0  5 0.4999999999986129 0  5 0.5499999999987515 0  5 0.5999999999988903 0  5 0.6499999999990291 0  5 0.699999999999168 0  5 0.7499999999993068 0  5 0.7999999999994454 0  5 0.849999999999584 0  5 0.8999999999997226 0  5 0.9499999999998612 0  4.949999999999965 1 0  4.899999999999877 1 0  4.849999999999826 1 0  4.799999999999754 1 0  4.749999999999695 1 0  4.69999999999963 1 0  4.649999999999565 1 0  4.599999999999507 1 0  4.549999999999454 1 0  4.499999999999384 1 0  4.449999999999317 1 0  4.399999999999261 1 0  4.349999999999206 1 0  4.299999999999137 1 0  4.249999999999075 1 0  4.199999999999013 1 0  4.149999999998934 1 0  4.09999999999889 1 0  4.049999999998847 1 0  3.999999999998767 1 0  3.949999999998706 1 0  3.899999999998644 1 0  3.849999999998594 1 0  3.799999999998552 1 0  3.749999999998549 1 0  3.699999999998651 1 0  3.649999999998804 1 0  3.59999999999894 1 0  3.549999999999097 1 0  3.499999999999261 1 0  3.449999999999394 1 0  3.399999999999582 1 0  3.349999999999742 1 0  3.299999999999902 1 0  3.25000000000006 1 0  3.200000000000223 1 0  3.150000000000369 1 0  3.100000000000544 1 0  3.050000000000704 1 0  3.000000000000864 1 0  2.950000000001029 1 0  2.900000000001185 1 0  2.850000000001347 1 0  2.800000000001506 1 0  2.750000000001665 1 0  2.700000000001827 1 0  2.650000000001979 1 0  2.600000000002148 1 0  2.550000000002311 1 0  2.500000000002468 1 0  2.450000000002635 1 0  2.400000000002789 1 0  2.35000000000295 1 0  2.30000000000311 1 0  2.250000000003253 1 0  2.200000000003431 1 0  2.150000000003601 1 0  2.100000000003752 1 0  2.050000000003922 1 0  2.000000000004072 1 0  1.950000000004237 1 0  1.900000000004393 1 0  1.850000000004541 1 0  1.800000000004714 1 0  1.750000000004886 1 0  1.700000000005035 1 0  1.650000000005206 1 0  1.600000000005355 1 0  1.550000000005516 1 0  1.500000000005676 1 0  1.450000000005824 1 0  1.400000000005996 1 0  1.350000000006146 1 0  1.300000000006318 1 0  1.250000000006505 1 0  1.200000000006638 1 0  1.150000000006797 1 0  1.100000000006959 1 0  1.050000000007106 1 0  1.000000000007245 1 0  0.9500000000072193 1 0  0.9000000000072612 1 0  0.8500000000071966 1 0  0.8000000000071381 1 0  0.750000000007085 1 0  0.700000000007015 1 0  0.6500000000069521 1 0  0.6000000000068919 1 0  0.5500000000068104 1 0  0.5000000000067688 1 0  0.4500000000067104 1 0  0.4000000000066457 1 0  0.3500000000065757 1 0  0.3000000000065226 1 0  0.2500000000064961 1 0  0.2000000000063995 1 0  0.1500000000063775 1 0  0.1000000000062764 1 0  0.0500000000062597 1 0  6.153300091682468e-12 1 0  -0.04999999999390781 1 0  -0.09999999999396891 1 0  -0.14999999999403 1 0  -0.1999999999940929 1 0  -0.2499999999941318 1 0  -0.299999999994216 1 0  -0.349999999994254 1 0  -0.3999999999943391 1 0  -0.4499999999944038 1 0  -0.4999999999944613 1 0  -0.5499999999945429 1 0  -0.5999999999945853 1 0  -0.6499999999946606 1 0  -0.6999999999947084 1 0  -0.7499999999947651 1 0  -0.7999999999948315 1 0  -0.8499999999948926 1 0  -0.8999999999949537 1 0  -0.9499999999950148 1 0  -0.9999999999950768 1 0  -1.049999999995139 1 0  -1.0999999999952 1 0  -1.149999999995266 1 0  -1.199999999995324 1 0  -1.249999999995385 1 0  -1.299999999995446 1 0  -1.349999999995488 1 0  -1.399999999995569 1 0  -1.449999999995604 1 0  -1.499999999995692 1 0  -1.549999999995753 1 0  -1.599999999995816 1 0  -1.649999999995892 1 0  -1.699999999995939 1 0  -1.749999999996017 1 0  -1.799999999996063 1 0  -1.849999999996111 1 0  -1.899999999996185 1 0  -1.949999999996246 1 0  -1.999999999996308 1 0  -2.049999999996351 1 0  -2.099999999996431 1 0  -2.149999999996504 1 0  -2.199999999996555 1 0  -2.249999999996616 1 0  -2.299999999996677 1 0  -2.349999999996736 1 0  -2.3999999999968 1 0  -2.449999999996847 1 0  -2.499999999996923 1 0  -2.549999999997 1 0  -2.599999999997047 1 0  -2.649999999997093 1 0  -2.69999999999717 1 0  -2.749999999997245 1 0  -2.799999999997293 1 0  -2.849999999997344 1 0  -2.899999999997416 1 0  -2.949999999997469 1 0  -2.999999999997539 1 0  -3.049999999997576 1 0  -3.099999999997662 1 0  -3.149999999997725 1 0  -3.199999999997784 1 0  -3.249999999997829 1 0  -3.29999
[...]
<PointData  Vectors="(h, u)"> 
<DataArray  type="Float64"  Name="(h, u)"  NumberOfComponents="3" format="ascii">8.7336971719809142e+00 0.0000000000000000e+00 0.0000000000000000e+00  9.6757870494514648e+00 0.0000000000000000e+00 0.0000000000000000e+00  9.6640003467015081e+00 0.0000000000000000e+00 0.0000000000000000e+00  8.7514249748921458e+00 0.0000000000000000e+00 0.0000000000000000e+00  8.7498668662020531e+00 8.4106734432008834e-02 0.0000000000000000e+00  8.7302463001418893e+00 1.6687691442857697e-01 0.0000000000000000e+00  8.7394439901312335e+00 2.4986949010306450e-01 0.0000000000000000e+00  8.7154514576359361e+00 3.3849230555450299e-01 0.0000000000000000e+00  8.7257928874945030e+00 4.1701917798456911e-01 0.0000000000000000e+00  8.6952241207363841e+00 5.0179245903217895e-01 0.0000000000000000e+00  8.6951965236068727e+00 5.8160123333183622e-01 0.0000000000000000e+00  8.6677886261808883e+00 6.6146818027012844e-01 0.0000000000000000e+00  8.6626074285073180e+00 7.4354636710492961e-01 0.0000000000000000e+00  8.6241717327004004e+00 8.2513431496960243e-01 0.0000000000000000e+00  8.6259583255643744e+00 8.9548830636723831e-01 0.0000000000000000e+00  8.5804564616096410e+00 9.7965418344955635e-01 0.0000000000000000e+00  8.5657504082139084e+00 1.0569453259255051e+00 0.0000000000000000e+00  8.5347643446876358e+00 1.1302421673617131e+00 0.0000000000000000e+00  8.5100961553776315e+00 1.2031584361754188e+00 0.0000000000000000e+00  8.4605461476900192e+00 1.2851795588634423e+00 0.0000000000000000e+00  8.4532339736076398e+00 1.3483919120295942e+00 0.0000000000000000e+00  8.3958334590094097e+00 1.4217127094651600e+00 0.0000000000000000e+00  8.3644537940152244e+00 1.4976767161197262e+00 0.0000000000000000e+00  8.3305667842625901e+00 1.5616270555284513e+00 0.0000000000000000e+00  8.2889001675756084e+00 1.6269483967908613e+00 0.0000000000000000e+00  8.2330378239797035e+00 1.7026584099557471e+00 0.0000000000000000e+00  8.2118368110337165e+00 1.7660508509766586e+00 0.0000000000000000e+00  8.1521140912088423e+00 1.8221350422959461e+00 0.0000000000000000e+00  8.1049566771867081e+00 1.9023963408973383e+00 0.0000000000000000e+00  8.0673199049859576e+00 1.9571409399391453e+00 0.0000000000000000e+00  8.0168445610171624e+00 2.0214159965219753e+00 0.0000000000000000e+00  7.9586119059127105e+00 2.0772881077549097e+00 0.0000000000000000e+00  7.9207695299921852e+00 2.1715455662617926e+00 0.0000000000000000e+00  7.8687978662940381e+00 2.1785140369884748e+00 0.0000000000000000e+00  7.8109102460457098e+00 2.2948376697404762e+00 0.0000000000000000e+00  7.7644809548676426e+00 2.3277806443033677e+00 0.0000000000000000e+00  7.7176969121200933e+00 2.3925517895002026e+00 0.0000000000000000e+00  7.6606404061941928e+00 2.4521592350363903e+00 0.0000000000000000e+00  7.6013432882517957e+00 2.5252188288208575e+00 0.0000000000000000e+00  7.5681214744606811e+00 2.5941466863099047e+00 0.0000000000000000e+00  7.5032934827741062e+00 2.5784888503136916e+00 0.0000000000000000e+00  7.4425438922275475e+00 2.7946372351724276e+00 0.0000000000000000e+00  7.4082531186040832e+00 2.6958144208854398e+00 0.0000000000000000e+00  7.3555412528469661e+00 2.8064292699916407e+00 0.0000000000000000e+00  7.2721812422992178e+00 2.9942061400649553e+00 0.0000000000000000e+00  7.2583417570411513e+00 2.8152573042401148e+00 0.0000000000000000e+00  7.1969778969947171e+00 3.0786281227826291e+00 0.0000000000000000e+00  7.1126196960443711e+00 3.0942456641462752e+00 0.0000000000000000e+00  7.0980334122975810e+00 3.0586133456615552e+00 0.0000000000000000e+00  7.0474590641700292e+00 3.2472825896026976e+00 0.0000000000000000e+00  6.9486572092370160e+00 3.2396672928774959e+00 0.0000000000000000e+00  6.9433026793960329e+00 3.3324751055339652e+00 0.0000000000000000e+00  6.8954420520152029e+00 3.3185110229661490e+00 0.0000000000000000e+00  6.7905332368373621e+00 3.5218609567772683e+00 0.0000000000000000e+00  6.7888843870158970e+00 3.4427539228395450e+00 0.0000000000000000e+00  6.7404358960193944e+00 3.5593562754055270e+00 0.0000000000000000e+00  6.6421699998636754e+00 3.6488101827381167e+00 0.0000000000000000e+00  6.6259395219102863e+00 3.6835699105196102e+00 0.0000000000000000e+00  6.5945697019182887e+00 3.7038732723764003e+00 0.0000000000000000e+00  6.4840865986628602e+00 3.8560059708657830e+00 0.0000000000000000e+00  6.4792027423052811e+00 3.8478233980663372e+00 0.0000000000000000e+00  6.4275978848340580e+00 3.9342802082533255e+00 0.0000000000000000e+00  6.3528359229514750e+00 3.9722319428593988e+00 0.0000000000000000e+00  6.3077650812754564e+00 4.1225767969035454e+00 0.0000000000000000e+00  6.2879054964450596e+00 4.0424127844557125e+00 0.0000000000000000e+00  6.1940017418984770e+00 4.2225747430309690e+00 0.0000000000000000e+00  6.1732651514206234e+00 4.2737089835082722e+00 0.0000000000000000e+00  6.1103076444598585e+00 4.2434250810096934e+00 0.0000000000000000e+00  6.0785288232079093e+00 4.4246658703118795e+00 0.0000000000000000e+00  5.9986962083567121e+00 4.4363692238213144e+00 0.0000000000000000e+00  5.9800196506260619e+00 4.4545531102746567e+00 0.0000000000000000e+00  5.9127719349711931e+00 4.6169812984716927e+00 0.0000000000000000e+00  5.8825984671091556e+00 4.5909304747777480e+00 0.0000000000000000e+00  5.7971014865118216e+00 4.7011450455954904e+00 0.0000000000000000e+00  5.8033320006037421e+00 4.7424180941893166e+00 0.0000000000000000e+00  5.7121222542352221e+00 4.8338397558182358e+00 0.0000000000000000e+00  5.6850668531092943e+00 4.8253472014719456e+00 0.0000000000000000e+00  5.6252002411010231e+00 5.0073146825790236e+00 0.0000000000000000e+00  5.6126783824437103e+00 4.9268968043938921e+00 0.0000000000000000e+00  5.5119750559123784e+00 5.0928126462684320e+00 0.0000000000000000e+00  5.5128213631059459e+00 5.1324660110092024e+00 0.0000000000000000e+00  5.4430562984455459e+00 5.1568866365455825e+00 0.0000000000000000e+00  5.4126911215825553e+00 5.2376705372805477e+00 0.0000000000000000e+00  5.3301524381785956e+00 5.3663320726031536e+00 0.0000000000000000e+00  5.3433113729173245e+00 5.2861284324439612e+00 0.0000000000000000e+00  5.2365331880487442e+00 5.5015116667088781e+00 0.0000000000000000e+00  5.2240482809443165e+00 5.4711003560699796e+00 0.0000000000000000e+00  5.1753887759404842e+00 5.5510699320021626e+00 0.0000000000000000e+00  5.1331925763386623e+00 5.6184091255789843e+00 0.0000000000000000e+00  5.0461518655257036e+00 5.7258670540703207e+00 0.0000000000000000e+00  5.0730495919447645e+00 5.6830632553603335e+00 0.0000000000000000e+00  4.9584722110801680e+00 5.8762275077322137e+00 0.0000000000000000e+00  4.9371295463339795e+00 5.8470031352664931e+00 0.0000000000000000e+00  4.8950138438217774e+00 5.9714167833187508e+00 0.0000000000000000e+00  4.8723957906134459e+00 5.9567274956416583e+00 0.0000000000000000e+00  4.7550674075925947e+00 6.1385584593448304e+00 0.0000000000000000e+00  4.8031177630286219e+00 6.0771170537613477e+00 0.0000000000000000e+00  4.6934609645239371e+00 6.2343334144862368e+00 0.0000000000000000e+00  4.6754495502954230e+00 6.2270556938279285e+00 0.0000000000000000e+00  4.6451616528001924e+00 6.3468802245548179e+00 0.0000000000000000e+00  4.6086332946476887e+00 6.3084158302607989e+00 0.0000000000000000e+00  4.4815063217210396e+00 6.5697155291231937e+00 0.0000000000000000e+00  4.5747791159018556e+00 6.4017141587713473e+00 0.0000000000000000e+00  4.4911155998163679e+00 6.5239900068349570e+00 0.0000000000000000e+00  4.4041882256574132e+00 6.6604555144021322e+00 0.0000000000000000e+00  4.3206996339382444e+00 6.7812327909574792e+00 0.0000000000000000e+00  4.3554508761618997e+00 6.7262111985140995e+00 0.0000000000000000e+00  4.2988410691046761e+00 6.8351769417759281e+00 0.0000000000000000e+00  4.2698335625656476e+00 6.8505301033111241e+00 0.0000000000000000e+00  4.1862821751242913e+00 7.0035310594276758e+00 0.0000000000000000e+00  4.1713143768974028e+00 6.9962863341123507e+00 0.0000000000000000e+00  4.0889437268318352e+00 7.1481445564766748e+00 0.0000000000000000e+00  4.0738382950434735e+00 7.1620271544761485e+00 0.0000000000000000e+00  4.0112123275502967e+00 7.2365195174082553e+00 0.0000000000000000e+00  4.0387800793647850e+00 7.2442205671539597e+00 0.0000000000000000e+00  3.9145157674759861e+00 7.3942205858667718e+00 0.0000000000000000e+00  3.9184925442555785e+00 7.4008046340625002e+00 0.0000000000000000e+00  3.8492439613321254e+00 7.5277211177968582e+00 0.0000000000000000e+00  3.9932974319876191e+00 7.3475188278201529e+00 0.0000000000000000e+00  3.7419321449255869e+00 7.6865761840992022e+00 0.0000000000000000e+00  3.9083314924181360e+00 7.4698759925285030e+00 0.0000000000000000e+00  3.7140826930518140e+00 7.7677700989610585e+00 0.0000000000000000e+00  3.6386590754351666e+00 7.8204743632786977e+00 0.0000000000000000e+00  3.9260788787206033e+00 7.4243548543342461e+00 0.0000000000000000e+00  3.8387063427768067e+00 7.5333175318675716e+00 0.0000000000000000e+00  3.9314403939952589e+00 7.4055689429054548e+00 0.0000000000000000e+00  3.9444007056800809e+00 7.3848200843581067e+00 0.0000000000000000e+00  4.0095350491279316e+00 7.3000371955798853e+00 0.0000000000000000e+00  3.7894750895986444e+00 7.5911908313383769e+00 0.0000000000000000e+00  4.0994258306346341e+00 7.2011352151748129e+00 0.0000000000000000e+00  4.1602231341144167e+00 7.1059692498225919e+00 0.0000000000000000e+00  4.0334005133544775e+00 7.2665840429581223e+00 0.0000000000000000e+00  4.0300830139404322e+00 7.2800404912919632e+00 0.0000000000000000e+00  3.9784174395327758e+00 7.3228151187233053e+00 0.0000000000000000e+00  4.0443563887655483e+00 7.2613903302798120e+00 0.0000000000000000e+00  4.0330296694745771e+00 7.2630640615690965e+00 0.0000000000000000e+00  3.9645048146874600e+00 7.3662590387270841e+00 0.0000000000000000e+00  3.9748386105971836e+00 7.3262332351142190e+00 0.0000000000000000e+00  3.9756348686408431e+00 7.3537818767861900e+00 0.0000000000000000e+00  3.9667475675335013e+00 7.3373101948898611e+00 0.0000000000000000e+00  3.9557682907232863e+00 7.3696248308632315e+00 0.0000000000000000e+00  3.9559208034262490e+00 7.3558917187685635e+00 0.0000000000000000e+00  3.9798031773668363e+00 7.3406211032438398e+00 0.0000000000000000e+00  3.9558901588208606e+00 7.3563741551117134e+00 0.0000000000000000e+00  3.9603249328670906e+00 7.3644110133230587e+00 0.0000000000000000e+00  3.9662396694758435e+00 7.3448744621706537e+00 0.0000000000000000e+00  3.9680413955214453e+00 7.3510845556913598e+00 0.0000000000000000e+00  3.9549982944068760e+00 7.3664543052778075e+00 0.0000000000000000e+00  3.9483427912931282e+00 7.3788425299809868e+00 0.0000000000000000e+00  3.9853948631813223e+00 7.3285275560630048e+00 0.0000000000000000e+00  3.9837824137324973e+00 7.3381994695600552e+00 0.0000000000000000e+00  3.9590390402764162e+00 7.3634445874942314e+00 0.0000000000000000e+00  3.9645569357746049e+00 7.3565298220515523e+00 0.0000000000000000e+00  3.9844726511789705e+00 7.3410184625316299e+00 0.0000000000000000e+00  3.9696256570267723e+00 7.3518157378096909e+00 0.0000000000000000e+00  3.9734289113011476e+00 7.3515351619254687e+00 0.0000000000000000e+00  3.9839835633404324e+00 7.3388837371971301e+00 0.0000000000000000e+00  3.9894445457721774e+00 7.3391482257210621e+00 0.0000000000000000e+00  3.9756108088801612e+00 7.3398751817432020e+00 0.0000000000000000e+00  3.9936322066045919e+00 7.3443441596477488e+00 0.0000000000000000e+00  3.9716099192266703e+00 7.3389282958112076e+00 0.0000000000000000e+00  3.9808915838019954e+00 7.3566583670168031e+00 0.0000000000000000e+00  3.9718865891909667e+00 7.3506736476479322e+00 0.0000000000000000e+00  3.9904856288433881e+00 7.3331109261029885e+00 0.0000000000000000e+00  3.9754004750720666e+00 7.3402653044156256e+00 0.0000000000000000e+00  3.9874167113813801e+00 7.3581906030234911e+00 0.0000000000000000e+00  3.9531589555947639e+00 7.3423842886643111e+00 0.0000000000000000e+00  3.9867714186767134e+00 7.3604527531094792e+00 0.0000000000000000e+00  3.9725212508849204e+00 7.3476934574764750e+00 0.0000000000000000e+00  3.9817129893847230e+00 7.3244937997355137e+00 0.0000000000000000e+00  3.9665694443188371e+00 7.3627104683024980e+00 0.0000000000000000e+00  3.9885416211972102e+00 7.3555258225195574e+00 0.0000000000000000e+00  3.9460033542071753e+00 7.3191466606601985e+00 0.0000000000000000e+00  3.9996609020278138e+00 7.3697301045850026e+00 0.0000000000000000e+00  3.9642588514220658e+00 7.3287490132953410e+00 0.0000000000000000e+00  3.9770744585882789e+00 7.3312832256831095e+00 0.0000000000000000e+00  3.9570131281465040e+00 7.3591378631766302e+00 0.0000000000000000e+00  3.9808329035645520e+00 7.3584786213643696e+00 0.0000000000000000e+00  3.9593312166847223e+00 7.3238493156400386e+00 0.0000000000000000e+00  3.9487448584345137e+00 7.3445565830094770e+00 0.0000000000000000e+00  4.0256116932696955e+00 7.3501163330112878e+00 0.0000000000000000e+00  3.9193850525973875e+00 7.3392441610463743e+00 0.0000000000000000e+00  3.9865224816372722e+00 7.2916256762659959e+00 0.0000000000000000e+00  3.9703884189103662e+00 7.4261149690991877e+00 0.0000000000000000e+00  3.9866048198658208e+00 7.3097573026969531e+00 0.0000000000000000e+00  3.8749779005908427e+00 7.2736823213934390e+00 0.0000000000000000e+00  4.0862498950688719e+00 7.5073319901453797e+00 0.0000000000000000e+00  3.8786172271276920e+00 7.1912355834770718e+00 0.0000000000000000e+00  3.9794137670446434e+00 7.3868202880620082e+00 0.0000000000000000e+00  3.9988174115523596e+00 7.3807461700802426e+00 0.0000000000000000e+00  3.9559966476492634e+00 7.2756258080759135e+00 0.0000000000000000e+00  3.9374620754915788e+00 7.3516959134300270e+00 0.0000000000000000e+00  4.0108833021774686e+00 7.3600999140534746e+00 0.0000000000000000e+00  3.9208024515167410e+00 7.2691790427132403e+00 0.0000000000000000e+00  4.0220967916907782e+00 7.3954927587171895e+00 0.0000000000000000e+00  3.9261669246780815e+00 7.2698708256021973e+00 0.0000000000000000e+00  3.9237621266688048e+00 7.3614969299922732e+00 0.0000000000000000e+00  4.1740959766569983e+00 7.0518367574293990e+00 0.0000000000000000e+00  3.3145725909031691e+00 8.4569986479348191e+00 0.0000000000000000e+00  8.5958557392683517e+00 7.8968591713590019e-01 0.0000000000000000e+00  9.2079325510666425e+00 3.9378881282830019e-01 0.0000000000000000e+00  9.7006844906823257e+00 -2.5114389628292932e-01 0.0000000000000000e+00  9.1878410034321174e+00 -2.1007881369702278e-02 0.0000000000000000e+00  9.7820942251489740e+00 0.0000000000000000e+00 -7.2220267024388482e-02  9.3899916451070737e+00 0.0000000000000000e+00 2.6223865472469060e-01  9.9795912837931091e+00 0.0000000000000000e+00 -4.8744215001664148e-02  9.3302324983815730e+00 0.0000000000000000e+00 -5.2545210747472071e-01  9.9237513978957761e+00 0.0000000000000000e+00 8.7257677509582840e-02  9.3494991792458713e+00 0.0000000000000000e+00 4.2467503888118829e-01  1.0020563478825631e+01 0.0000000000000000e+00 -8.0274083492263421e-02  9.3583855718911906e+00 0.0000000000000000e+00 -2.4036705892448712e-01  9.7495218207359766e+00 0.0000000000000000e+00 -2.3584517087606630e-01  9.5120753825271436e+00 0.0000000000000000e+00 5.6702131967172520e-01  9.5394746463738276e+00 0.0000000000000000e+00 1.4398073089420479e-01  9.5535280564974396e+00 0.0000000000000000e+00 -6.6466708831639049e-02  9.4941130464589438e+00 0.0000000000000000e+00 -1.7233899005306974e-01  8.9109516646146165e+00 0.0000000000000000e+00 -7.7920304090944109e-02  9.5420054874229336e+00 0.0000000000000000e+00 8.4636795993395936e-02  9.4338371336295559e+00 0.0000000000000000e+00 -1.4901150479013611e-01  9.5424055678738622e+00 0.0000000000000000e+00 -2.1923346400014279e-01  9.4846847530959675e+00 0.0000000000000000e+00 -8.2300416904701956e-01  9.6418159301895834e+00 0.0000000000000000e+00 1.1948623505367734e-01  9.3851518762574813e+00 0.0000000000000000e+00 2.1810209509937703e-01  1.0022960847493872e+01 0.0000000000000000e+00 -8.0478520599274295e-02  9.3811738131807765e+00 0.0000000000000000e+00 -4.0891500126159375e-01  9.7195552862835264e+00 0.0000000000000000e+00 -1.0795054718891640e-01  9.4479440322054238e+00 0.0000000000000000e+00 5.6481932235711962e-01  9.5349690723009921e+00 0.0000000000000000e+00 1.1715546553988970e-01  9.1782963901286703e+00 0.0000000000000000e+00 -9.6278772118759612e-02  9.4687620963675396e+00 0.0000000000000000e+00 -3.7801589841158972e-02  9.3496105711764379e+00 0.0000000000000000e+00 -6.5040022809900330e-02  9.6611665626984546e+00 0.0000000000000000e+00 -7.3045023960650766e-03  9.4626917926702081e+00 0.0000000000000000e+00 -1.4786613867565379e-02  9.2016413474387448e+00 0.0000000000000000e+00 -1.4839123610394946e-02  9.6307846060725986e+00 0.0000000000000000e+00 -1.4695224811463486e-01  9.7923125178671775e+00 0.0000000000000000e+00 -2.9527553417923267e-02  9.6666636214301338e+00 0.0000000000000000e+00 -1.3881727926014056e-01  9.6875663065425979e+00 0.0000000000000000e+00 2.2709240342323227e-02  9.5069666131190083e+00 0.0000000000000000e+00 -2.1236516444669565e-01  1.0037438571246033e+01 0.0000000000000000e+00 -3.1404256321058595e-02  9.4827768926210538e+00 0.0000000000000000e+00 -3.2337294580804837e-01  9.5224473127278912e+00 0.0000000000000000e+00 1.8585209805355049e-01  9.1126544520228432e+00 -8.1718800917296414e-02 0.0000000000000000e+00  9.7922497694561699e+00 -4.0734041853456687e-01 0.0000000000000000e+00  9.0491669877761520e+00 3.1246759088761966e-01 0.0000000000000000e+00  8.7724409059257429e+00 1.8171215353790782e-01 0.0000000000000000e+00  3.4545585732627946e+00 8.2589348477978657e+00 0.0000000000000000e+00  4.1381317127858157e+00 6.7264032476701541e+00 0.0000000000000000e+00  3.8760084983061232e+00 7.1625536058300225e+00 0.0000000000000000e+00  3.9013544758095273e+00 7.2335562796181572e+00 0.0000000000000000e+00  3.8922733888683432e+00 7.1936988504779684e+00 0.0000000000000000e+00  3.9288566556890139e+00 6.9152867344035656e+00 0.0000000000000000e+00  3.9380057705080134e+00 7.2557022800699960e+00 0.0000000000000000e+00  3.8800361323677945e+00 6.9694898317852179e+00 0.0000000000000000e+00  3.9646263836251143e+00 7.2315744018089507e+00 0.0000000000000000e+00  3.9092016225743969e+00 7.0995855724228685e+00 0.0000000000000000e+00  4.0120961764523209e+00 7.1233563781209543e+00 0.0000000000000000e+00  3.8821561466146748e+00 7.0847046203345219e+00 0.0000000000000000e+00  3.9795210847889351e+00 7.2655303289437869e+00 0.0000000000000000e+00  3.9016124293144756e+00 7.1129274358325345e+00 0.0000000000000000e+00  3.9755184871346878e+00 7.2787153593732219e+00 0.0000000000000000e+00  3.8942068787999808e+00 7.2197325219476847e+00 0.0000000000000000e+00  3.9654079705168273e+00 7.3357576297698976e+00 0.0000000000000000e+00  3.9129117615912090e+00 7.2898697382905189e+00 0.0000000000000000e+00  3.9462005510793663e+00 7.2466152046056624e+00 0.0000000000000000e+00  3.9578372379338846e+00 7.3766472441752962e+00 0.0000000000000000e+00  3.9249918150118854e+00 7.3461807928409142e+00 0.0000000000000000e+00  3.9424683835732890e+00 7.2665198329683589e+00 0.0000000000000000e+00  3.9563843895924315e+00 7.3749917585583074e+00 0.0000000000000000e+00  3.9476567993522700e+00 7.3665815788504432e+00 0.0000000000000000e+00  3.9258495994563836e+00 7.2919619799403632e+00 0.0000000000000000e+00  3.9733621416065370e+00 7.3943886462529651e+00 0.0000000000000000e+00  3.9414721872611058e+00 7.2772051747970758e+00 0.0000000000000000e+00  3.9541995117876616e+00 7.3164540078636477e+00 0.0000000000000000e+00  3.9513677980825661e+00 7.3556490490696138e+00 0.0000000000000000e+00  3.9492716396697234e+00 7.3080220155933731e+00 0.0000000000000000e+00  3.9392034438474002e+00 7.3307753375917883e+00 0.0000000000000000e+00  3.9645885557476097e+00 7.3358354966757835e+00 0.0000000000000000e+00  3.9644948757168024e+00 7.2357187757322841e+00 0.0000000000000000e+00  3.9560857780416754e+00 7.3174813945963537e+00 0.0000000000000000e+00  3.9583076471468450e+00 7.3342863810796626e+00 0.0000000000000000e+00  3.9556659686963935e+00 7.2731501282389521e+00 0.0000000000000000e+00  3.9737820150037808e+00 7.3091242693595655e+00 0.0000000000000000e+00  3.9477251992012543e+00 7.3229250781335669e+00 0