<?xml version="1.0"?>
<VTKFile type="UnstructuredGrid"  version="0.1"  >
<UnstructuredGrid>
<Piece  NumberOfPoints="9509" NumberOfCells="18536">
<Points>
<DataArray  type="Float64"  NumberOfComponents="3"  format="ascii">-5 -1 0  5 -1 0  5 1 0  -5 1 0  -4.949999999999965 -1 0  -4.899999999999877 -1 0  -4.849999999999826 -1 0  -4.799999999999754 -1 0  -4.749999999999695 -1 0  -4.69999999999963 -1 0  -4.649999999999565 -1 0  -4.599999999999507 -1 0  -4.549999999999454 -1 0  -4.499999999999384 -1 0  -4.449999999999317 -1 0  -4.399999999999261 -1 0  -4.349999999999206 -1 0  -4.299999999999137 -1 0  -4.249999999999075 -1 0  -4.199999999999013 -1 0  -4.149999999998934 -1 0  -4.09999999999889 -1 0  -4.049999999998847 -1 0  -3.999999999998767 -1 0  -3.949999999998706 -1 0  -3.899999999998644 -1 0  -3.849999999998594 -1 0  -3.799999999998552 -1 0  -3.749999999998549 -1 0  -3.699999999998651 -1 0  -3.649999999998804 -1 0  -3.59999999999894 -1 0  -3.549999999999097 -1 0  -3.499999999999261 -1 0  -3.449999999999394 -1 0  -3.399999999999582 -1 0  -3.349999999999742 -1 0  -3.299999999999902 -1 0  -3.25000000000006 -1 0  -3.200000000000223 -1 0  -3.150000000000369 -1 0  -3.100000000000544 -1 0  -3.050000000000704 -1 0  -3.000000000000864 -1 0  -2.950000000001029 -1 0  -2.900000000001185 -1 0  -2.850000000001347 -1 0  -2.800000000001506 -1 0  -2.750000000001665 -1 0  -2.700000000001827 -1 0  -2.650000000001979 -1 0  -2.600000000002148 -1 0  -2.550000000002311 -1 0  -2.500000000002468 -1 0  -2.450000000002635 -1 0  -2.400000000002789 -1 0  -2.35000000000295 -1 0  -2.30000000000311 -1 0  -2.250000000003253 -1 0  -2.200000000003431 -1 0  -2.150000000003601 -1 0  -2.100000000003752 -1 0  -2.050000000003922 -1 0  -2.000000000004072 -1 0  -1.950000000004237 -1 0  -1.900000000004393 -1 0  -1.850000000004541 -1 0  -1.800000000004714 -1 0  -1.750000000004886 -1 0  -1.700000000005035 -1 0  -1.650000000005206 -1 0  -1.600000000005355 -1 0  -1.550000000005516 -1 0  -1.500000000005676 -1 0  -1.450000000005824 -1 0  -1.400000000005996 -1 0  -1.350000000006146 -1 0  -1.300000000006318 -1 0  -1.250000000006505 -1 0  -1.200000000006638 -1 0  -1.150000000006797 -1 0  -1.100000000006959 -1 0  -1.050000000007106 -1 0  -1.000000000007245 -1 0  -0.9500000000072193 -1 0  -0.9000000000072612 -1 0  -0.8500000000071966 -1 0  -0.8000000000071381 -1 0  -0.750000000007085 -1 0  -0.700000000007015 -1 0  -0.6500000000069521 -1 0  -0.6000000000068919 -1 0  -0.5500000000068104 -1 0  -0.5000000000067688 -1 0  -0.4500000000067104 -1 0  -0.4000000000066457 -1 0  -0.3500000000065757 -1 0  -0.3000000000065226 -1 0  -0.2500000000064961 -1 0  -0.2000000000063995 -1 0  -0.1500000000063775 -1 0  -0.1000000000062764 -1 0  -0.0500000000062597 -1 0  -6.153300091682468e-12 -1 0  0.04999999999390781 -1 0  0.09999999999396891 -1 0  0.14999999999403 -1 0  0.1999999999940929 -1 0  0.2499999999941318 -1 0  0.299999999994216 -1 0  0.349999999994254 -1 0  0.3999999999943391 -1 0  0.4499999999944038 -1 0  0.4999999999944613 -1 0  0.5499999999945429 -1 0  0.5999999999945853 -1 0  0.6499999999946606 -1 0  0.6999999999947084 -1 0  0.7499999999947651 -1 0  0.7999999999948315 -1 0  0.8499999999948926 -1 0  0.8999999999949537 -1 0  0.9499999999950148 -1 0  0.9999999999950768 -1 0  1.049999999995139 -1 0  1.0999999999952 -1 0  1.149999999995266 -1 0  1.199999999995324 -1 0  1.249999999995385 -1 0  1.299999999995446 -1 0  1.349999999995488 -1 0  1.399999999995569 -1 0  1.449999999995604 -1 0  1.499999999995692 -1 0  1.549999999995753 -1 0  1.599999999995816 -1 0  1.649999999995892 -1 0  1.699999999995939 -1 0  1.749999999996017 -1 0  1.799999999996063 -1 0  1.849999999996111 -1 0  1.899999999996185 -1 0  1.949999999996246 -1 0  1.999999999996308 -1 0  2.049999999996351 -1 0  2.099999999996431 -1 0  2.149999999996504 -1 0  2.199999999996555 -1 0  2.249999999996616 -1 0  2.299999999996677 -1 0  2.349999999996736 -1 0  2.3999999999968 -1 0  2.449999999996847 -1 0  2.499999999996923 -1 0  2.549999999997 -1 0  2.599999999997047 -1 0  2.649999999997093 -1 0  2.69999999999717 -1 0  2.749999999997245 -1 0  2.799999999997293 -1 0  2.849999999997344 -1 0  2.899999999997416 -1 0  2.949999999997469 -1 0  2.999999999997539 -1 0  3.049999999997576 -1 0  3.099999999997662 -1 0  3.149999999997725 -1 0  3.199999999997784 -1 0  3.249999999997829 -1 0  3.299999999997908 -1 0  3.349999999997921 -1 0  3.39999999999803 -1 0  3.4499999999981 -1 0  3.499999999998153 -1 0  3.549999999998214 -1 0  3.599999999998277 -1 0  3.649999999998409 -1 0  3.699999999998401 -1 0  3.749999999998444 -1 0  3.799999999998523 -1 0  3.849999999998602 -1 0  3.899999999998645 -1 0  3.949999999998658 -1 0  3.999999999998769 -1 0  4.049999999998814 -1 0  4.099999999998893 -1 0  4.149999999998883 -1 0  4.199999999999015 -1 0  4.249999999999064 -1 0  4.299999999999137 -1 0  4.349999999999152 -1 0  4.399999999999261 -1 0  4.44999999999933 -1 0  4.499999999999385 -1 0  4.549999999999446 -1 0  4.599999999999508 -1 0  4.649999999999633 -1 0  4.699999999999632 -1 0  4.749999999999723 -1 0  4.799999999999754 -1 0  4.849999999999801 -1 0  4.899999999999876 -1 0  4.949999999999925 -1 0  5 -0.950000000000111 0  5 -0.9000000000002774 0  5 -0.8500000000004283 0  5 -0.8000000000005548 0  5 -0.7500000000006787 0  5 -0.7000000000008322 0  5 -0.6500000000009709 0  5 -0.6000000000011096 0  5 -0.5500000000012484 0  5 -0.500000000001387 0  5 -0.4500000000015256 0  5 -0.4000000000016644 0  5 -0.3500000000018031 0  5 -0.3000000000019418 0  5 -0.2500000000020806 0  5 -0.2000000000022192 0  5 -0.1500000000023578 0  5 -0.1000000000024964 0  5 -0.05000000000262439 0  5 -2.752242878045763e-12 0  5 0.0499999999973757 0  5 0.09999999999750342 0  5 0.1499999999976422 0  5 0.1999999999977808 0  5 0.2499999999979194 0  5 0.2999999999980583 0  5 0.3499999999981969 0  5 0.3999999999983355 0  5 0.4499999999984743 0  5 0.4999999999986129 0  5 0.5499999999987515 0  5 0.5999999999988903 0  5 0.6499999999990291 0  5 0.699999999999168 0  5 0.7499999999993068 0  5 0.7999999999994454 0  5 0.849999999999584 0  5 0.8999999999997226 0  5 0.9499999999998612 0  4.949999999999965 1 0  4.899999999999877 1 0  4.849999999999826 1 0  4.799999999999754 1 0  4.749999999999695 1 0  4.69999999999963 1 0  4.649999999999565 1 0  4.599999999999507 1 0  4.549999999999454 1 0  4.499999999999384 1 0  4.449999999999317 1 0  4.399999999999261 1 0  4.349999999999206 1 0  4.299999999999137 1 0  4.249999999999075 1 0  4.199999999999013 1 0  4.149999999998934 1 0  4.09999999999889 1 0  4.049999999998847 1 0  3.999999999998767 1 0  3.949999999998706 1 0  3.899999999998644 1 0  3.849999999998594 1 0  3.799999999998552 1 0  3.749999999998549 1 0  3.699999999998651 1 0  3.649999999998804 1 0  3.59999999999894 1 0  3.549999999999097 1 0  3.499999999999261 1 0  3.449999999999394 1 0  3.399999999999582 1 0  3.349999999999742 1 0  3.299999999999902 1 0  3.25000000000006 1 0  3.200000000000223 1 0  3.150000000000369 1 0  3.100000000000544 1 0  3.050000000000704 1 0  3.000000000000864 1 0  2.950000000001029 1 0  2.900000000001185 1 0  2.850000000001347 1 0  2.800000000001506 1 0  2.750000000001665 1 0  2.700000000001827 1 0  2.650000000001979 1 0  2.600000000002148 1 0  2.550000000002311 1 0  2.500000000002468 1 0  2.450000000002635 1 0  2.400000000002789 1 0  2.35000000000295 1 0  2.30000000000311 1 0  2.250000000003253 1 0  2.200000000003431 1 0  2.150000000003601 1 0  2.100000000003752 1 0  2.050000000003922 1 0  2.000000000004072 1 0  1.950000000004237 1 0  1.900000000004393 1 0  1.850000000004541 1 0  1.800000000004714 1 0  1.750000000004886 1 0  1.700000000005035 1 0  1.650000000005206 1 0  1.600000000005355 1 0  1.550000000005516 1 0  1.500000000005676 1 0  1.450000000005824 1 0  1.400000000005996 1 0  1.350000000006146 1 0  1.300000000006318 1 0  1.250000000006505 1 0  1.200000000006638 1 0  1.150000000006797 1 0  1.100000000006959 1 0  1.050000000007106 1 0  1.000000000007245 1 0  0.9500000000072193 1 0  0.9000000000072612 1 0  0.8500000000071966 1 0  0.8000000000071381 1 0  0.750000000007085 1 0  0.700000000007015 1 0  0.6500000000069521 1 0  0.6000000000068919 1 0  0.5500000000068104 1 0  0.5000000000067688 1 0  0.4500000000067104 1 0  0.4000000000066457 1 0  0.3500000000065757 1 0  0.3000000000065226 1 0  0.2500000000064961 1 0  0.2000000000063995 1 0  0.1500000000063775 1 0  0.1000000000062764 1 0  0.0500000000062597 1 0  6.153300091682468e-12 1 0  -0.04999999999390781 1 0  -0.09999999999396891 1 0  -0.14999999999403 1 0  -0.1999999999940929 1 0  -0.2499999999941318 1 0  -0.299999999994216 1 0  -0.349999999994254 1 0  -0.3999999999943391 1 0  -0.4499999999944038 1 0  -0.4999999999944613 1 0  -0.5499999999945429 1 0  -0.5999999999945853 1 0  -0.6499999999946606 1 0  -0.6999999999947084 1 0  -0.7499999999947651 1 0  -0.7999999999948315 1 0  -0.8499999999948926 1 0  -0.8999999999949537 1 0  -0.9499999999950148 1 0  -0.9999999999950768 1 0  -1.049999999995139 1 0  -1.0999999999952 1 0  -1.149999999995266 1 0  -1.199999999995324 1 0  -1.249999999995385 1 0  -1.299999999995446 1 0  -1.349999999995488 1 0  -1.399999999995569 1 0  -1.449999999995604 1 0  -1.499999999995692 1 0  -1.549999999995753 1 0  -1.599999999995816 1 0  -1.649999999995892 1 0  -1.699999999995939 1 0  -1.749999999996017 1 0  -1.799999999996063 1 0  -1.849999999996111 1 0  -1.899999999996185 1 0  -1.949999999996246 1 0  -1.999999999996308 1 0  -2.049999999996351 1 0  -2.099999999996431 1 0  -2.149999999996504 1 0  -2.199999999996555 1 0  -2.249999999996616 1 0  -2.299999999996677 1 0  -2.349999999996736 1 0  -2.3999999999968 1 0  -2.449999999996847 1 0  -2.499999999996923 1 0  -2.549999999997 1 0  -2.599999999997047 1 0  -2.649999999997093 1 0  -2.69999999999717 1 0  -2.749999999997245 1 0  -2.799999999997293 1 0  -2.849999999997344 1 0  -2.899999999997416 1 0  -2.949999999997469 1 0  -2.999999999997539 1 0  -3.049999999997576 1 0  -3.099999999997662 1 0  -3.149999999997725 1 0  -3.199999999997784 1 0  -3.249999999997829 1 0  -3.29999
[...]
<PointData  Vectors="(h, u)"> 
<DataArray  type="Float64"  Name="(h, u)"  NumberOfComponents="3" format="ascii">9.9855782308980086e+00 0.0000000000000000e+00 0.0000000000000000e+00  9.9999999999999956e-01 0.0000000000000000e+00 0.0000000000000000e+00  9.9999999999999944e-01 0.0000000000000000e+00 0.0000000000000000e+00  9.9928028020037480e+00 0.0000000000000000e+00 0.0000000000000000e+00  1.0006552407219555e+01 1.4208110840931122e-03 0.0000000000000000e+00  9.9886095666427135e+00 -9.3912976104913628e-04 0.0000000000000000e+00  1.0004424205077850e+01 4.0472423120628195e-03 0.0000000000000000e+00  9.9810094429603016e+00 -1.1533374438781167e-02 0.0000000000000000e+00  1.0014827773259560e+01 1.1527313184353634e-02 0.0000000000000000e+00  9.9860177055655246e+00 -8.6622639755234258e-03 0.0000000000000000e+00  9.9988308715209016e+00 -1.7032795551401338e-02 0.0000000000000000e+00  1.0002290727176552e+01 2.6944045759043151e-02 0.0000000000000000e+00  9.9953801004150069e+00 2.7636177500729394e-04 0.0000000000000000e+00  9.9794415706089321e+00 -3.8376776245910259e-02 0.0000000000000000e+00  1.0030071593264720e+01 4.2184789812714854e-02 0.0000000000000000e+00  9.9751727113544462e+00 -1.9072032548622681e-02 0.0000000000000000e+00  9.9921554501011247e+00 -2.3669326796190084e-02 0.0000000000000000e+00  1.0025974468077379e+01 3.6937002085657998e-02 0.0000000000000000e+00  9.9831492089425531e+00 -1.4562064482826433e-02 0.0000000000000000e+00  9.9785990801733675e+00 -3.1334787401844942e-02 0.0000000000000000e+00  1.0046431396694013e+01 5.4557884246421114e-02 0.0000000000000000e+00  9.9631448175070556e+00 -3.5140329488411289e-02 0.0000000000000000e+00  9.9952389706971747e+00 -1.2365011144354046e-02 0.0000000000000000e+00  1.0034490426169281e+01 4.2665839303329053e-02 0.0000000000000000e+00  9.9729970823485683e+00 -2.5797804968025518e-02 0.0000000000000000e+00  9.9851946281357584e+00 -2.2577044327160980e-02 0.0000000000000000e+00  1.0046067355899487e+01 5.7836609445835324e-02 0.0000000000000000e+00  9.9573801739880921e+00 -4.4982872126806649e-02 0.0000000000000000e+00  1.0004889707089404e+01 4.6348697755624357e-04 0.0000000000000000e+00  1.0023258134980429e+01 3.4993533772913941e-02 0.0000000000000000e+00  9.9754670800663234e+00 -2.4938261180196302e-02 0.0000000000000000e+00  9.9953630443826036e+00 -1.2742185956812693e-02 0.0000000000000000e+00  1.0024203612332281e+01 4.3875857937811812e-02 0.0000000000000000e+00  9.9699415996869707e+00 -3.5855349661460749e-02 0.0000000000000000e+00  1.0013089066602593e+01 1.0048427895940529e-02 0.0000000000000000e+00  9.9932576108315168e+00 1.2663852686647631e-02 0.0000000000000000e+00  9.9958728466367166e+00 -5.3940249347559695e-03 0.0000000000000000e+00  1.0002895483459357e+01 -6.3684810244192197e-03 0.0000000000000000e+00  9.9859248305042048e+00 1.7481522676019667e-02 0.0000000000000000e+00  9.9984064694883550e+00 -9.8853036866265332e-03 0.0000000000000000e+00  1.0016662313318818e+01 1.5148274759285141e-02 0.0000000000000000e+00  9.9540612735085219e+00 -1.5093370908267763e-02 0.0000000000000000e+00  1.0023261890750025e+01 2.2278799287324652e-02 0.0000000000000000e+00  1.0007737456837894e+01 -8.7627555449290345e-04 0.0000000000000000e+00  9.9456445303929044e+00 -8.0805054119306875e-03 0.0000000000000000e+00  1.0022190426494150e+01 1.5347856370967172e-02 0.0000000000000000e+00  1.0020193771211540e+01 2.2824467483596220e-02 0.0000000000000000e+00  9.9183580924671126e+00 -3.2925018952747701e-02 0.0000000000000000e+00  1.0034718363058078e+01 4.1172326263746957e-02 0.0000000000000000e+00  1.0009516983866241e+01 1.2678200672875960e-02 0.0000000000000000e+00  9.9140001377492268e+00 -1.2016368329949687e-02 0.0000000000000000e+00  1.0014295783488155e+01 3.0787842497965914e-02 0.0000000000000000e+00  1.0013362478063774e+01 4.7163541429759141e-02 0.0000000000000000e+00  9.8838509091683111e+00 -1.2137804331169148e-02 0.0000000000000000e+00  9.9989297912980746e+00 6.4002126651610591e-02 0.0000000000000000e+00  9.9761832047252383e+00 5.9642498192156522e-02 0.0000000000000000e+00  9.8623499139716948e+00 5.0035310242484927e-02 0.0000000000000000e+00  9.9314216769458294e+00 8.5546794850489730e-02 0.0000000000000000e+00  9.9294139910445871e+00 1.3694948074496666e-01 0.0000000000000000e+00  9.7831533952273499e+00 1.1846367747918027e-01 0.0000000000000000e+00  9.8456697263785227e+00 1.8357229275274728e-01 0.0000000000000000e+00  9.8067083653781548e+00 2.2712278657916596e-01 0.0000000000000000e+00  9.6755262081043529e+00 2.7507294887495781e-01 0.0000000000000000e+00  9.6787947986725822e+00 3.1312248377810448e-01 0.0000000000000000e+00  9.6438926302112566e+00 4.1003782732786359e-01 0.0000000000000000e+00  9.4774654328190966e+00 4.7059305660838258e-01 0.0000000000000000e+00  9.4703542285088442e+00 5.4009453125403062e-01 0.0000000000000000e+00  9.3911776826171298e+00 6.3797022141206916e-01 0.0000000000000000e+00  9.2318181764214362e+00 7.5792309685023596e-01 0.0000000000000000e+00  9.1771665770165480e+00 8.1725847047645117e-01 0.0000000000000000e+00  9.0971477371635014e+00 9.5413772917646900e-01 0.0000000000000000e+00  8.9045937571463742e+00 1.0926076333255743e+00 0.0000000000000000e+00  8.8483080168588568e+00 1.1726611564211205e+00 0.0000000000000000e+00  8.7339638523285519e+00 1.3150786912368018e+00 0.0000000000000000e+00  8.5462337452880330e+00 1.4955063565781719e+00 0.0000000000000000e+00  8.4602525722317523e+00 1.5695818188103237e+00 0.0000000000000000e+00  8.3495893955154070e+00 1.7338496644429715e+00 0.0000000000000000e+00  8.1358638126587230e+00 1.9372718064376502e+00 0.0000000000000000e+00  8.0592401020410005e+00 2.0139601596411194e+00 0.0000000000000000e+00  7.9241804823172135e+00 2.1842214037742393e+00 0.0000000000000000e+00  7.7168501501380291e+00 2.4201080145432989e+00 0.0000000000000000e+00  7.6254651094516861e+00 2.4842006719203598e+00 0.0000000000000000e+00  7.4991804815422514e+00 2.6680195295071121e+00 0.0000000000000000e+00  7.2689846728405474e+00 2.9262122973948483e+00 0.0000000000000000e+00  7.1977021629534734e+00 2.9839171406490257e+00 0.0000000000000000e+00  7.0527991949115263e+00 3.1670149561435057e+00 0.0000000000000000e+00  6.8297942038913684e+00 3.4584503125958039e+00 0.0000000000000000e+00  6.7510475078265042e+00 3.4994898532348286e+00 0.0000000000000000e+00  6.6214989707563978e+00 3.6907491645917765e+00 0.0000000000000000e+00  6.3729472451163662e+00 3.9962672253776579e+00 0.0000000000000000e+00  6.3211846195684895e+00 4.0431287358544230e+00 0.0000000000000000e+00  6.1759436326634063e+00 4.2232672295436231e+00 0.0000000000000000e+00  5.9369480013193270e+00 4.5502544563152467e+00 0.0000000000000000e+00  5.8741987666311601e+00 4.5908461958477584e+00 0.0000000000000000e+00  5.7588623224878450e+00 4.7723698812255719e+00 0.0000000000000000e+00  5.4872673995920582e+00 5.1095113894869169e+00 0.0000000000000000e+00  5.4570780528379874e+00 5.1518692329255229e+00 0.0000000000000000e+00  5.3237453247835145e+00 5.3237110742866527e+00 0.0000000000000000e+00  5.0813717283820585e+00 5.6723107695545227e+00 0.0000000000000000e+00  5.0310557144542871e+00 5.7069948987704278e+00 0.0000000000000000e+00  4.9179272656251038e+00 5.9005667498851322e+00 0.0000000000000000e+00  4.6759555090966840e+00 6.2173222749004111e+00 0.0000000000000000e+00  4.6424251796910134e+00 6.2838289996852268e+00 0.0000000000000000e+00  4.4559856902917945e+00 6.5397723823930383e+00 0.0000000000000000e+00  4.3206552415415551e+00 6.7501491214802414e+00 0.0000000000000000e+00  4.2169652333403915e+00 6.8925426466211910e+00 0.0000000000000000e+00  4.0924677382000061e+00 7.1084713893879972e+00 0.0000000000000000e+00  3.9152478545299219e+00 7.3579810248205817e+00 0.0000000000000000e+00  3.7994823701853684e+00 7.5620308322700867e+00 0.0000000000000000e+00  3.7515036096190624e+00 7.6878436952741049e+00 0.0000000000000000e+00  3.7306637919150414e+00 7.7645060885403421e+00 0.0000000000000000e+00  3.8415399644829513e+00 7.5578822562483836e+00 0.0000000000000000e+00  3.9592906062511122e+00 7.3227992436133640e+00 0.0000000000000000e+00  3.9243960841611569e+00 7.3513976655309188e+00 0.0000000000000000e+00  3.9025024613984214e+00 7.3796330587747780e+00 0.0000000000000000e+00  3.8808884516080688e+00 7.4071766791039222e+00 0.0000000000000000e+00  3.8700319391386624e+00 7.4155389814786092e+00 0.0000000000000000e+00  3.8705207195160307e+00 7.4094814556937392e+00 0.0000000000000000e+00  3.8788801744346046e+00 7.3970389746638894e+00 0.0000000000000000e+00  3.8916351834412777e+00 7.3793321473152478e+00 0.0000000000000000e+00  3.8980204967817031e+00 7.3713775041699252e+00 0.0000000000000000e+00  3.8978642154207694e+00 7.3717129611156977e+00 0.0000000000000000e+00  3.9011948381368908e+00 7.3649851606947792e+00 0.0000000000000000e+00  3.9073596985512662e+00 7.3556317669398537e+00 0.0000000000000000e+00  3.9145843093945301e+00 7.3469086055585295e+00 0.0000000000000000e+00  3.9233017236159724e+00 7.3359155488940786e+00 0.0000000000000000e+00  3.9286396163344532e+00 7.3298098805134293e+00 0.0000000000000000e+00  3.9303325456021487e+00 7.3279243284814166e+00 0.0000000000000000e+00  3.9314821783540106e+00 7.3247268770453600e+00 0.0000000000000000e+00  3.9312783178262554e+00 7.3236804722707909e+00 0.0000000000000000e+00  3.9310751863749931e+00 7.3239951944645529e+00 0.0000000000000000e+00  3.9319583194348260e+00 7.3238979827893269e+00 0.0000000000000000e+00  3.9319153086989420e+00 7.3271254258378260e+00 0.0000000000000000e+00  3.9315940717158000e+00 7.3312349085241904e+00 0.0000000000000000e+00  3.9310201900321169e+00 7.3324684022122719e+00 0.0000000000000000e+00  3.9268581701925607e+00 7.3301731417602296e+00 0.0000000000000000e+00  3.9155611408385544e+00 7.3142057361256887e+00 0.0000000000000000e+00  3.8877751789117614e+00 7.2657752092251213e+00 0.0000000000000000e+00  3.8215702124304842e+00 7.1539079484928552e+00 0.0000000000000000e+00  3.6791195998244075e+00 6.9105405392524455e+00 0.0000000000000000e+00  3.3924910969791555e+00 6.3977142386921448e+00 0.0000000000000000e+00  2.8328741938347801e+00 5.2933673614131855e+00 0.0000000000000000e+00  1.9354608598768732e+00 3.0542726598522991e+00 0.0000000000000000e+00  1.1296195332235419e+00 3.7011801286897095e-01 0.0000000000000000e+00  9.9808949212127407e-01 1.0212952601345679e-02 0.0000000000000000e+00  1.0006152921724876e+00 -1.5697227763283841e-03 0.0000000000000000e+00  1.0000644711991249e+00 -1.7420668309055208e-04 0.0000000000000000e+00  9.9990386634353456e-01 3.0326392247741836e-04 0.0000000000000000e+00  1.0000231890436087e+00 -7.2507908622678496e-05 0.0000000000000000e+00  1.0000201596973646e+00 -6.3322106283378746e-05 0.0000000000000000e+00  9.9997563071715634e-01 7.6620633795154388e-05 0.0000000000000000e+00  1.0000115031211438e+00 -3.6297622355329267e-05 0.0000000000000000e+00  1.0000001174395834e+00 -1.7691971045588897e-07 0.0000000000000000e+00  9.9999601731130394e-01 1.2341591619872728e-05 0.0000000000000000e+00  1.0000021117397528e+00 -6.4987117278212467e-06 0.0000000000000000e+00  1.0000011198915773e+00 -3.6240112480172326e-06 0.0000000000000000e+00  9.9999701696898891e-01 9.4494111576787218e-06 0.0000000000000000e+00  1.0000031045223481e+00 -9.7979685501357926e-06 0.0000000000000000e+00  9.9999766387145850e-01 7.3458677638204339e-06 0.0000000000000000e+00  1.0000015376664513e+00 -4.8006543041125070e-06 0.0000000000000000e+00  9.9999893040342236e-01 3.3010940731062332e-06 0.0000000000000000e+00  1.0000008856685401e+00 -2.7041178746342722e-06 0.0000000000000000e+00  9.9999918908769969e-01 2.4587057765235532e-06 0.0000000000000000e+00  1.0000007253967973e+00 -2.1855981704771474e-06 0.0000000000000000e+00  9.9999939868441701e-01 1.7957253479439578e-06 0.0000000000000000e+00  1.0000004620659895e+00 -1.3619341279819012e-06 0.0000000000000000e+00  9.9999966356899750e-01 9.7439090290548200e-07 0.0000000000000000e+00  1.0000002381340811e+00 -6.7563491018768412e-07 0.0000000000000000e+00  9.9999983323609964e-01 4.6328596712404607e-07 0.0000000000000000e+00  1.0000001159394238e+00 -3.1593835176874292e-07 0.0000000000000000e+00  9.9999992059335119e-01 2.1271161240906075e-07 0.0000000000000000e+00  1.0000000530191921e+00 -1.3974935765033862e-07 0.0000000000000000e+00  9.9999996570809491e-01 8.8887777975273160e-08 0.0000000000000000e+00  1.0000000214858797e+00 -5.4690972272905083e-08 0.0000000000000000e+00  9.9999998689033309e-01 3.2730424503634427e-08 0.0000000000000000e+00  1.0000000078458766e+00 -1.9213267470712349e-08 0.0000000000000000e+00  9.9999999536901452e-01 1.1138781254021446e-08 0.0000000000000000e+00  1.0000000026990126e+00 -6.3890759694382410e-09 0.0000000000000000e+00  9.9999999845133536e-01 3.6127349010514943e-09 0.0000000000000000e+00  1.0000000008708749e+00 -2.0018017562945992e-09 0.0000000000000000e+00  9.9999999952145402e-01 1.0823621301518387e-09 0.0000000000000000e+00  1.0000000002571874e+00 -5.7153336077084844e-10 0.0000000000000000e+00  9.9999999986412225e-01 2.9671983328041545e-10 0.0000000000000000e+00  1.0000000000711098e+00 -1.5307594374048890e-10 0.0000000000000000e+00  9.9999999996288358e-01 7.9246717199404265e-11 0.0000000000000000e+00  1.0000000000193787e+00 -4.1322910794023516e-11 0.0000000000000000e+00  9.9999999998989819e-01 2.1621731102355151e-11 0.0000000000000000e+00  1.0000000000052347e+00 -1.1263338914213067e-11 0.0000000000000000e+00  9.9999999999731204e-01 5.8059464103973564e-12 0.0000000000000000e+00  1.0000000000013685e+00 -2.9611687544909563e-12 0.0000000000000000e+00  9.9999999999930655e-01 1.5011523367010171e-12 0.0000000000000000e+00  1.0000000000003513e+00 -7.6151342020432862e-13 0.0000000000000000e+00  9.9999999999982192e-01 3.8666453439214989e-13 0.0000000000000000e+00  1.0000000000000895e+00 -1.9558471694581012e-13 0.0000000000000000e+00  9.9999999999995526e-01 9.6622929607156179e-14 0.0000000000000000e+00  1.0000000000000211e+00 -4.5760490497075651e-14 0.0000000000000000e+00  9.9999999999999023e-01 2.1370306090807341e-14 0.0000000000000000e+00  1.0000000000000038e+00 -9.3188981833301838e-15 0.0000000000000000e+00  9.9999999999999867e-01 4.1601503924461617e-15 0.0000000000000000e+00  1.0000000000000004e+00 -1.1712027667268937e-15 0.0000000000000000e+00  1.0000000000000002e+00 4.5962031119911305e-16 0.0000000000000000e+00  1.0000000000000000e+00 -1.1369668330506503e-15 0.0000000000000000e+00  1.0000000000000007e+00 8.1946503275362824e-16 0.0000000000000000e+00  1.0000000000000007e+00 0.0000000000000000e+00 1.6661620341586626e-16  1.0000000000000000e+00 0.0000000000000000e+00 -6.7985813326929470e-16  1.0000000000000007e+00 0.0000000000000000e+00 1.9099492042104719e-16  9.9999999999999933e-01 0.0000000000000000e+00 -8.0585570217111620e-17  1.0000000000000007e+00 0.0000000000000000e+00 3.5044353186094352e-16  9.9999999999999989e-01 0.0000000000000000e+00 -7.5020684054533185e-16  1.0000000000000007e+00 0.0000000000000000e+00 8.4835559309586160e-16  9.9999999999999956e-01 0.0000000000000000e+00 4.9717904053901557e-17  1.0000000000000009e+00 0.0000000000000000e+00 -5.5999215069105385e-16  1.0000000000000000e+00 0.0000000000000000e+00 -1.1417160672222364e-15  1.0000000000000007e+00 0.0000000000000000e+00 1.7049991171006314e-16  1.0000000000000000e+00 0.0000000000000000e+00 -4.8965375626061589e-16  1.0000000000000016e+00 0.0000000000000000e+00 1.2186498832417669e-15  1.0000000000000002e+00 0.0000000000000000e+00 1.8842919374870280e-16  1.0000000000000002e+00 0.0000000000000000e+00 1.0974481833966726e-15  1.0000000000000002e+00 0.0000000000000000e+00 -8.8656398328523030e-16  1.0000000000000011e+00 0.0000000000000000e+00 3.9032672157653396e-16  9.9999999999999944e-01 0.0000000000000000e+00 2.8938354614743786e-16  1.0000000000000009e+00 0.0000000000000000e+00 -7.8545726289316329e-19  1.0000000000000000e+00 0.0000000000000000e+00 -1.0788958030532704e-15  1.0000000000000007e+00 0.0000000000000000e+00 3.8800212906294768e-16  9.9999999999999967e-01 0.0000000000000000e+00 -4.5915529590612351e-16  1.0000000000000007e+00 0.0000000000000000e+00 -4.6420225190709226e-16  9.9999999999999944e-01 0.0000000000000000e+00 -1.0689034000633888e-15  1.0000000000000007e+00 0.0000000000000000e+00 2.7395328410934288e-17  9.9999999999999944e-01 0.0000000000000000e+00 5.4846403020660800e-16  1.0000000000000007e+00 0.0000000000000000e+00 -3.7256826194816924e-16  9.9999999999999944e-01 0.0000000000000000e+00 5.2607098966661437e-16  1.0000000000000007e+00 0.0000000000000000e+00 -3.6512641098942976e-16  9.9999999999999944e-01 0.0000000000000000e+00 1.4988835552381432e-16  1.0000000000000007e+00 0.0000000000000000e+00 -3.9305290243364947e-16  9.9999999999999944e-01 0.0000000000000000e+00 -5.6629428055257211e-16  1.0000000000000007e+00 0.0000000000000000e+00 -4.2123944226153432e-16  9.9999999999999944e-01 0.0000000000000000e+00 -1.2491176276828414e-16  1.0000000000000007e+00 0.0000000000000000e+00 -7.8439810805016205e-17  9.9999999999999944e-01 0.0000000000000000e+00 5.0651316699838676e-16  1.0000000000000007e+00 0.0000000000000000e+00 7.0547666277090508e-16  9.9999999999999944e-01 0.0000000000000000e+00 2.3949523364808249e-16  1.0000000000000007e+00 0.0000000000000000e+00 8.5423422950622012e-16  1.0000000000000007e+00 4.3557930817944673e-16 0.0000000000000000e+00  9.9999999999999956e-01 -5.2628016124006707e-16 0.0000000000000000e+00  1.0000000000000007e+00 8.0559349714968413e-16 0.0000000000000000e+00  9.9999999999999944e-01 7.6783322645190600e-16 0.0000000000000000e+00  1.0000000000000007e+00 2.7833472272030142e-18 0.0000000000000000e+00  9.9999999999999944e-01 5.5001172848391260e-16 0.0000000000000000e+00  1.0000000000000004e+00 6.6267002373828006e-16 0.0000000000000000e+00  9.9999999999999944e-01 6.7204290523500414e-17 0.0000000000000000e+00  1.0000000000000009e+00 -1.1744573149980344e-15 0.0000000000000000e+00  9.9999999999999833e-01 3.1870563254127467e-15 0.0000000000000000e+00  1.0000000000000027e+00 -5.9532002747526074e-15 0.0000000000000000e+00  9.9999999999999811e-01 5.1382975663476603e-15 0.0000000000000000e+00  9.9999999999999822e-01 5.2689478208971496e-15 0.0000000000000000e+00  1.0000000000000111e+00 -3.2629914294945107e-14 0.0000000000000000e+00  9.9999999999998024e-01 5.9063817982247294e-14 0.0000000000000000e+00  1.0000000000000147e+00 -6.2983657470740380e-14 0.0000000000000000e+00  1.0000000000000122e+00 -6.5972349400216322e-15 0.0000000000000000e+00  9.9999999999992772e-01 2.4466242674411489e-13 0.0000000000000000e+00  1.0000000000001574e+00 -6.1945929059587567e-13 0.0000000000000000e+00  9.9999999999985134e-01 4.2633311921713258e-13 0.0000000000000000e+00  9.9999999999957623e-01 1.0209920899872807e-12 0.0000000000000000e+00  1.0000000000014286e+00 -4.0132091129684281e-12 0.0000000000000000e+00  9.9999999999764233e-01 6.7095046022876902e-12 0.0000000000000000e+00  1.0000000000015026e+00 -3.0086754483454116e-12 0.0000000000000000e+00  1.0000000000029172e+00 -1.2855107310320771e-11 0.0000000000000000e+00  9.9999999999180189e-01 2.5379551393344763e-11 0.0000000000000000e+00  9.9999999999689770e-01 1.0608561209749481e-11 0.0000000000000000e+00  1.0000000000427944e+00 -2.0300350478692026e-10 0.0000000000000000e+00  9.9999999986001997e-01 3.8239577476751059e-10 0.0000000000000000e+00  1.0000000000207487e+00 -4.3272041502567720e-10 0.0000000000000000e+00  1.0000000002208504e+00 -3.1162835014874649e-10 0.0000000000000000e+00  9.9999999890283076e-01 2.7913539258994649e-09 0.0000000000000000e+00  1.0000000023147517e+00 -5.7798516019212123e-09 0.0000000000000000e+00  9.9999999696448694e-01 6.7108473722278541e-09 0.0000000000000000e+00  1.0000000017236548e+00 -6.4699615614727035e-09 0.0000000000000000e+00  9.9999999670698725e-01 1.5494536772342831e-08 0.0000000000000000e+00  1.0000000120134975e+00 -2.6793946282598071e-08 0.0000000000000000e+00  9.9999999493753888e-01 -2.0741599252197336e-08 0.0000000000000000e+00  9.9999997598118728e-01 4.9891101401708031e-08 0.0000000000000000e+00  9.9999998274968371e-01 -3.1303260514576217e-08 0.0000000000000000e+00  1.0000001114800630e+00 -1.8889374319129627e-07 0.00000