<?xml version="1.0"?>
<VTKFile type="UnstructuredGrid"  version="0.1"  >
<UnstructuredGrid>
<Piece  NumberOfPoints="9509" NumberOfCells="18536">
<Points>
<DataArray  type="Float64"  NumberOfComponents="3"  format="ascii">-5 -1 0  5 -1 0  5 1 0  -5 1 0  -4.949999999999965 -1 0  -4.899999999999877 -1 0  -4.849999999999826 -1 0  -4.799999999999754 -1 0  -4.749999999999695 -1 0  -4.69999999999963 -1 0  -4.649999999999565 -1 0  -4.599999999999507 -1 0  -4.549999999999454 -1 0  -4.499999999999384 -1 0  -4.449999999999317 -1 0  -4.399999999999261 -1 0  -4.349999999999206 -1 0  -4.299999999999137 -1 0  -4.249999999999075 -1 0  -4.199999999999013 -1 0  -4.149999999998934 -1 0  -4.09999999999889 -1 0  -4.049999999998847 -1 0  -3.999999999998767 -1 0  -3.949999999998706 -1 0  -3.899999999998644 -1 0  -3.849999999998594 -1 0  -3.799999999998552 -1 0  -3.749999999998549 -1 0  -3.699999999998651 -1 0  -3.649999999998804 -1 0  -3.59999999999894 -1 0  -3.549999999999097 -1 0  -3.499999999999261 -1 0  -3.449999999999394 -1 0  -3.399999999999582 -1 0  -3.349999999999742 -1 0  -3.299999999999902 -1 0  -3.25000000000006 -1 0  -3.200000000000223 -1 0  -3.150000000000369 -1 0  -3.100000000000544 -1 0  -3.050000000000704 -1 0  -3.000000000000864 -1 0  -2.950000000001029 -1 0  -2.900000000001185 -1 0  -2.850000000001347 -1 0  -2.800000000001506 -1 0  -2.750000000001665 -1 0  -2.700000000001827 -1 0  -2.650000000001979 -1 0  -2.600000000002148 -1 0  -2.550000000002311 -1 0  -2.500000000002468 -1 0  -2.450000000002635 -1 0  -2.400000000002789 -1 0  -2.35000000000295 -1 0  -2.30000000000311 -1 0  -2.250000000003253 -1 0  -2.200000000003431 -1 0  -2.150000000003601 -1 0  -2.100000000003752 -1 0  -2.050000000003922 -1 0  -2.000000000004072 -1 0  -1.950000000004237 -1 0  -1.900000000004393 -1 0  -1.850000000004541 -1 0  -1.800000000004714 -1 0  -1.750000000004886 -1 0  -1.700000000005035 -1 0  -1.650000000005206 -1 0  -1.600000000005355 -1 0  -1.550000000005516 -1 0  -1.500000000005676 -1 0  -1.450000000005824 -1 0  -1.400000000005996 -1 0  -1.350000000006146 -1 0  -1.300000000006318 -1 0  -1.250000000006505 -1 0  -1.200000000006638 -1 0  -1.150000000006797 -1 0  -1.100000000006959 -1 0  -1.050000000007106 -1 0  -1.000000000007245 -1 0  -0.9500000000072193 -1 0  -0.9000000000072612 -1 0  -0.8500000000071966 -1 0  -0.8000000000071381 -1 0  -0.750000000007085 -1 0  -0.700000000007015 -1 0  -0.6500000000069521 -1 0  -0.6000000000068919 -1 0  -0.5500000000068104 -1 0  -0.5000000000067688 -1 0  -0.4500000000067104 -1 0  -0.4000000000066457 -1 0  -0.3500000000065757 -1 0  -0.3000000000065226 -1 0  -0.2500000000064961 -1 0  -0.2000000000063995 -1 0  -0.1500000000063775 -1 0  -0.1000000000062764 -1 0  -0.0500000000062597 -1 0  -6.153300091682468e-12 -1 0  0.04999999999390781 -1 0  0.09999999999396891 -1 0  0.14999999999403 -1 0  0.1999999999940929 -1 0  0.2499999999941318 -1 0  0.299999999994216 -1 0  0.349999999994254 -1 0  0.3999999999943391 -1 0  0.4499999999944038 -1 0  0.4999999999944613 -1 0  0.5499999999945429 -1 0  0.5999999999945853 -1 0  0.6499999999946606 -1 0  0.6999999999947084 -1 0  0.7499999999947651 -1 0  0.7999999999948315 -1 0  0.8499999999948926 -1 0  0.8999999999949537 -1 0  0.9499999999950148 -1 0  0.9999999999950768 -1 0  1.049999999995139 -1 0  1.0999999999952 -1 0  1.149999999995266 -1 0  1.199999999995324 -1 0  1.249999999995385 -1 0  1.299999999995446 -1 0  1.349999999995488 -1 0  1.399999999995569 -1 0  1.449999999995604 -1 0  1.499999999995692 -1 0  1.549999999995753 -1 0  1.599999999995816 -1 0  1.649999999995892 -1 0  1.699999999995939 -1 0  1.749999999996017 -1 0  1.799999999996063 -1 0  1.849999999996111 -1 0  1.899999999996185 -1 0  1.949999999996246 -1 0  1.999999999996308 -1 0  2.049999999996351 -1 0  2.099999999996431 -1 0  2.149999999996504 -1 0  2.199999999996555 -1 0  2.249999999996616 -1 0  2.299999999996677 -1 0  2.349999999996736 -1 0  2.3999999999968 -1 0  2.449999999996847 -1 0  2.499999999996923 -1 0  2.549999999997 -1 0  2.599999999997047 -1 0  2.649999999997093 -1 0  2.69999999999717 -1 0  2.749999999997245 -1 0  2.799999999997293 -1 0  2.849999999997344 -1 0  2.899999999997416 -1 0  2.949999999997469 -1 0  2.999999999997539 -1 0  3.049999999997576 -1 0  3.099999999997662 -1 0  3.149999999997725 -1 0  3.199999999997784 -1 0  3.249999999997829 -1 0  3.299999999997908 -1 0  3.349999999997921 -1 0  3.39999999999803 -1 0  3.4499999999981 -1 0  3.499999999998153 -1 0  3.549999999998214 -1 0  3.599999999998277 -1 0  3.649999999998409 -1 0  3.699999999998401 -1 0  3.749999999998444 -1 0  3.799999999998523 -1 0  3.849999999998602 -1 0  3.899999999998645 -1 0  3.949999999998658 -1 0  3.999999999998769 -1 0  4.049999999998814 -1 0  4.099999999998893 -1 0  4.149999999998883 -1 0  4.199999999999015 -1 0  4.249999999999064 -1 0  4.299999999999137 -1 0  4.349999999999152 -1 0  4.399999999999261 -1 0  4.44999999999933 -1 0  4.499999999999385 -1 0  4.549999999999446 -1 0  4.599999999999508 -1 0  4.649999999999633 -1 0  4.699999999999632 -1 0  4.749999999999723 -1 0  4.799999999999754 -1 0  4.849999999999801 -1 0  4.899999999999876 -1 0  4.949999999999925 -1 0  5 -0.950000000000111 0  5 -0.9000000000002774 0  5 -0.8500000000004283 0  5 -0.8000000000005548 0  5 -0.7500000000006787 0  5 -0.7000000000008322 0  5 -0.6500000000009709 0  5 -0.6000000000011096 0  5 -0.5500000000012484 0  5 -0.500000000001387 0  5 -0.4500000000015256 0  5 -0.4000000000016644 0  5 -0.3500000000018031 0  5 -0.3000000000019418 0  5 -0.2500000000020806 0  5 -0.2000000000022192 0  5 -0.1500000000023578 0  5 -0.1000000000024964 0  5 -0.05000000000262439 0  5 -2.752242878045763e-12 0  5 0.0499999999973757 0  5 0.09999999999750342 0  5 0.1499999999976422 0  5 0.1999999999977808 0  5 0.2499999999979194 0  5 0.2999999999980583 0  5 0.3499999999981969 0  5 0.3999999999983355 0  5 0.4499999999984743 0  5 0.4999999999986129 0  5 0.5499999999987515 0  5 0.5999999999988903 0  5 0.6499999999990291 0  5 0.699999999999168 0  5 0.7499999999993068 0  5 0.7999999999994454 0  5 0.849999999999584 0  5 0.8999999999997226 0  5 0.9499999999998612 0  4.949999999999965 1 0  4.899999999999877 1 0  4.849999999999826 1 0  4.799999999999754 1 0  4.749999999999695 1 0  4.69999999999963 1 0  4.649999999999565 1 0  4.599999999999507 1 0  4.549999999999454 1 0  4.499999999999384 1 0  4.449999999999317 1 0  4.399999999999261 1 0  4.349999999999206 1 0  4.299999999999137 1 0  4.249999999999075 1 0  4.199999999999013 1 0  4.149999999998934 1 0  4.09999999999889 1 0  4.049999999998847 1 0  3.999999999998767 1 0  3.949999999998706 1 0  3.899999999998644 1 0  3.849999999998594 1 0  3.799999999998552 1 0  3.749999999998549 1 0  3.699999999998651 1 0  3.649999999998804 1 0  3.59999999999894 1 0  3.549999999999097 1 0  3.499999999999261 1 0  3.449999999999394 1 0  3.399999999999582 1 0  3.349999999999742 1 0  3.299999999999902 1 0  3.25000000000006 1 0  3.200000000000223 1 0  3.150000000000369 1 0  3.100000000000544 1 0  3.050000000000704 1 0  3.000000000000864 1 0  2.950000000001029 1 0  2.900000000001185 1 0  2.850000000001347 1 0  2.800000000001506 1 0  2.750000000001665 1 0  2.700000000001827 1 0  2.650000000001979 1 0  2.600000000002148 1 0  2.550000000002311 1 0  2.500000000002468 1 0  2.450000000002635 1 0  2.400000000002789 1 0  2.35000000000295 1 0  2.30000000000311 1 0  2.250000000003253 1 0  2.200000000003431 1 0  2.150000000003601 1 0  2.100000000003752 1 0  2.050000000003922 1 0  2.000000000004072 1 0  1.950000000004237 1 0  1.900000000004393 1 0  1.850000000004541 1 0  1.800000000004714 1 0  1.750000000004886 1 0  1.700000000005035 1 0  1.650000000005206 1 0  1.600000000005355 1 0  1.550000000005516 1 0  1.500000000005676 1 0  1.450000000005824 1 0  1.400000000005996 1 0  1.350000000006146 1 0  1.300000000006318 1 0  1.250000000006505 1 0  1.200000000006638 1 0  1.150000000006797 1 0  1.100000000006959 1 0  1.050000000007106 1 0  1.000000000007245 1 0  0.9500000000072193 1 0  0.9000000000072612 1 0  0.8500000000071966 1 0  0.8000000000071381 1 0  0.750000000007085 1 0  0.700000000007015 1 0  0.6500000000069521 1 0  0.6000000000068919 1 0  0.5500000000068104 1 0  0.5000000000067688 1 0  0.4500000000067104 1 0  0.4000000000066457 1 0  0.3500000000065757 1 0  0.3000000000065226 1 0  0.2500000000064961 1 0  0.2000000000063995 1 0  0.1500000000063775 1 0  0.1000000000062764 1 0  0.0500000000062597 1 0  6.153300091682468e-12 1 0  -0.04999999999390781 1 0  -0.09999999999396891 1 0  -0.14999999999403 1 0  -0.1999999999940929 1 0  -0.2499999999941318 1 0  -0.299999999994216 1 0  -0.349999999994254 1 0  -0.3999999999943391 1 0  -0.4499999999944038 1 0  -0.4999999999944613 1 0  -0.5499999999945429 1 0  -0.5999999999945853 1 0  -0.6499999999946606 1 0  -0.6999999999947084 1 0  -0.7499999999947651 1 0  -0.7999999999948315 1 0  -0.8499999999948926 1 0  -0.8999999999949537 1 0  -0.9499999999950148 1 0  -0.9999999999950768 1 0  -1.049999999995139 1 0  -1.0999999999952 1 0  -1.149999999995266 1 0  -1.199999999995324 1 0  -1.249999999995385 1 0  -1.299999999995446 1 0  -1.349999999995488 1 0  -1.399999999995569 1 0  -1.449999999995604 1 0  -1.499999999995692 1 0  -1.549999999995753 1 0  -1.599999999995816 1 0  -1.649999999995892 1 0  -1.699999999995939 1 0  -1.749999999996017 1 0  -1.799999999996063 1 0  -1.849999999996111 1 0  -1.899999999996185 1 0  -1.949999999996246 1 0  -1.999999999996308 1 0  -2.049999999996351 1 0  -2.099999999996431 1 0  -2.149999999996504 1 0  -2.199999999996555 1 0  -2.249999999996616 1 0  -2.299999999996677 1 0  -2.349999999996736 1 0  -2.3999999999968 1 0  -2.449999999996847 1 0  -2.499999999996923 1 0  -2.549999999997 1 0  -2.599999999997047 1 0  -2.649999999997093 1 0  -2.69999999999717 1 0  -2.749999999997245 1 0  -2.799999999997293 1 0  -2.849999999997344 1 0  -2.899999999997416 1 0  -2.949999999997469 1 0  -2.999999999997539 1 0  -3.049999999997576 1 0  -3.099999999997662 1 0  -3.149999999997725 1 0  -3.199999999997784 1 0  -3.249999999997829 1 0  -3.29999
[...]
<PointData  Vectors="(h, u)"> 
<DataArray  type="Float64"  Name="(h, u)"  NumberOfComponents="3" format="ascii">7.5857453517007638e+00 0.0000000000000000e+00 0.0000000000000000e+00  9.5278198994651859e+00 0.0000000000000000e+00 0.0000000000000000e+00  9.5025667871579422e+00 0.0000000000000000e+00 0.0000000000000000e+00  7.5871547574039919e+00 0.0000000000000000e+00 0.0000000000000000e+00  7.5780631428898539e+00 9.3803616666949252e-02 0.0000000000000000e+00  7.5849003368739858e+00 1.8513191534523168e-01 0.0000000000000000e+00  7.5752069990542017e+00 2.7155622232644411e-01 0.0000000000000000e+00  7.5793106300749260e+00 3.6553804495543735e-01 0.0000000000000000e+00  7.5709333586704952e+00 4.5988170553381325e-01 0.0000000000000000e+00  7.5717826687951026e+00 5.4167311349255676e-01 0.0000000000000000e+00  7.5599841520477478e+00 6.3464362592472645e-01 0.0000000000000000e+00  7.5629235704747098e+00 7.4033330812635667e-01 0.0000000000000000e+00  7.5479937527508945e+00 7.9595024183258978e-01 0.0000000000000000e+00  7.5493212522708903e+00 8.9789029053061675e-01 0.0000000000000000e+00  7.5351760339976606e+00 1.0086896495296771e+00 0.0000000000000000e+00  7.5307386227612474e+00 1.0653782042581403e+00 0.0000000000000000e+00  7.5154560854366625e+00 1.1619663193421601e+00 0.0000000000000000e+00  7.5142815707302182e+00 1.2717382492723179e+00 0.0000000000000000e+00  7.4916409130070623e+00 1.3295974824042047e+00 0.0000000000000000e+00  7.4870484468226577e+00 1.4254820549162388e+00 0.0000000000000000e+00  7.4727173284757384e+00 1.5269940476230282e+00 0.0000000000000000e+00  7.4562062221968706e+00 1.5948695498095888e+00 0.0000000000000000e+00  7.4392217899320396e+00 1.6712273732341556e+00 0.0000000000000000e+00  7.4324279796357873e+00 1.7922534352400339e+00 0.0000000000000000e+00  7.4033846653039843e+00 1.8322354019642422e+00 0.0000000000000000e+00  7.3896356237636764e+00 1.9371655702657371e+00 0.0000000000000000e+00  7.3768088917090315e+00 2.0192118387836766e+00 0.0000000000000000e+00  7.3464986564128614e+00 2.1017601486841011e+00 0.0000000000000000e+00  7.3260082255323997e+00 2.1464243097233062e+00 0.0000000000000000e+00  7.3147486040218368e+00 2.3006701645597438e+00 0.0000000000000000e+00  7.2777572092748333e+00 2.2888362494471224e+00 0.0000000000000000e+00  7.2534029455602322e+00 2.4288438002303208e+00 0.0000000000000000e+00  7.2430037050363181e+00 2.4969548620067754e+00 0.0000000000000000e+00  7.1988118175432039e+00 2.5221206399029916e+00 0.0000000000000000e+00  7.1726234924931562e+00 2.6830502526931856e+00 0.0000000000000000e+00  7.1587851664927591e+00 2.6474303575648315e+00 0.0000000000000000e+00  7.1141296209197797e+00 2.8355581077039211e+00 0.0000000000000000e+00  7.0769550271245283e+00 2.7913010541092498e+00 0.0000000000000000e+00  7.0709224127019139e+00 2.9430607263652022e+00 0.0000000000000000e+00  7.0132760789078654e+00 2.9909766894905414e+00 0.0000000000000000e+00  6.9801678938981846e+00 3.0087164732844753e+00 0.0000000000000000e+00  6.9656241933869820e+00 3.1438121183114571e+00 0.0000000000000000e+00  6.9133676132596209e+00 3.1852626928572909e+00 0.0000000000000000e+00  6.8677768915243087e+00 3.1913007948357812e+00 0.0000000000000000e+00  6.8605873579797265e+00 3.3568420462636928e+00 0.0000000000000000e+00  6.8003382393873091e+00 3.3246294893601656e+00 0.0000000000000000e+00  6.7560456246531206e+00 3.4404910049211717e+00 0.0000000000000000e+00  6.7429987720594511e+00 3.4719917804616802e+00 0.0000000000000000e+00  6.6858737142609073e+00 3.5355454288871511e+00 0.0000000000000000e+00  6.6370846495533131e+00 3.6287128197672280e+00 0.0000000000000000e+00  6.6190674118917512e+00 3.6123223758016629e+00 0.0000000000000000e+00  6.5669296709431659e+00 3.7416978454325007e+00 0.0000000000000000e+00  6.5140874411970495e+00 3.7787038211148283e+00 0.0000000000000000e+00  6.4906913862581197e+00 3.8050644675779628e+00 0.0000000000000000e+00  6.4419340793904993e+00 3.8950534348548511e+00 0.0000000000000000e+00  6.3947062185883583e+00 3.9613928033869299e+00 0.0000000000000000e+00  6.3514198339991204e+00 3.9628199388422338e+00 0.0000000000000000e+00  6.3224397599444737e+00 4.0881415545108846e+00 0.0000000000000000e+00  6.2675475491891381e+00 4.0976857319068376e+00 0.0000000000000000e+00  6.2196814381659156e+00 4.1548842947502624e+00 0.0000000000000000e+00  6.1911601242237557e+00 4.2499166851961627e+00 0.0000000000000000e+00  6.1538284293089811e+00 4.2600784141248740e+00 0.0000000000000000e+00  6.0760768910979124e+00 4.3186629582816796e+00 0.0000000000000000e+00  6.0718861407060345e+00 4.4321781062666101e+00 0.0000000000000000e+00  6.0269608183338157e+00 4.4020824230478279e+00 0.0000000000000000e+00  5.9493982200931912e+00 4.4943721437891098e+00 0.0000000000000000e+00  5.9368312195688739e+00 4.6112204756208790e+00 0.0000000000000000e+00  5.9112543847886405e+00 4.5278781249061346e+00 0.0000000000000000e+00  5.8144633811385047e+00 4.7095153636344937e+00 0.0000000000000000e+00  5.8119501549211599e+00 4.7325584637581768e+00 0.0000000000000000e+00  5.7822865732799817e+00 4.7245204449919553e+00 0.0000000000000000e+00  5.6966661826587659e+00 4.8482730473841382e+00 0.0000000000000000e+00  5.6810195361562998e+00 4.9162753216210016e+00 0.0000000000000000e+00  5.6564910026837545e+00 4.8665281120454802e+00 0.0000000000000000e+00  5.5860862388595125e+00 5.0278168800022502e+00 0.0000000000000000e+00  5.5508093004297718e+00 5.0500998928166041e+00 0.0000000000000000e+00  5.5310663129551010e+00 5.0552320050128454e+00 0.0000000000000000e+00  5.4688697394255685e+00 5.1813635571494121e+00 0.0000000000000000e+00  5.4350907191170643e+00 5.1856760624870715e+00 0.0000000000000000e+00  5.3859590669983524e+00 5.2720006433045628e+00 0.0000000000000000e+00  5.3675764225677014e+00 5.2962209168383296e+00 0.0000000000000000e+00  5.2969792714752915e+00 5.3832476439285166e+00 0.0000000000000000e+00  5.2749735679098864e+00 5.4111397892091233e+00 0.0000000000000000e+00  5.2212254364883144e+00 5.5044300178342098e+00 0.0000000000000000e+00  5.2030556517781372e+00 5.4968984730953530e+00 0.0000000000000000e+00  5.1333950300212532e+00 5.6138047557432333e+00 0.0000000000000000e+00  5.1211758383889681e+00 5.6395722904601646e+00 0.0000000000000000e+00  5.0569661636855185e+00 5.6884506306989513e+00 0.0000000000000000e+00  5.0521763631884475e+00 5.7411038160005310e+00 0.0000000000000000e+00  4.9580947033573803e+00 5.8559177973583862e+00 0.0000000000000000e+00  4.9869461159947424e+00 5.7876430346190375e+00 0.0000000000000000e+00  4.8949827788484024e+00 5.9761726146390108e+00 0.0000000000000000e+00  4.8770335999467438e+00 5.9536293304117613e+00 0.0000000000000000e+00  4.8429227537709423e+00 6.0080919927724281e+00 0.0000000000000000e+00  4.8173614904235089e+00 6.0896046628131320e+00 0.0000000000000000e+00  4.7167299531678735e+00 6.1667935699611416e+00 0.0000000000000000e+00  4.7607357682797735e+00 6.1540112104778180e+00 0.0000000000000000e+00  4.6865287724939311e+00 6.2572527652744849e+00 0.0000000000000000e+00  4.6462604863729480e+00 6.2772777277224794e+00 0.0000000000000000e+00  4.6253304644815865e+00 6.3698332359854710e+00 0.0000000000000000e+00  4.5968425282254737e+00 6.3530971869370276e+00 0.0000000000000000e+00  4.4822819578722619e+00 6.5608223580737475e+00 0.0000000000000000e+00  4.5667336392933606e+00 6.4203242606359208e+00 0.0000000000000000e+00  4.4669499296130253e+00 6.5649745292769470e+00 0.0000000000000000e+00  4.4167570779660421e+00 6.6464111954680298e+00 0.0000000000000000e+00  4.3450477702273966e+00 6.7483613596288521e+00 0.0000000000000000e+00  4.3732976362586138e+00 6.7016016887215573e+00 0.0000000000000000e+00  4.3092745067521037e+00 6.8209344959742246e+00 0.0000000000000000e+00  4.2716253972696503e+00 6.8281013676694791e+00 0.0000000000000000e+00  4.2088722492693185e+00 6.9801224683533523e+00 0.0000000000000000e+00  4.2170702939027551e+00 6.9095666795392452e+00 0.0000000000000000e+00  4.1182755795281381e+00 7.1053235573549625e+00 0.0000000000000000e+00  4.1176450154766533e+00 7.0858271966037352e+00 0.0000000000000000e+00  4.0803359793231202e+00 7.1358816539438195e+00 0.0000000000000000e+00  4.0924401319908670e+00 7.1577732157098835e+00 0.0000000000000000e+00  4.0023646280054495e+00 7.2544783382216176e+00 0.0000000000000000e+00  4.0289790602702000e+00 7.2500969366052779e+00 0.0000000000000000e+00  3.9906986952278274e+00 7.3084044225082199e+00 0.0000000000000000e+00  3.9630863976864044e+00 7.3464007999950232e+00 0.0000000000000000e+00  3.8565480618541117e+00 7.4850810749120047e+00 0.0000000000000000e+00  3.8311147523198761e+00 7.5597558579327977e+00 0.0000000000000000e+00  3.9673761470865085e+00 7.3356650740589986e+00 0.0000000000000000e+00  3.6657883128161726e+00 7.7910774909167246e+00 0.0000000000000000e+00  3.7639590981490638e+00 7.6729908048526543e+00 0.0000000000000000e+00  3.7234625856354882e+00 7.7185682620615870e+00 0.0000000000000000e+00  3.7530930735574710e+00 7.6521931815074256e+00 0.0000000000000000e+00  3.8972949285736793e+00 7.4485620761117071e+00 0.0000000000000000e+00  4.0873607679043378e+00 7.1558494665117971e+00 0.0000000000000000e+00  3.7785309984459210e+00 7.6141818284918408e+00 0.0000000000000000e+00  3.9771020373818207e+00 7.3218860207169714e+00 0.0000000000000000e+00  4.1756594408130709e+00 7.0440931807138352e+00 0.0000000000000000e+00  3.9751839786772072e+00 7.3140913262111988e+00 0.0000000000000000e+00  3.9772975554874250e+00 7.3660629374740392e+00 0.0000000000000000e+00  3.9938055357267230e+00 7.2423797008818669e+00 0.0000000000000000e+00  4.0967169189729633e+00 7.1995154949300089e+00 0.0000000000000000e+00  3.9515043972964699e+00 7.3583551548653041e+00 0.0000000000000000e+00  3.9263653479436829e+00 7.3838307348546639e+00 0.0000000000000000e+00  3.9430693175494835e+00 7.3334809867928721e+00 0.0000000000000000e+00  3.9853490344912745e+00 7.3866785489714628e+00 0.0000000000000000e+00  3.9134589742529839e+00 7.3172764149760683e+00 0.0000000000000000e+00  3.9666301949638463e+00 7.3859800767634916e+00 0.0000000000000000e+00  3.9870399012925000e+00 7.3049513205522851e+00 0.0000000000000000e+00  3.9482477364727417e+00 7.3651818254707564e+00 0.0000000000000000e+00  3.9288917083464518e+00 7.3394658783571671e+00 0.0000000000000000e+00  4.0083843637135628e+00 7.3899111619779037e+00 0.0000000000000000e+00  3.9202517454202801e+00 7.2782938355915405e+00 0.0000000000000000e+00  4.0020024833594201e+00 7.3788363790669154e+00 0.0000000000000000e+00  3.9520870532814163e+00 7.3353419456472313e+00 0.0000000000000000e+00  3.9804355944237391e+00 7.3231024243503731e+00 0.0000000000000000e+00  3.9688796264837389e+00 7.3279279343804751e+00 0.0000000000000000e+00  3.9815286285790012e+00 7.3938264902772408e+00 0.0000000000000000e+00  3.9246921587925820e+00 7.2969533387612149e+00 0.0000000000000000e+00  4.0277251951156847e+00 7.3437817448187372e+00 0.0000000000000000e+00  3.9736462668466119e+00 7.3350709848191515e+00 0.0000000000000000e+00  3.9663937803283944e+00 7.3138533792456322e+00 0.0000000000000000e+00  3.9782443055372685e+00 7.3425517502851454e+00 0.0000000000000000e+00  4.0112610024941695e+00 7.3764434815536530e+00 0.0000000000000000e+00  3.9326131968757707e+00 7.2430360199146637e+00 0.0000000000000000e+00  3.9828313569223011e+00 7.4545884084442839e+00 0.0000000000000000e+00  3.9865161657679873e+00 7.3055740527717150e+00 0.0000000000000000e+00  3.9584628685562602e+00 7.2929405684918187e+00 0.0000000000000000e+00  3.9744558895489273e+00 7.3818255364566951e+00 0.0000000000000000e+00  3.9898606056798895e+00 7.4092213538842655e+00 0.0000000000000000e+00  3.9202214593952012e+00 7.2325753205792989e+00 0.0000000000000000e+00  3.9955553939384965e+00 7.4255192958863603e+00 0.0000000000000000e+00  3.9845453069946388e+00 7.3890019700969383e+00 0.0000000000000000e+00  3.9326456538500234e+00 7.2242200380899488e+00 0.0000000000000000e+00  3.9933034048278442e+00 7.4035129658276189e+00 0.0000000000000000e+00  3.9869116100920139e+00 7.4435864480527352e+00 0.0000000000000000e+00  3.9313014062014595e+00 7.1748600231131867e+00 0.0000000000000000e+00  3.9593381575127244e+00 7.4502055614140028e+00 0.0000000000000000e+00  4.0269960719472824e+00 7.4267414575861652e+00 0.0000000000000000e+00  3.9028596646510039e+00 7.1709748235692850e+00 0.0000000000000000e+00  3.9882389458878325e+00 7.4439767047510115e+00 0.0000000000000000e+00  3.9919400870673520e+00 7.4490247361668542e+00 0.0000000000000000e+00  3.9384508434012480e+00 7.1261070274607388e+00 0.0000000000000000e+00  3.9560936427060835e+00 7.5287152692984938e+00 0.0000000000000000e+00  3.9927222127389026e+00 7.3292963309770185e+00 0.0000000000000000e+00  3.9636388400600113e+00 7.2853232753251573e+00 0.0000000000000000e+00  3.9292170456504887e+00 7.3774696015914465e+00 0.0000000000000000e+00  4.0271666718089536e+00 7.4237401222080353e+00 0.0000000000000000e+00  3.9221247439490581e+00 7.2347552418126471e+00 0.0000000000000000e+00  3.9628315953399209e+00 7.4414844186721965e+00 0.0000000000000000e+00  3.9922831886651875e+00 7.3203941876701206e+00 0.0000000000000000e+00  3.9571239843071906e+00 7.3381545208765901e+00 0.0000000000000000e+00  3.9437080779582039e+00 7.3791863029957492e+00 0.0000000000000000e+00  3.9935298933285193e+00 7.3423003001566594e+00 0.0000000000000000e+00  3.9491999041694088e+00 7.2834400802754242e+00 0.0000000000000000e+00  3.9631494017378213e+00 7.5688263695547802e+00 0.0000000000000000e+00  4.0824300676580210e+00 6.9881430698025984e+00 0.0000000000000000e+00  4.1498358002941957e+00 6.6791705417496354e+00 0.0000000000000000e+00  1.0114444707101773e+01 -5.0243681136806650e-01 0.0000000000000000e+00  9.0087402991848791e+00 5.5844169370228058e-01 0.0000000000000000e+00  9.6541388829633377e+00 -1.4332020835392686e-01 0.0000000000000000e+00  9.4384518259629626e+00 7.4027851070252920e-02 0.0000000000000000e+00  9.5617329529480006e+00 -3.3429092716502587e-02 0.0000000000000000e+00  9.5668476109737277e+00 -6.2199034153998266e-02 0.0000000000000000e+00  9.4607356658106667e+00 2.3422215241990212e-02 0.0000000000000000e+00  9.5503225393440712e+00 2.3976827648844973e-02 0.0000000000000000e+00  9.5050166516599610e+00 -9.3976448239532967e-02 0.0000000000000000e+00  9.5279039089250741e+00 -1.6670300188007355e-02 0.0000000000000000e+00  9.5295724720898356e+00 -3.2614261865287889e-02 0.0000000000000000e+00  9.4914555878404752e+00 -1.7574051811115890e-01 0.0000000000000000e+00  9.4820475241926534e+00 0.0000000000000000e+00 -7.5697277305772179e-02  9.5128636339831800e+00 0.0000000000000000e+00 -4.5034165126455125e-02  9.5089095665748395e+00 0.0000000000000000e+00 -2.9099745098365954e-02  9.5050146770238406e+00 0.0000000000000000e+00 -7.5903112242397056e-02  9.4970000290482215e+00 0.0000000000000000e+00 2.6876052102350317e-02  9.4909336428155981e+00 0.0000000000000000e+00 5.6892412972511554e-02  9.5075091502998976e+00 0.0000000000000000e+00 1.3679322754703014e-03  9.5028675892347074e+00 0.0000000000000000e+00 -7.3646309002116578e-02  9.4886748246909676e+00 0.0000000000000000e+00 -1.0137833273463895e-01  9.5355760748384508e+00 0.0000000000000000e+00 1.4768628223177699e-01  9.4723991542698904e+00 0.0000000000000000e+00 -2.3450391830606279e-02  9.5133320379806090e+00 0.0000000000000000e+00 2.5803474941085508e-02  9.5167960920490984e+00 0.0000000000000000e+00 -2.5598811712601706e-02  9.4828877918092633e+00 0.0000000000000000e+00 -3.3608653624920243e-02  9.5106729869105511e+00 0.0000000000000000e+00 -7.4559459372526990e-02  9.5203269036398073e+00 0.0000000000000000e+00 -1.5230462513203688e-01  9.4703205666663486e+00 0.0000000000000000e+00 -1.1754655192648759e-01  9.5432466084959682e+00 0.0000000000000000e+00 -2.5382693567721576e-01  9.4977647698569356e+00 0.0000000000000000e+00 2.2438992419910021e-02  9.5066360411981936e+00 0.0000000000000000e+00 7.3710819230159694e-02  9.5064453582721491e+00 0.0000000000000000e+00 -4.8628569918688823e-02  9.4802493079074512e+00 0.0000000000000000e+00 -1.7980585234784360e-01  9.5088938148092481e+00 0.0000000000000000e+00 1.2407059928160644e-02  9.5246574160770958e+00 0.0000000000000000e+00 1.9929322387443285e-01  9.4500334370081145e+00 0.0000000000000000e+00 1.4649881717447808e-02  9.5122748845512746e+00 0.0000000000000000e+00 1.4563700235891713e-01  9.4928582862971833e+00 0.0000000000000000e+00 7.7312802720161224e-03  9.4516303158801414e+00 0.0000000000000000e+00 -1.1568636443373807e-01  9.5060287403010530e+00 0.0000000000000000e+00 -6.3301184089995535e-02  9.4757263022272813e+00 0.0000000000000000e+00 7.3874341773178878e-02  9.4756670811765726e+00 0.0000000000000000e+00 1.0387435967860023e-02  9.4960265421653833e+00 0.0000000000000000e+00 -1.7157420416203154e-01  9.3755973702676023e+00 0.0000000000000000e+00 -1.9655364492502946e-02  9.4098343677361509e+00 0.0000000000000000e+00 -1.4002002262540922e-01  9.5580717727797744e+00 0.0000000000000000e+00 -1.2911835119520848e-01  9.5010093136361053e+00 0.0000000000000000e+00 -8.5635851242201508e-02  9.3997308618278872e+00 0.0000000000000000e+00 -9.0550544285182152e-02  9.6159934581529161e+00 0.0000000000000000e+00 -1.9254840095447651e-01  9.4488356382352059e+00 0.0000000000000000e+00 1.8334082205778163e-02  9.3696195736675811e+00 -3.2220419655932903e-01 0.0000000000000000e+00  9.5735322047234117e+00 -2.7448958594264411e-01 0.0000000000000000e+00  9.4266598446512599e+00 -1.5124491355828262e-01 0.0000000000000000e+00  9.5397384434125616e+00 -2.9639455012423327e-01 0.0000000000000000e+00  9.5465645953239591e+00 -8.6598462075059401e-01 0.0000000000000000e+00  9.2980512579378907e+00 -5.4052152341376059e-01 0.0000000000000000e+00  9.4931259480290162e+00 -4.9204233570076839e-01 0.0000000000000000e+00  9.6352043219110506e+00 -5.4191639911194300e-01 0.0000000000000000e+00  9.3940550899115269e+00 -3.9934585935064776e-01 0.0000000000000000e+00  9.5563358547841748e+00 -3.4337279734893011e-01 0.0000000000000000e+00  8.9005947359937494e+00 5.9580553001114300e-01 0.0000000000000000e+00  1.0457080550744349e+01 -8.9690242966635669e-01 0.0000000000000000e+00  4.1698850240183756e+00 6.9004927511393781e+00 0.0000000000000000e+00  3.9641813219241335e+00 6.8869439997135951e+00 0.0000000000000000e+00  3.9306148159085872e+00 7.5984264997897988e+00 0.0000000000000000e+00  4.0148828966658856e+00 7.1313095385825340e+00 0.0000000000000000e+00  3.8943886620377106e+00 7.5509882371554626e+00 0.0000000000000000e+00  3.9150755392529986e+00 7.1889017318130817e+00 0.0000000000000000e+00  3.8947889059168705e+00 7.4436702524172018e+00 0.0000000000000000e+00  3.9669866497492041e+00 7.4218280337636982e+00 0.0000000000000000e+00  3.8791401948751170e+00 7.1958874933849311e+00 0.0000000000000000e+00  4.0089356602379729e+00 7.3445512812656677e+00 0.0000000000000000e+00  3.9383233321307660e+00 7.3446852106695628e+00 0.0000000000000000e+00  3.9074789300626946e+00 7.1888817564764418e+00 0.0000000000000000e+00  3.9554780435654768e+00 7.4161697667243880e+00 0.0000000000000000e+00  3.9244292624537138e+00 7.2743558905330286e+00 0.0000000000000000e+00  3.9204407590070129e+00 7.2759142716832352e+00 0.0000000000000000e+00  3.9440353352213107e+00 7.3480082728496852e+00 0.0000000000000000e+00  3.9163713086743681e+00 7.2881652802096220e+00 0.0000000000000000e+00  3.9242678842010461e+00 7.3169317564421306e+00 0.0000000000000000e+00  3.8823936348622037e+00 7.3596432945088051e+00 0.0000000000000000e+00  3.9329786337723598e+00 7.3111411452735711e+00 0.0000000000000000e+00  3.9314746729278802e+00 7.3118485387258927e+00 0.0000000000000000e+00  3.9237816693366656e+00 7.2854317881413317e+00 0.0000000000000000e+00  3.8965430516694739e+00 7.3819501540633965e+00 0.0000000000000000e+00  3.9404888534341871e+00 7.3000131199523777e+00 0.0000000000000000e+00  3.8409293594244494e+00 7.3652012297934233e+00 0.0000000000000000e+00  3.9210563592540097e+00 7.3948074355156601e+00 0.0000000000000000e+00  3.9443082534267981e+00 7.2894923445418485e+00 0.0000000000000000e+00  3.9158971374068101e+00 7.3643488504679899e+00 0.0000000000000000e+00  3.9303510341724688e+00 7.3356480912511488e+00 0.0000000000000000e+00  3.9607334276623027e+00 7.2978954649