<?xml version="1.0"?>
<VTKFile type="UnstructuredGrid"  version="0.1"  >
<UnstructuredGrid>
<Piece  NumberOfPoints="9509" NumberOfCells="18536">
<Points>
<DataArray  type="Float64"  NumberOfComponents="3"  format="ascii">-5 -1 0  5 -1 0  5 1 0  -5 1 0  -4.949999999999965 -1 0  -4.899999999999877 -1 0  -4.849999999999826 -1 0  -4.799999999999754 -1 0  -4.749999999999695 -1 0  -4.69999999999963 -1 0  -4.649999999999565 -1 0  -4.599999999999507 -1 0  -4.549999999999454 -1 0  -4.499999999999384 -1 0  -4.449999999999317 -1 0  -4.399999999999261 -1 0  -4.349999999999206 -1 0  -4.299999999999137 -1 0  -4.249999999999075 -1 0  -4.199999999999013 -1 0  -4.149999999998934 -1 0  -4.09999999999889 -1 0  -4.049999999998847 -1 0  -3.999999999998767 -1 0  -3.949999999998706 -1 0  -3.899999999998644 -1 0  -3.849999999998594 -1 0  -3.799999999998552 -1 0  -3.749999999998549 -1 0  -3.699999999998651 -1 0  -3.649999999998804 -1 0  -3.59999999999894 -1 0  -3.549999999999097 -1 0  -3.499999999999261 -1 0  -3.449999999999394 -1 0  -3.399999999999582 -1 0  -3.349999999999742 -1 0  -3.299999999999902 -1 0  -3.25000000000006 -1 0  -3.200000000000223 -1 0  -3.150000000000369 -1 0  -3.100000000000544 -1 0  -3.050000000000704 -1 0  -3.000000000000864 -1 0  -2.950000000001029 -1 0  -2.900000000001185 -1 0  -2.850000000001347 -1 0  -2.800000000001506 -1 0  -2.750000000001665 -1 0  -2.700000000001827 -1 0  -2.650000000001979 -1 0  -2.600000000002148 -1 0  -2.550000000002311 -1 0  -2.500000000002468 -1 0  -2.450000000002635 -1 0  -2.400000000002789 -1 0  -2.35000000000295 -1 0  -2.30000000000311 -1 0  -2.250000000003253 -1 0  -2.200000000003431 -1 0  -2.150000000003601 -1 0  -2.100000000003752 -1 0  -2.050000000003922 -1 0  -2.000000000004072 -1 0  -1.950000000004237 -1 0  -1.900000000004393 -1 0  -1.850000000004541 -1 0  -1.800000000004714 -1 0  -1.750000000004886 -1 0  -1.700000000005035 -1 0  -1.650000000005206 -1 0  -1.600000000005355 -1 0  -1.550000000005516 -1 0  -1.500000000005676 -1 0  -1.450000000005824 -1 0  -1.400000000005996 -1 0  -1.350000000006146 -1 0  -1.300000000006318 -1 0  -1.250000000006505 -1 0  -1.200000000006638 -1 0  -1.150000000006797 -1 0  -1.100000000006959 -1 0  -1.050000000007106 -1 0  -1.000000000007245 -1 0  -0.9500000000072193 -1 0  -0.9000000000072612 -1 0  -0.8500000000071966 -1 0  -0.8000000000071381 -1 0  -0.750000000007085 -1 0  -0.700000000007015 -1 0  -0.6500000000069521 -1 0  -0.6000000000068919 -1 0  -0.5500000000068104 -1 0  -0.5000000000067688 -1 0  -0.4500000000067104 -1 0  -0.4000000000066457 -1 0  -0.3500000000065757 -1 0  -0.3000000000065226 -1 0  -0.2500000000064961 -1 0  -0.2000000000063995 -1 0  -0.1500000000063775 -1 0  -0.1000000000062764 -1 0  -0.0500000000062597 -1 0  -6.153300091682468e-12 -1 0  0.04999999999390781 -1 0  0.09999999999396891 -1 0  0.14999999999403 -1 0  0.1999999999940929 -1 0  0.2499999999941318 -1 0  0.299999999994216 -1 0  0.349999999994254 -1 0  0.3999999999943391 -1 0  0.4499999999944038 -1 0  0.4999999999944613 -1 0  0.5499999999945429 -1 0  0.5999999999945853 -1 0  0.6499999999946606 -1 0  0.6999999999947084 -1 0  0.7499999999947651 -1 0  0.7999999999948315 -1 0  0.8499999999948926 -1 0  0.8999999999949537 -1 0  0.9499999999950148 -1 0  0.9999999999950768 -1 0  1.049999999995139 -1 0  1.0999999999952 -1 0  1.149999999995266 -1 0  1.199999999995324 -1 0  1.249999999995385 -1 0  1.299999999995446 -1 0  1.349999999995488 -1 0  1.399999999995569 -1 0  1.449999999995604 -1 0  1.499999999995692 -1 0  1.549999999995753 -1 0  1.599999999995816 -1 0  1.649999999995892 -1 0  1.699999999995939 -1 0  1.749999999996017 -1 0  1.799999999996063 -1 0  1.849999999996111 -1 0  1.899999999996185 -1 0  1.949999999996246 -1 0  1.999999999996308 -1 0  2.049999999996351 -1 0  2.099999999996431 -1 0  2.149999999996504 -1 0  2.199999999996555 -1 0  2.249999999996616 -1 0  2.299999999996677 -1 0  2.349999999996736 -1 0  2.3999999999968 -1 0  2.449999999996847 -1 0  2.499999999996923 -1 0  2.549999999997 -1 0  2.599999999997047 -1 0  2.649999999997093 -1 0  2.69999999999717 -1 0  2.749999999997245 -1 0  2.799999999997293 -1 0  2.849999999997344 -1 0  2.899999999997416 -1 0  2.949999999997469 -1 0  2.999999999997539 -1 0  3.049999999997576 -1 0  3.099999999997662 -1 0  3.149999999997725 -1 0  3.199999999997784 -1 0  3.249999999997829 -1 0  3.299999999997908 -1 0  3.349999999997921 -1 0  3.39999999999803 -1 0  3.4499999999981 -1 0  3.499999999998153 -1 0  3.549999999998214 -1 0  3.599999999998277 -1 0  3.649999999998409 -1 0  3.699999999998401 -1 0  3.749999999998444 -1 0  3.799999999998523 -1 0  3.849999999998602 -1 0  3.899999999998645 -1 0  3.949999999998658 -1 0  3.999999999998769 -1 0  4.049999999998814 -1 0  4.099999999998893 -1 0  4.149999999998883 -1 0  4.199999999999015 -1 0  4.249999999999064 -1 0  4.299999999999137 -1 0  4.349999999999152 -1 0  4.399999999999261 -1 0  4.44999999999933 -1 0  4.499999999999385 -1 0  4.549999999999446 -1 0  4.599999999999508 -1 0  4.649999999999633 -1 0  4.699999999999632 -1 0  4.749999999999723 -1 0  4.799999999999754 -1 0  4.849999999999801 -1 0  4.899999999999876 -1 0  4.949999999999925 -1 0  5 -0.950000000000111 0  5 -0.9000000000002774 0  5 -0.8500000000004283 0  5 -0.8000000000005548 0  5 -0.7500000000006787 0  5 -0.7000000000008322 0  5 -0.6500000000009709 0  5 -0.6000000000011096 0  5 -0.5500000000012484 0  5 -0.500000000001387 0  5 -0.4500000000015256 0  5 -0.4000000000016644 0  5 -0.3500000000018031 0  5 -0.3000000000019418 0  5 -0.2500000000020806 0  5 -0.2000000000022192 0  5 -0.1500000000023578 0  5 -0.1000000000024964 0  5 -0.05000000000262439 0  5 -2.752242878045763e-12 0  5 0.0499999999973757 0  5 0.09999999999750342 0  5 0.1499999999976422 0  5 0.1999999999977808 0  5 0.2499999999979194 0  5 0.2999999999980583 0  5 0.3499999999981969 0  5 0.3999999999983355 0  5 0.4499999999984743 0  5 0.4999999999986129 0  5 0.5499999999987515 0  5 0.5999999999988903 0  5 0.6499999999990291 0  5 0.699999999999168 0  5 0.7499999999993068 0  5 0.7999999999994454 0  5 0.849999999999584 0  5 0.8999999999997226 0  5 0.9499999999998612 0  4.949999999999965 1 0  4.899999999999877 1 0  4.849999999999826 1 0  4.799999999999754 1 0  4.749999999999695 1 0  4.69999999999963 1 0  4.649999999999565 1 0  4.599999999999507 1 0  4.549999999999454 1 0  4.499999999999384 1 0  4.449999999999317 1 0  4.399999999999261 1 0  4.349999999999206 1 0  4.299999999999137 1 0  4.249999999999075 1 0  4.199999999999013 1 0  4.149999999998934 1 0  4.09999999999889 1 0  4.049999999998847 1 0  3.999999999998767 1 0  3.949999999998706 1 0  3.899999999998644 1 0  3.849999999998594 1 0  3.799999999998552 1 0  3.749999999998549 1 0  3.699999999998651 1 0  3.649999999998804 1 0  3.59999999999894 1 0  3.549999999999097 1 0  3.499999999999261 1 0  3.449999999999394 1 0  3.399999999999582 1 0  3.349999999999742 1 0  3.299999999999902 1 0  3.25000000000006 1 0  3.200000000000223 1 0  3.150000000000369 1 0  3.100000000000544 1 0  3.050000000000704 1 0  3.000000000000864 1 0  2.950000000001029 1 0  2.900000000001185 1 0  2.850000000001347 1 0  2.800000000001506 1 0  2.750000000001665 1 0  2.700000000001827 1 0  2.650000000001979 1 0  2.600000000002148 1 0  2.550000000002311 1 0  2.500000000002468 1 0  2.450000000002635 1 0  2.400000000002789 1 0  2.35000000000295 1 0  2.30000000000311 1 0  2.250000000003253 1 0  2.200000000003431 1 0  2.150000000003601 1 0  2.100000000003752 1 0  2.050000000003922 1 0  2.000000000004072 1 0  1.950000000004237 1 0  1.900000000004393 1 0  1.850000000004541 1 0  1.800000000004714 1 0  1.750000000004886 1 0  1.700000000005035 1 0  1.650000000005206 1 0  1.600000000005355 1 0  1.550000000005516 1 0  1.500000000005676 1 0  1.450000000005824 1 0  1.400000000005996 1 0  1.350000000006146 1 0  1.300000000006318 1 0  1.250000000006505 1 0  1.200000000006638 1 0  1.150000000006797 1 0  1.100000000006959 1 0  1.050000000007106 1 0  1.000000000007245 1 0  0.9500000000072193 1 0  0.9000000000072612 1 0  0.8500000000071966 1 0  0.8000000000071381 1 0  0.750000000007085 1 0  0.700000000007015 1 0  0.6500000000069521 1 0  0.6000000000068919 1 0  0.5500000000068104 1 0  0.5000000000067688 1 0  0.4500000000067104 1 0  0.4000000000066457 1 0  0.3500000000065757 1 0  0.3000000000065226 1 0  0.2500000000064961 1 0  0.2000000000063995 1 0  0.1500000000063775 1 0  0.1000000000062764 1 0  0.0500000000062597 1 0  6.153300091682468e-12 1 0  -0.04999999999390781 1 0  -0.09999999999396891 1 0  -0.14999999999403 1 0  -0.1999999999940929 1 0  -0.2499999999941318 1 0  -0.299999999994216 1 0  -0.349999999994254 1 0  -0.3999999999943391 1 0  -0.4499999999944038 1 0  -0.4999999999944613 1 0  -0.5499999999945429 1 0  -0.5999999999945853 1 0  -0.6499999999946606 1 0  -0.6999999999947084 1 0  -0.7499999999947651 1 0  -0.7999999999948315 1 0  -0.8499999999948926 1 0  -0.8999999999949537 1 0  -0.9499999999950148 1 0  -0.9999999999950768 1 0  -1.049999999995139 1 0  -1.0999999999952 1 0  -1.149999999995266 1 0  -1.199999999995324 1 0  -1.249999999995385 1 0  -1.299999999995446 1 0  -1.349999999995488 1 0  -1.399999999995569 1 0  -1.449999999995604 1 0  -1.499999999995692 1 0  -1.549999999995753 1 0  -1.599999999995816 1 0  -1.649999999995892 1 0  -1.699999999995939 1 0  -1.749999999996017 1 0  -1.799999999996063 1 0  -1.849999999996111 1 0  -1.899999999996185 1 0  -1.949999999996246 1 0  -1.999999999996308 1 0  -2.049999999996351 1 0  -2.099999999996431 1 0  -2.149999999996504 1 0  -2.199999999996555 1 0  -2.249999999996616 1 0  -2.299999999996677 1 0  -2.349999999996736 1 0  -2.3999999999968 1 0  -2.449999999996847 1 0  -2.499999999996923 1 0  -2.549999999997 1 0  -2.599999999997047 1 0  -2.649999999997093 1 0  -2.69999999999717 1 0  -2.749999999997245 1 0  -2.799999999997293 1 0  -2.849999999997344 1 0  -2.899999999997416 1 0  -2.949999999997469 1 0  -2.999999999997539 1 0  -3.049999999997576 1 0  -3.099999999997662 1 0  -3.149999999997725 1 0  -3.199999999997784 1 0  -3.249999999997829 1 0  -3.29999
[...]
<PointData  Vectors="(h, u)"> 
<DataArray  type="Float64"  Name="(h, u)"  NumberOfComponents="3" format="ascii">9.9836631811985654e+00 0.0000000000000000e+00 0.0000000000000000e+00  9.9999999999972533e-01 0.0000000000000000e+00 0.0000000000000000e+00  9.9999999999996514e-01 0.0000000000000000e+00 0.0000000000000000e+00  9.9788483118476741e+00 0.0000000000000000e+00 0.0000000000000000e+00  9.9906884514911241e+00 1.0849489195433928e-02 0.0000000000000000e+00  9.9810776335999289e+00 -5.6632153992325299e-03 0.0000000000000000e+00  1.0004875449006924e+01 2.4230214043968157e-04 0.0000000000000000e+00  1.0001847058568023e+01 1.6646865454780491e-02 0.0000000000000000e+00  9.9736193856517605e+00 -1.4726741057731450e-02 0.0000000000000000e+00  9.9971627816772273e+00 7.5459966913384684e-03 0.0000000000000000e+00  1.0012402957631792e+01 1.8872883974906430e-02 0.0000000000000000e+00  9.9670069868200493e+00 -2.4326897089265886e-02 0.0000000000000000e+00  1.0031342911992621e+01 -1.5144758353648276e-03 0.0000000000000000e+00  9.9976116374721915e+00 1.3489057473411219e-02 0.0000000000000000e+00  9.9607783446723843e+00 -1.4728329757657621e-02 0.0000000000000000e+00  1.0021289346006315e+01 -7.8086411644628165e-03 0.0000000000000000e+00  1.0022156216805094e+01 2.7488901024697195e-02 0.0000000000000000e+00  9.9166942024143587e+00 -3.2322845191306106e-02 0.0000000000000000e+00  1.0053194183458126e+01 1.3407687730948624e-02 0.0000000000000000e+00  9.9939737995137534e+00 9.3396356768008192e-03 0.0000000000000000e+00  9.9370820912010327e+00 -1.8672159809110869e-02 0.0000000000000000e+00  1.0019728049417518e+01 5.7024879577804374e-03 0.0000000000000000e+00  1.0028985467572628e+01 1.8429102779874324e-02 0.0000000000000000e+00  9.9018049477511205e+00 -2.6816921892453903e-02 0.0000000000000000e+00  1.0045206229500073e+01 2.0311605769664145e-02 0.0000000000000000e+00  1.0001807169258175e+01 3.5327142348788843e-03 0.0000000000000000e+00  9.9344439221293470e+00 -5.2353136869767490e-03 0.0000000000000000e+00  1.0006655356103874e+01 3.8663344463336189e-03 0.0000000000000000e+00  1.0033526216863443e+01 2.1518898013682761e-02 0.0000000000000000e+00  9.9105758459880171e+00 -1.5470678734968719e-02 0.0000000000000000e+00  1.0024850654198941e+01 2.2038296822674792e-02 0.0000000000000000e+00  1.0003270740992045e+01 3.6797857410228894e-03 0.0000000000000000e+00  9.9436769298600343e+00 1.6392971308771372e-02 0.0000000000000000e+00  9.9850334805854839e+00 1.8374507412566075e-03 0.0000000000000000e+00  1.0019316350180850e+01 3.2041461793203468e-02 0.0000000000000000e+00  9.9207539187200133e+00 9.6897608246045135e-03 0.0000000000000000e+00  9.9884984145274185e+00 3.4239787245319023e-02 0.0000000000000000e+00  9.9768501062880404e+00 2.2238376105672177e-02 0.0000000000000000e+00  9.9314526827848280e+00 6.1546314366368080e-02 0.0000000000000000e+00  9.9362655546537457e+00 3.3334569450705967e-02 0.0000000000000000e+00  9.9581578229877756e+00 7.7790409838897526e-02 0.0000000000000000e+00  9.8809064967700824e+00 8.3719436821900736e-02 0.0000000000000000e+00  9.9010373514386281e+00 1.0511797634637597e-01 0.0000000000000000e+00  9.8762288802645131e+00 1.1086229635228348e-01 0.0000000000000000e+00  9.8343885897740986e+00 1.8313071281897225e-01 0.0000000000000000e+00  9.8002932587368949e+00 1.6278200491121828e-01 0.0000000000000000e+00  9.7928771238398014e+00 2.2810151280414057e-01 0.0000000000000000e+00  9.7157431448011202e+00 2.7360991487000352e-01 0.0000000000000000e+00  9.6927568155912578e+00 3.0615815726196438e-01 0.0000000000000000e+00  9.6381970336794627e+00 3.4271538716794359e-01 0.0000000000000000e+00  9.5847490401406592e+00 4.4909462959539892e-01 0.0000000000000000e+00  9.5130927641889951e+00 4.5153702405806589e-01 0.0000000000000000e+00  9.4735848860741605e+00 5.4235171446850938e-01 0.0000000000000000e+00  9.3810629056023753e+00 6.2846537441371575e-01 0.0000000000000000e+00  9.3250519556554075e+00 6.7549232242255342e-01 0.0000000000000000e+00  9.2411219955775881e+00 7.4672390718909776e-01 0.0000000000000000e+00  9.1711842822813008e+00 8.7980891079405277e-01 0.0000000000000000e+00  9.0722162888971543e+00 9.0587870729371489e-01 0.0000000000000000e+00  9.0088310272404772e+00 1.0174796336476093e+00 0.0000000000000000e+00  8.8995883565667206e+00 1.1390839003246165e+00 0.0000000000000000e+00  8.8236081285042740e+00 1.1913700524912421e+00 0.0000000000000000e+00  8.7209777724697126e+00 1.2978955344282539e+00 0.0000000000000000e+00  8.6352793626070596e+00 1.4414342192795491e+00 0.0000000000000000e+00  8.5239543155103110e+00 1.4922479131678792e+00 0.0000000000000000e+00  8.4447279454919730e+00 1.6090843220911157e+00 0.0000000000000000e+00  8.3246082786521569e+00 1.7687887470493449e+00 0.0000000000000000e+00  8.2376455690908816e+00 1.8061382659622833e+00 0.0000000000000000e+00  8.1282408073314869e+00 1.9548711399036058e+00 0.0000000000000000e+00  8.0275708799812779e+00 2.0912775465926217e+00 0.0000000000000000e+00  7.9166930943986697e+00 2.1671373187785918e+00 0.0000000000000000e+00  7.8259171557972929e+00 2.2762399461251981e+00 0.0000000000000000e+00  7.7009275495460310e+00 2.4779935623418128e+00 0.0000000000000000e+00  7.6096268244290579e+00 2.4858457800170468e+00 0.0000000000000000e+00  7.4999176048498590e+00 2.6710343325720074e+00 0.0000000000000000e+00  7.3865017465639564e+00 2.8129665903269032e+00 0.0000000000000000e+00  7.2844639292811655e+00 2.8821950379388404e+00 0.0000000000000000e+00  7.1860624517273362e+00 3.0051654313318101e+00 0.0000000000000000e+00  7.0574446707461327e+00 3.2240503725186276e+00 0.0000000000000000e+00  6.9711720597155189e+00 3.2233777766651341e+00 0.0000000000000000e+00  6.8619707120923934e+00 3.4103314525499435e+00 0.0000000000000000e+00  6.7389425497785984e+00 3.5736970721577661e+00 0.0000000000000000e+00  6.6498451252659505e+00 3.6444078351299063e+00 0.0000000000000000e+00  6.5479442621411552e+00 3.7471024932989496e+00 0.0000000000000000e+00  6.4141120468953856e+00 4.0067040830955243e+00 0.0000000000000000e+00  6.3349663619827945e+00 3.9820300744406780e+00 0.0000000000000000e+00  6.2328146329779548e+00 4.1905937490601612e+00 0.0000000000000000e+00  6.0930896140259954e+00 4.3450826968506373e+00 0.0000000000000000e+00  6.0191482136312677e+00 4.4303172618401838e+00 0.0000000000000000e+00  5.9258752368953811e+00 4.5255394816334942e+00 0.0000000000000000e+00  5.7700587067671325e+00 4.8001465970556225e+00 0.0000000000000000e+00  5.7114832967441131e+00 4.7795475534770295e+00 0.0000000000000000e+00  5.6269686330862907e+00 4.9517527218394104e+00 0.0000000000000000e+00  5.4500709028185295e+00 5.1726780894917157e+00 0.0000000000000000e+00  5.4175182436324381e+00 5.2083302802971208e+00 0.0000000000000000e+00  5.3363698880423787e+00 5.2991295197602142e+00 0.0000000000000000e+00  5.1362639337327503e+00 5.6242994676777158e+00 0.0000000000000000e+00  5.1447957619413289e+00 5.5517592229688262e+00 0.0000000000000000e+00  5.0618484503527741e+00 5.7024503373587132e+00 0.0000000000000000e+00  4.8340612636410247e+00 6.0182578830886877e+00 0.0000000000000000e+00  4.8636240126961852e+00 5.9655282271120074e+00 0.0000000000000000e+00  4.7944414524497692e+00 6.0696331523618454e+00 0.0000000000000000e+00  4.5261728262971941e+00 6.4589697998639419e+00 0.0000000000000000e+00  4.5607662991532161e+00 6.3978828802987024e+00 0.0000000000000000e+00  4.4778029681246041e+00 6.5261669227500336e+00 0.0000000000000000e+00  4.3730689447887325e+00 6.7011514951024020e+00 0.0000000000000000e+00  4.2676697408436963e+00 6.8237581117104025e+00 0.0000000000000000e+00  4.2020986377094598e+00 6.9565771820182549e+00 0.0000000000000000e+00  4.1133569499933751e+00 7.0675281353334691e+00 0.0000000000000000e+00  4.0715041675763715e+00 7.1691526184526140e+00 0.0000000000000000e+00  3.8856109747922991e+00 7.4089245125653482e+00 0.0000000000000000e+00  3.7997803590723156e+00 7.5643040936300308e+00 0.0000000000000000e+00  3.6952828872256283e+00 7.6903093212401368e+00 0.0000000000000000e+00  3.7388076672165345e+00 7.6705861807832436e+00 0.0000000000000000e+00  3.7171237130045465e+00 7.7100803582967137e+00 0.0000000000000000e+00  3.8531794390700367e+00 7.4716361555456308e+00 0.0000000000000000e+00  3.8621274188079302e+00 7.4419345384075051e+00 0.0000000000000000e+00  3.8641090607021922e+00 7.4358873009653967e+00 0.0000000000000000e+00  3.8732457069097244e+00 7.4222699988309779e+00 0.0000000000000000e+00  3.8949123244039443e+00 7.3817903993562295e+00 0.0000000000000000e+00  3.9085362624750015e+00 7.3653225822249873e+00 0.0000000000000000e+00  3.9015260907555804e+00 7.3677063811762649e+00 0.0000000000000000e+00  3.8886769044758158e+00 7.3827985489681165e+00 0.0000000000000000e+00  3.8896882322926016e+00 7.3725729526387438e+00 0.0000000000000000e+00  3.9079731108270859e+00 7.3474425651430115e+00 0.0000000000000000e+00  3.9156857161078360e+00 7.3339221333571034e+00 0.0000000000000000e+00  3.9077201914535089e+00 7.3401832030891736e+00 0.0000000000000000e+00  3.8899348590718974e+00 7.3574543573161799e+00 0.0000000000000000e+00  3.8815478491695625e+00 7.3639911892335252e+00 0.0000000000000000e+00  3.8887315868826087e+00 7.3526380212820044e+00 0.0000000000000000e+00  3.9014091267374527e+00 7.3375947106672665e+00 0.0000000000000000e+00  3.9070647873769273e+00 7.3319679931039543e+00 0.0000000000000000e+00  3.9017160394157151e+00 7.3378016215436475e+00 0.0000000000000000e+00  3.8909518887469980e+00 7.3484431453491297e+00 0.0000000000000000e+00  3.8851960866963977e+00 7.3515681662290699e+00 0.0000000000000000e+00  3.8878485585377707e+00 7.3451321160243186e+00 0.0000000000000000e+00  3.8931818120020423e+00 7.3376750926296719e+00 0.0000000000000000e+00  3.8977116292498502e+00 7.3316263171879248e+00 0.0000000000000000e+00  3.9010675177753402e+00 7.3262206303454978e+00 0.0000000000000000e+00  3.9028224641501179e+00 7.3231048386149196e+00 0.0000000000000000e+00  3.9038573606042499e+00 7.3210657732103064e+00 0.0000000000000000e+00  3.9051160571266852e+00 7.3190597904692432e+00 0.0000000000000000e+00  3.9062589964081336e+00 7.3186724258171312e+00 0.0000000000000000e+00  3.9073853763371682e+00 7.3194898478505648e+00 0.0000000000000000e+00  3.9088214370320560e+00 7.3206600307423848e+00 0.0000000000000000e+00  3.9104792098045396e+00 7.3225759924344720e+00 0.0000000000000000e+00  3.9121058925368284e+00 7.3244482660524728e+00 0.0000000000000000e+00  3.9131156365964306e+00 7.3255419208594379e+00 0.0000000000000000e+00  3.9136545102271709e+00 7.3250064615159856e+00 0.0000000000000000e+00  3.9138013845919164e+00 7.3210545507825380e+00 0.0000000000000000e+00  3.9121466685037740e+00 7.3123479949731589e+00 0.0000000000000000e+00  3.9063488895206926e+00 7.2962646121109724e+00 0.0000000000000000e+00  3.8922530718161332e+00 7.2640591550904325e+00 0.0000000000000000e+00  3.8596341291728695e+00 7.2013419233613147e+00 0.0000000000000000e+00  3.7878803986195075e+00 7.0752685838973965e+00 0.0000000000000000e+00  3.6320221411735245e+00 6.8059748935150290e+00 0.0000000000000000e+00  3.3133378727821823e+00 6.2318292922633596e+00 0.0000000000000000e+00  2.7091774362456502e+00 5.0119228747926057e+00 0.0000000000000000e+00  1.7825756709511185e+00 2.5890166068740177e+00 0.0000000000000000e+00  1.0768379924123772e+00 1.9260238052833775e-01 0.0000000000000000e+00  9.9750746898654208e-01 6.0408420183404336e-03 0.0000000000000000e+00  1.0001543570760976e+00 -5.6968835330071762e-04 0.0000000000000000e+00  1.0002161512349221e+00 -6.9391579377707090e-04 0.0000000000000000e+00  9.9981997638569042e-01 5.6961176236803581e-04 0.0000000000000000e+00  1.0001135538412924e+00 -3.5547285319621291e-04 0.0000000000000000e+00  9.9992277800360840e-01 2.3715829513456878e-04 0.0000000000000000e+00  1.0000610551019331e+00 -1.8310726626102897e-04 0.0000000000000000e+00  9.9994649138534553e-01 1.5711315852086807e-04 0.0000000000000000e+00  1.0000481606966942e+00 -1.3896815921649204e-04 0.0000000000000000e+00  9.9995792049590015e-01 1.1946060410504158e-04 0.0000000000000000e+00  1.0000347993508056e+00 -9.6971068240276958e-05 0.0000000000000000e+00  9.9997276704164162e-01 7.4181442971733350e-05 0.0000000000000000e+00  1.0000204813999305e+00 -5.4313369097120428e-05 0.0000000000000000e+00  9.9998488768205107e-01 3.8957474223211779e-05 0.0000000000000000e+00  1.0000110992501199e+00 -2.7871902011766767e-05 0.0000000000000000e+00  9.9999187895238373e-01 1.9943979119686132e-05 0.0000000000000000e+00  1.0000058577610187e+00 -1.4101783691218336e-05 0.0000000000000000e+00  9.9999588769442826e-01 9.6937174432804745e-06 0.0000000000000000e+00  1.0000027893901797e+00 -6.4119843022185326e-06 0.0000000000000000e+00  9.9999816970201960e-01 4.0826787420280741e-06 0.0000000000000000e+00  1.0000011715719717e+00 -2.5287907794513779e-06 0.0000000000000000e+00  9.9999926018684304e-01 1.5481650359573407e-06 0.0000000000000000e+00  1.0000004646225020e+00 -9.4902274852172071e-07 0.0000000000000000e+00  9.9999970956718476e-01 5.8380431918630894e-07 0.0000000000000000e+00  1.0000001796674516e+00 -3.5727400741418275e-07 0.0000000000000000e+00  9.9999989078205376e-01 2.1493333039043231e-07 0.0000000000000000e+00  1.0000000650580498e+00 -1.2635947824488327e-07 0.0000000000000000e+00  9.9999996186271534e-01 7.2963751678549929e-08 0.0000000000000000e+00  1.0000000222206527e+00 -4.1986206484295702e-08 0.0000000000000000e+00  9.9999998700199577e-01 2.4450591190058060e-08 0.0000000000000000e+00  1.0000000076582229e+00 -1.4474513219422804e-08 0.0000000000000000e+00  9.9999999548318708e-01 8.6146756825472937e-09 0.0000000000000000e+00  1.0000000026362965e+00 -5.0567460383963215e-09 0.0000000000000000e+00  9.9999999849184495e-01 2.8828188683837903e-09 0.0000000000000000e+00  1.0000000008436263e+00 -1.5898192573753065e-09 0.0000000000000000e+00  9.9999999953596863e-01 8.5549256977451892e-10 0.0000000000000000e+00  1.0000000002535376e+00 -4.5676458694953032e-10 0.0000000000000000e+00  9.9999999986163290e-01 2.4460891858665097e-10 0.0000000000000000e+00  1.0000000000754627e+00 -1.3158049871805408e-10 0.0000000000000000e+00  9.9999999995993827e-01 6.7648097084951087e-11 0.0000000000000000e+00  1.0000000000206593e+00 -3.3451574813566385e-11 0.0000000000000000e+00  9.9999999999030220e-01 1.3620918154601942e-11 0.0000000000000000e+00  1.0000000000043012e+00 -5.0655358262817671e-12 0.0000000000000000e+00  9.9999999999743017e-01 8.3131451433343159e-13 0.0000000000000000e+00  1.0000000000009273e+00 0.0000000000000000e+00 -8.0017964796518813e-13  1.0000000000073554e+00 0.0000000000000000e+00 -9.4077802881587426e-12  1.0000000000020339e+00 0.0000000000000000e+00 9.6811756237443706e-12  9.9999999999637701e-01 0.0000000000000000e+00 -1.0449261275341063e-11  1.0000000000022584e+00 0.0000000000000000e+00 -4.2094843956702859e-12  1.0000000000157836e+00 0.0000000000000000e+00 -2.2774367820890993e-11  1.0000000000034535e+00 0.0000000000000000e+00 1.8891188061440009e-11  9.9999999999668143e-01 0.0000000000000000e+00 -1.6921442104552243e-11  1.0000000000044904e+00 0.0000000000000000e+00 -5.0032747734188070e-12  1.0000000000286189e+00 0.0000000000000000e+00 -3.3323664652285612e-11  1.0000000000006541e+00 0.0000000000000000e+00 8.1659346763079387e-13  1.0000000000130409e+00 0.0000000000000000e+00 -2.2763124962549929e-11  1.0000000000319202e+00 0.0000000000000000e+00 2.2085274834682631e-11  1.0000000000240648e+00 0.0000000000000000e+00 -1.1930967015106084e-11  9.9999999998572320e-01 0.0000000000000000e+00 3.5837875742475964e-11  1.0000000000211806e+00 0.0000000000000000e+00 -2.6295118043168590e-11  1.0000000000106279e+00 0.0000000000000000e+00 1.1918270572785470e-11  9.9999999999953670e-01 0.0000000000000000e+00 -9.6143750500137131e-12  9.9999999999980271e-01 0.0000000000000000e+00 1.3884808082403052e-11  1.0000000000219345e+00 0.0000000000000000e+00 -3.4851044301913630e-11  9.9999999999839839e-01 0.0000000000000000e+00 2.7294602293079898e-11  1.0000000000017786e+00 0.0000000000000000e+00 -9.2745523150628313e-12  9.9999999999959110e-01 0.0000000000000000e+00 5.0658050509012482e-12  1.0000000000062872e+00 0.0000000000000000e+00 -1.0298016978829338e-11  9.9999999999887113e-01 0.0000000000000000e+00 8.1005961956681859e-12  1.0000000000006488e+00 0.0000000000000000e+00 -2.0109381768621084e-12  9.9999999999931488e-01 0.0000000000000000e+00 1.5498944922851636e-12  1.0000000000005753e+00 0.0000000000000000e+00 -1.4698938885637944e-12  9.9999999999937739e-01 0.0000000000000000e+00 1.4191643040252188e-12  1.0000000000000213e+00 0.0000000000000000e+00 -8.5428035206726680e-13  9.9999999999966460e-01 0.0000000000000000e+00 3.5866743946971986e-13  1.0000000000001121e+00 0.0000000000000000e+00 -4.7079800304494042e-13  9.9999999999988476e-01 0.0000000000000000e+00 2.4999775787079191e-13  9.9999999999996081e-01 0.0000000000000000e+00 -5.6092228416183217e-14  9.9999999999987366e-01 0.0000000000000000e+00 3.1089303207138215e-14  9.9999999999994960e-01 0.0000000000000000e+00 -1.2076778925058730e-13  1.0000000000000033e+00 0.0000000000000000e+00 -3.6843052633760517e-14  1.0000000000000075e+00 0.0000000000000000e+00 -8.4975034861284993e-14  1.0000000000000568e+00 0.0000000000000000e+00 1.4452054661709609e-13  1.0000000000000937e+00 -2.2676320848040542e-13 0.0000000000000000e+00  9.9999999999982403e-01 6.6735630027960460e-13 0.0000000000000000e+00  1.0000000000002156e+00 -7.3930058267604758e-13 0.0000000000000000e+00  1.0000000000000617e+00 4.8505131800634847e-13 0.0000000000000000e+00  9.9999999999932054e-01 1.7948031208501972e-12 0.0000000000000000e+00  1.0000000000023139e+00 -7.1535002121538733e-12 0.0000000000000000e+00  9.9999999999692224e-01 1.2047653751923071e-11 0.0000000000000000e+00  1.0000000000023950e+00 -1.2210674627315235e-11 0.0000000000000000e+00  1.0000000000079166e+00 -2.0242862179312113e-11 0.0000000000000000e+00  9.9999999996425770e-01 9.1078079029481563e-11 0.0000000000000000e+00  1.0000000000613387e+00 -2.0701769859385969e-10 0.0000000000000000e+00  9.9999999992463096e-01 2.5642057885157168e-10 0.0000000000000000e+00  9.9999999999020406e-01 -3.7380239330764918e-11 0.0000000000000000e+00  1.0000000002175984e+00 -5.3813417903257235e-10 0.0000000000000000e+00  9.9999999955359076e-01 1.2136565992770312e-09 0.0000000000000000e+00  1.0000000003762373e+00 -1.4970246521409520e-09 0.0000000000000000e+00  1.0000000001358755e+00 7.9096055520960552e-10 0.0000000000000000e+00  9.9999999898783121e-01 3.6879384421104823e-09 0.0000000000000000e+00  1.0000000031403100e+00 -1.2696554109782100e-08 0.0000000000000000e+00  9.9999999547831331e-01 1.0399442901473690e-08 0.0000000000000000e+00  9.9999999463906586e-01 1.5418533427247013e-08 0.0000000000000000e+00  1.0000000207485213e+00 -7.0642678516694984e-08 0.0000000000000000e+00  9.9999996904233479e-01 1.1152666429582940e-07 0.0000000000000000e+00  9.9999999235040704e-01 -3.5334348228247674e-09 0.0000000000000000e+00  1.0000001387441035e+00 -3.9233830277991026e-07 0.0000000000000000e+00  9.9999966136402207e-01 8.5357082391977233e-07 0.0000000000000000e+00  1.0000003490788740e+00 -8.5155070971158905e-07 0.0000000000000000e+00  9.9999990096068314e-01 -9.6479345122659775e-07 0.0000000000000000e+00  9.9999924074849744e-01 2.5015280009123782e-06 0.0000000000000000e+00  9.9999936828800284e-01 -3.1888132793823772e-06 0.0000000000000000e+00  1.0000033436128248e+00 -4.3899272598494402e-06 0.0000000000000000e+00  9.9998879955515185e-01 2.6533606212896635e-05 0.0000000000000000e+00  1.0000206946642776e+00 -5.0196182818243751e-05 0.0000000000000000e+00  9.9997212796704560e-01 6.4244367197720977e-05 0.0000000000000000e+00  1.0000280223101514e+00 -7.9865125610333490e-05 0.0000000000000000e+00  9.9995360482773332e-01 1.4019858991924671e-04 0.0000000000000000e+00  1.0001047398728307e+00 -2.5226591875013944e-04 0.0000000000000000e+00  9.9988811986351289e-01 1.8291444764210267e-04 0.0000000000000000e+00  1.0000750085827945e+00 -1.1124811896353393e-04 0.0000000000000000e+00  9.9987328359877525e-01 1.1193759118780663e-04 0.0000000000000000e+00  1.0003437398719872e+00 -4.6718577559935054e-04 0.0000000000000000e+00  