<?xml version="1.0"?>
<VTKFile type="UnstructuredGrid"  version="0.1"  >
<UnstructuredGrid>
<Piece  NumberOfPoints="9509" NumberOfCells="18536">
<Points>
<DataArray  type="Float64"  NumberOfComponents="3"  format="ascii">-5 -1 0  5 -1 0  5 1 0  -5 1 0  -4.949999999999965 -1 0  -4.899999999999877 -1 0  -4.849999999999826 -1 0  -4.799999999999754 -1 0  -4.749999999999695 -1 0  -4.69999999999963 -1 0  -4.649999999999565 -1 0  -4.599999999999507 -1 0  -4.549999999999454 -1 0  -4.499999999999384 -1 0  -4.449999999999317 -1 0  -4.399999999999261 -1 0  -4.349999999999206 -1 0  -4.299999999999137 -1 0  -4.249999999999075 -1 0  -4.199999999999013 -1 0  -4.149999999998934 -1 0  -4.09999999999889 -1 0  -4.049999999998847 -1 0  -3.999999999998767 -1 0  -3.949999999998706 -1 0  -3.899999999998644 -1 0  -3.849999999998594 -1 0  -3.799999999998552 -1 0  -3.749999999998549 -1 0  -3.699999999998651 -1 0  -3.649999999998804 -1 0  -3.59999999999894 -1 0  -3.549999999999097 -1 0  -3.499999999999261 -1 0  -3.449999999999394 -1 0  -3.399999999999582 -1 0  -3.349999999999742 -1 0  -3.299999999999902 -1 0  -3.25000000000006 -1 0  -3.200000000000223 -1 0  -3.150000000000369 -1 0  -3.100000000000544 -1 0  -3.050000000000704 -1 0  -3.000000000000864 -1 0  -2.950000000001029 -1 0  -2.900000000001185 -1 0  -2.850000000001347 -1 0  -2.800000000001506 -1 0  -2.750000000001665 -1 0  -2.700000000001827 -1 0  -2.650000000001979 -1 0  -2.600000000002148 -1 0  -2.550000000002311 -1 0  -2.500000000002468 -1 0  -2.450000000002635 -1 0  -2.400000000002789 -1 0  -2.35000000000295 -1 0  -2.30000000000311 -1 0  -2.250000000003253 -1 0  -2.200000000003431 -1 0  -2.150000000003601 -1 0  -2.100000000003752 -1 0  -2.050000000003922 -1 0  -2.000000000004072 -1 0  -1.950000000004237 -1 0  -1.900000000004393 -1 0  -1.850000000004541 -1 0  -1.800000000004714 -1 0  -1.750000000004886 -1 0  -1.700000000005035 -1 0  -1.650000000005206 -1 0  -1.600000000005355 -1 0  -1.550000000005516 -1 0  -1.500000000005676 -1 0  -1.450000000005824 -1 0  -1.400000000005996 -1 0  -1.350000000006146 -1 0  -1.300000000006318 -1 0  -1.250000000006505 -1 0  -1.200000000006638 -1 0  -1.150000000006797 -1 0  -1.100000000006959 -1 0  -1.050000000007106 -1 0  -1.000000000007245 -1 0  -0.9500000000072193 -1 0  -0.9000000000072612 -1 0  -0.8500000000071966 -1 0  -0.8000000000071381 -1 0  -0.750000000007085 -1 0  -0.700000000007015 -1 0  -0.6500000000069521 -1 0  -0.6000000000068919 -1 0  -0.5500000000068104 -1 0  -0.5000000000067688 -1 0  -0.4500000000067104 -1 0  -0.4000000000066457 -1 0  -0.3500000000065757 -1 0  -0.3000000000065226 -1 0  -0.2500000000064961 -1 0  -0.2000000000063995 -1 0  -0.1500000000063775 -1 0  -0.1000000000062764 -1 0  -0.0500000000062597 -1 0  -6.153300091682468e-12 -1 0  0.04999999999390781 -1 0  0.09999999999396891 -1 0  0.14999999999403 -1 0  0.1999999999940929 -1 0  0.2499999999941318 -1 0  0.299999999994216 -1 0  0.349999999994254 -1 0  0.3999999999943391 -1 0  0.4499999999944038 -1 0  0.4999999999944613 -1 0  0.5499999999945429 -1 0  0.5999999999945853 -1 0  0.6499999999946606 -1 0  0.6999999999947084 -1 0  0.7499999999947651 -1 0  0.7999999999948315 -1 0  0.8499999999948926 -1 0  0.8999999999949537 -1 0  0.9499999999950148 -1 0  0.9999999999950768 -1 0  1.049999999995139 -1 0  1.0999999999952 -1 0  1.149999999995266 -1 0  1.199999999995324 -1 0  1.249999999995385 -1 0  1.299999999995446 -1 0  1.349999999995488 -1 0  1.399999999995569 -1 0  1.449999999995604 -1 0  1.499999999995692 -1 0  1.549999999995753 -1 0  1.599999999995816 -1 0  1.649999999995892 -1 0  1.699999999995939 -1 0  1.749999999996017 -1 0  1.799999999996063 -1 0  1.849999999996111 -1 0  1.899999999996185 -1 0  1.949999999996246 -1 0  1.999999999996308 -1 0  2.049999999996351 -1 0  2.099999999996431 -1 0  2.149999999996504 -1 0  2.199999999996555 -1 0  2.249999999996616 -1 0  2.299999999996677 -1 0  2.349999999996736 -1 0  2.3999999999968 -1 0  2.449999999996847 -1 0  2.499999999996923 -1 0  2.549999999997 -1 0  2.599999999997047 -1 0  2.649999999997093 -1 0  2.69999999999717 -1 0  2.749999999997245 -1 0  2.799999999997293 -1 0  2.849999999997344 -1 0  2.899999999997416 -1 0  2.949999999997469 -1 0  2.999999999997539 -1 0  3.049999999997576 -1 0  3.099999999997662 -1 0  3.149999999997725 -1 0  3.199999999997784 -1 0  3.249999999997829 -1 0  3.299999999997908 -1 0  3.349999999997921 -1 0  3.39999999999803 -1 0  3.4499999999981 -1 0  3.499999999998153 -1 0  3.549999999998214 -1 0  3.599999999998277 -1 0  3.649999999998409 -1 0  3.699999999998401 -1 0  3.749999999998444 -1 0  3.799999999998523 -1 0  3.849999999998602 -1 0  3.899999999998645 -1 0  3.949999999998658 -1 0  3.999999999998769 -1 0  4.049999999998814 -1 0  4.099999999998893 -1 0  4.149999999998883 -1 0  4.199999999999015 -1 0  4.249999999999064 -1 0  4.299999999999137 -1 0  4.349999999999152 -1 0  4.399999999999261 -1 0  4.44999999999933 -1 0  4.499999999999385 -1 0  4.549999999999446 -1 0  4.599999999999508 -1 0  4.649999999999633 -1 0  4.699999999999632 -1 0  4.749999999999723 -1 0  4.799999999999754 -1 0  4.849999999999801 -1 0  4.899999999999876 -1 0  4.949999999999925 -1 0  5 -0.950000000000111 0  5 -0.9000000000002774 0  5 -0.8500000000004283 0  5 -0.8000000000005548 0  5 -0.7500000000006787 0  5 -0.7000000000008322 0  5 -0.6500000000009709 0  5 -0.6000000000011096 0  5 -0.5500000000012484 0  5 -0.500000000001387 0  5 -0.4500000000015256 0  5 -0.4000000000016644 0  5 -0.3500000000018031 0  5 -0.3000000000019418 0  5 -0.2500000000020806 0  5 -0.2000000000022192 0  5 -0.1500000000023578 0  5 -0.1000000000024964 0  5 -0.05000000000262439 0  5 -2.752242878045763e-12 0  5 0.0499999999973757 0  5 0.09999999999750342 0  5 0.1499999999976422 0  5 0.1999999999977808 0  5 0.2499999999979194 0  5 0.2999999999980583 0  5 0.3499999999981969 0  5 0.3999999999983355 0  5 0.4499999999984743 0  5 0.4999999999986129 0  5 0.5499999999987515 0  5 0.5999999999988903 0  5 0.6499999999990291 0  5 0.699999999999168 0  5 0.7499999999993068 0  5 0.7999999999994454 0  5 0.849999999999584 0  5 0.8999999999997226 0  5 0.9499999999998612 0  4.949999999999965 1 0  4.899999999999877 1 0  4.849999999999826 1 0  4.799999999999754 1 0  4.749999999999695 1 0  4.69999999999963 1 0  4.649999999999565 1 0  4.599999999999507 1 0  4.549999999999454 1 0  4.499999999999384 1 0  4.449999999999317 1 0  4.399999999999261 1 0  4.349999999999206 1 0  4.299999999999137 1 0  4.249999999999075 1 0  4.199999999999013 1 0  4.149999999998934 1 0  4.09999999999889 1 0  4.049999999998847 1 0  3.999999999998767 1 0  3.949999999998706 1 0  3.899999999998644 1 0  3.849999999998594 1 0  3.799999999998552 1 0  3.749999999998549 1 0  3.699999999998651 1 0  3.649999999998804 1 0  3.59999999999894 1 0  3.549999999999097 1 0  3.499999999999261 1 0  3.449999999999394 1 0  3.399999999999582 1 0  3.349999999999742 1 0  3.299999999999902 1 0  3.25000000000006 1 0  3.200000000000223 1 0  3.150000000000369 1 0  3.100000000000544 1 0  3.050000000000704 1 0  3.000000000000864 1 0  2.950000000001029 1 0  2.900000000001185 1 0  2.850000000001347 1 0  2.800000000001506 1 0  2.750000000001665 1 0  2.700000000001827 1 0  2.650000000001979 1 0  2.600000000002148 1 0  2.550000000002311 1 0  2.500000000002468 1 0  2.450000000002635 1 0  2.400000000002789 1 0  2.35000000000295 1 0  2.30000000000311 1 0  2.250000000003253 1 0  2.200000000003431 1 0  2.150000000003601 1 0  2.100000000003752 1 0  2.050000000003922 1 0  2.000000000004072 1 0  1.950000000004237 1 0  1.900000000004393 1 0  1.850000000004541 1 0  1.800000000004714 1 0  1.750000000004886 1 0  1.700000000005035 1 0  1.650000000005206 1 0  1.600000000005355 1 0  1.550000000005516 1 0  1.500000000005676 1 0  1.450000000005824 1 0  1.400000000005996 1 0  1.350000000006146 1 0  1.300000000006318 1 0  1.250000000006505 1 0  1.200000000006638 1 0  1.150000000006797 1 0  1.100000000006959 1 0  1.050000000007106 1 0  1.000000000007245 1 0  0.9500000000072193 1 0  0.9000000000072612 1 0  0.8500000000071966 1 0  0.8000000000071381 1 0  0.750000000007085 1 0  0.700000000007015 1 0  0.6500000000069521 1 0  0.6000000000068919 1 0  0.5500000000068104 1 0  0.5000000000067688 1 0  0.4500000000067104 1 0  0.4000000000066457 1 0  0.3500000000065757 1 0  0.3000000000065226 1 0  0.2500000000064961 1 0  0.2000000000063995 1 0  0.1500000000063775 1 0  0.1000000000062764 1 0  0.0500000000062597 1 0  6.153300091682468e-12 1 0  -0.04999999999390781 1 0  -0.09999999999396891 1 0  -0.14999999999403 1 0  -0.1999999999940929 1 0  -0.2499999999941318 1 0  -0.299999999994216 1 0  -0.349999999994254 1 0  -0.3999999999943391 1 0  -0.4499999999944038 1 0  -0.4999999999944613 1 0  -0.5499999999945429 1 0  -0.5999999999945853 1 0  -0.6499999999946606 1 0  -0.6999999999947084 1 0  -0.7499999999947651 1 0  -0.7999999999948315 1 0  -0.8499999999948926 1 0  -0.8999999999949537 1 0  -0.9499999999950148 1 0  -0.9999999999950768 1 0  -1.049999999995139 1 0  -1.0999999999952 1 0  -1.149999999995266 1 0  -1.199999999995324 1 0  -1.249999999995385 1 0  -1.299999999995446 1 0  -1.349999999995488 1 0  -1.399999999995569 1 0  -1.449999999995604 1 0  -1.499999999995692 1 0  -1.549999999995753 1 0  -1.599999999995816 1 0  -1.649999999995892 1 0  -1.699999999995939 1 0  -1.749999999996017 1 0  -1.799999999996063 1 0  -1.849999999996111 1 0  -1.899999999996185 1 0  -1.949999999996246 1 0  -1.999999999996308 1 0  -2.049999999996351 1 0  -2.099999999996431 1 0  -2.149999999996504 1 0  -2.199999999996555 1 0  -2.249999999996616 1 0  -2.299999999996677 1 0  -2.349999999996736 1 0  -2.3999999999968 1 0  -2.449999999996847 1 0  -2.499999999996923 1 0  -2.549999999997 1 0  -2.599999999997047 1 0  -2.649999999997093 1 0  -2.69999999999717 1 0  -2.749999999997245 1 0  -2.799999999997293 1 0  -2.849999999997344 1 0  -2.899999999997416 1 0  -2.949999999997469 1 0  -2.999999999997539 1 0  -3.049999999997576 1 0  -3.099999999997662 1 0  -3.149999999997725 1 0  -3.199999999997784 1 0  -3.249999999997829 1 0  -3.29999
[...]
<PointData  Vectors="(h, u)"> 
<DataArray  type="Float64"  Name="(h, u)"  NumberOfComponents="3" format="ascii">4.4075061907658410e+00 0.0000000000000000e+00 0.0000000000000000e+00  9.5004668745508560e+00 0.0000000000000000e+00 0.0000000000000000e+00  9.4985861166108752e+00 0.0000000000000000e+00 0.0000000000000000e+00  4.3959600888425561e+00 0.0000000000000000e+00 0.0000000000000000e+00  4.3955724593586716e+00 3.4809420592849791e-02 0.0000000000000000e+00  4.4070523877391024e+00 1.6257742630604610e-01 0.0000000000000000e+00  4.3968314225874208e+00 2.1033020566347521e-01 0.0000000000000000e+00  4.4042407536949968e+00 1.7384484521769938e-01 0.0000000000000000e+00  4.3954858474208942e+00 3.2901231339792608e-01 0.0000000000000000e+00  4.4047840445028772e+00 4.2122454801047943e-01 0.0000000000000000e+00  4.3951146955047999e+00 3.5613456175326336e-01 0.0000000000000000e+00  4.4040152115831024e+00 6.1092834392689133e-01 0.0000000000000000e+00  4.3922956207207537e+00 5.2997518706939051e-01 0.0000000000000000e+00  4.4025252601460014e+00 6.1852691555068140e-01 0.0000000000000000e+00  4.3909215920124147e+00 7.0343706882586310e-01 0.0000000000000000e+00  4.3972582465862828e+00 8.1282847459341834e-01 0.0000000000000000e+00  4.3914914090040016e+00 6.9975770075315591e-01 0.0000000000000000e+00  4.3951956615448307e+00 9.5568087766839827e-01 0.0000000000000000e+00  4.3867942015212167e+00 9.5200676629371350e-01 0.0000000000000000e+00  4.3956801064853916e+00 9.5041941273853492e-01 0.0000000000000000e+00  4.3869577320294360e+00 1.0517335004382531e+00 0.0000000000000000e+00  4.3891009594268722e+00 1.2314684758585313e+00 0.0000000000000000e+00  4.3871862348320523e+00 1.0619072458773515e+00 0.0000000000000000e+00  4.3916823699991836e+00 1.3257529032395010e+00 0.0000000000000000e+00  4.3793043866188448e+00 1.2805222292413849e+00 0.0000000000000000e+00  4.3904168401691788e+00 1.3855520610711141e+00 0.0000000000000000e+00  4.3849209068021846e+00 1.4478123131436458e+00 0.0000000000000000e+00  4.3806232143897290e+00 1.4668515975550458e+00 0.0000000000000000e+00  4.3820383142563779e+00 1.5671339400201416e+00 0.0000000000000000e+00  4.3885399052298295e+00 1.6442226981615196e+00 0.0000000000000000e+00  4.3723114027584851e+00 1.6613543920373632e+00 0.0000000000000000e+00  4.3818692803595471e+00 1.7346144689239777e+00 0.0000000000000000e+00  4.3839566754031623e+00 1.8188995766129230e+00 0.0000000000000000e+00  4.3715570577261040e+00 1.8741558354270573e+00 0.0000000000000000e+00  4.3735908204095679e+00 1.9179038214897410e+00 0.0000000000000000e+00  4.3863986332172571e+00 1.9916295753099822e+00 0.0000000000000000e+00  4.3629237555245259e+00 2.0664616349846865e+00 0.0000000000000000e+00  4.3725032815780276e+00 2.0992670852390685e+00 0.0000000000000000e+00  4.3798498277377291e+00 2.1948622282516763e+00 0.0000000000000000e+00  4.3625765567114980e+00 2.2155892122656415e+00 0.0000000000000000e+00  4.3618712822788011e+00 2.3298980104245501e+00 0.0000000000000000e+00  4.3814182221093816e+00 2.3300950491519847e+00 0.0000000000000000e+00  4.3521815317187134e+00 2.4480973782940998e+00 0.0000000000000000e+00  4.3609076660163648e+00 2.4751619804532132e+00 0.0000000000000000e+00  4.3703759110402904e+00 2.5555476244575548e+00 0.0000000000000000e+00  4.3532465687908202e+00 2.5997339630823713e+00 0.0000000000000000e+00  4.3462567668943768e+00 2.6941049781708810e+00 0.0000000000000000e+00  4.3715463997095902e+00 2.7138238148592091e+00 0.0000000000000000e+00  4.3388143137802766e+00 2.8211710922552204e+00 0.0000000000000000e+00  4.3472229271461647e+00 2.8342025832858559e+00 0.0000000000000000e+00  4.3547609847821471e+00 2.9591037168781158e+00 0.0000000000000000e+00  4.3417193765314970e+00 2.9445475303143041e+00 0.0000000000000000e+00  4.3304519212611732e+00 3.0749594942782439e+00 0.0000000000000000e+00  4.3555331347721609e+00 3.0974719941499358e+00 0.0000000000000000e+00  4.3258826920306470e+00 3.1695330395308710e+00 0.0000000000000000e+00  4.3322515884190844e+00 3.2199198049947109e+00 0.0000000000000000e+00  4.3377017130187401e+00 3.3188173685674869e+00 0.0000000000000000e+00  4.3262441666099773e+00 3.3163114058636038e+00 0.0000000000000000e+00  4.3180108304118612e+00 3.4347939244129688e+00 0.0000000000000000e+00  4.3335873701176775e+00 3.4739439252749000e+00 0.0000000000000000e+00  4.3113541729952090e+00 3.5191071955906379e+00 0.0000000000000000e+00  4.3152482464403707e+00 3.6110916646174185e+00 0.0000000000000000e+00  4.3164045324070033e+00 3.6487242389557344e+00 0.0000000000000000e+00  4.3052597142118598e+00 3.7251571708218822e+00 0.0000000000000000e+00  4.3035307862081593e+00 3.7645420331167792e+00 0.0000000000000000e+00  4.3065006562052890e+00 3.8564285874839261e+00 0.0000000000000000e+00  4.2919969282046715e+00 3.8952519689174543e+00 0.0000000000000000e+00  4.3014426891293578e+00 3.9377544108173317e+00 0.0000000000000000e+00  4.2898759028293751e+00 4.0536124524474975e+00 0.0000000000000000e+00  4.2858036076137074e+00 4.0594607214009875e+00 0.0000000000000000e+00  4.2926976577502902e+00 4.1198173106697000e+00 0.0000000000000000e+00  4.2855878608499118e+00 4.2350899792441723e+00 0.0000000000000000e+00  4.2703405158223831e+00 4.2209184628953267e+00 0.0000000000000000e+00  4.2930505819002471e+00 4.3146820464522015e+00 0.0000000000000000e+00  4.2669612490437503e+00 4.4027644993057722e+00 0.0000000000000000e+00  4.2641742676375403e+00 4.3922707280662419e+00 0.0000000000000000e+00  4.2685099113478495e+00 4.5413806027390562e+00 0.0000000000000000e+00  4.2672086696768767e+00 4.5106036027876462e+00 0.0000000000000000e+00  4.2369599443328338e+00 4.6513565276629043e+00 0.0000000000000000e+00  4.2581589961336634e+00 4.6681208483655734e+00 0.0000000000000000e+00  4.2501003098270660e+00 4.7189828413736610e+00 0.0000000000000000e+00  4.2326697771570743e+00 4.8101082678567399e+00 0.0000000000000000e+00  4.2215771780108922e+00 4.8719256001928555e+00 0.0000000000000000e+00  4.2408421384305619e+00 4.8968255795045748e+00 0.0000000000000000e+00  4.2269927063136841e+00 4.9580142576512687e+00 0.0000000000000000e+00  4.2002439985252860e+00 5.0844423472152664e+00 0.0000000000000000e+00  4.2118514653229662e+00 5.0484017725624453e+00 0.0000000000000000e+00  4.2065578519779976e+00 5.1899779978674863e+00 0.0000000000000000e+00  4.2010566483282537e+00 5.1943356507721354e+00 0.0000000000000000e+00  4.1820916218909119e+00 5.2566188135325165e+00 0.0000000000000000e+00  4.1751882000401226e+00 5.3944084913938743e+00 0.0000000000000000e+00  4.1855403390943344e+00 5.3438845221908489e+00 0.0000000000000000e+00  4.1609141331139030e+00 5.4493704484226937e+00 0.0000000000000000e+00  4.1671704982459152e+00 5.5442545049452869e+00 0.0000000000000000e+00  4.1481354305362004e+00 5.5338825324529930e+00 0.0000000000000000e+00  4.1763971261907207e+00 5.5824242014745895e+00 0.0000000000000000e+00  4.1647354070522722e+00 5.6733702230588321e+00 0.0000000000000000e+00  4.1434816795983229e+00 5.6918461402394644e+00 0.0000000000000000e+00  4.1185905563435474e+00 5.8093010870900299e+00 0.0000000000000000e+00  4.1328671726751471e+00 5.8477597940894146e+00 0.0000000000000000e+00  4.1296025570669936e+00 5.8550502333298482e+00 0.0000000000000000e+00  4.0725720668781937e+00 6.0112086711004880e+00 0.0000000000000000e+00  4.1188258485492986e+00 5.9879152981011634e+00 0.0000000000000000e+00  4.1134804531963303e+00 6.0224194663039263e+00 0.0000000000000000e+00  4.0105926242884999e+00 6.2220706731171012e+00 0.0000000000000000e+00  4.0795068713870695e+00 6.1719801920253508e+00 0.0000000000000000e+00  4.0730088152089268e+00 6.2126657658688398e+00 0.0000000000000000e+00  4.0556496597476679e+00 6.2844755593074035e+00 0.0000000000000000e+00  4.0628295991435088e+00 6.2998705581295731e+00 0.0000000000000000e+00  4.0637271792497573e+00 6.3736302085787022e+00 0.0000000000000000e+00  4.0032616259633054e+00 6.4445048521346253e+00 0.0000000000000000e+00  4.0041949579766616e+00 6.5227473000080316e+00 0.0000000000000000e+00  4.0183329739709723e+00 6.5328569809570087e+00 0.0000000000000000e+00  3.9835652396299976e+00 6.6032524059280178e+00 0.0000000000000000e+00  4.0054109716194581e+00 6.6140958942348407e+00 0.0000000000000000e+00  3.9679420581213569e+00 6.7120671731562274e+00 0.0000000000000000e+00  3.9295031878062390e+00 6.7810701224399006e+00 0.0000000000000000e+00  3.8983530634301733e+00 6.8722147562010978e+00 0.0000000000000000e+00  3.9675628285788220e+00 6.8105497819435854e+00 0.0000000000000000e+00  3.9411272685767802e+00 6.8557509620693553e+00 0.0000000000000000e+00  3.9012389748267711e+00 6.9610908623703249e+00 0.0000000000000000e+00  3.8796794060108515e+00 7.0012854453621891e+00 0.0000000000000000e+00  3.8729336526389466e+00 7.0570188456646950e+00 0.0000000000000000e+00  3.8766133127749813e+00 7.0745416297310442e+00 0.0000000000000000e+00  3.8516145972092017e+00 7.1284092939061896e+00 0.0000000000000000e+00  3.8368800559809046e+00 7.2074354086771537e+00 0.0000000000000000e+00  3.7939571547314466e+00 7.2422025868109721e+00 0.0000000000000000e+00  3.8597765146306915e+00 7.2291959016664098e+00 0.0000000000000000e+00  3.7644781753666394e+00 7.3327611676495046e+00 0.0000000000000000e+00  3.7744062920798478e+00 7.3799161146492347e+00 0.0000000000000000e+00  3.7672260572257055e+00 7.3907631156875642e+00 0.0000000000000000e+00  3.7685112407180337e+00 7.4342665721812455e+00 0.0000000000000000e+00  3.7211221588326153e+00 7.5062660793383928e+00 0.0000000000000000e+00  3.6399976543312116e+00 7.6365134317103580e+00 0.0000000000000000e+00  3.7425439610154161e+00 7.5210753163979813e+00 0.0000000000000000e+00  3.8948907633318663e+00 7.2758966042008399e+00 0.0000000000000000e+00  3.9741537848276716e+00 7.1690972439453269e+00 0.0000000000000000e+00  3.9179812730557599e+00 7.2541939795844055e+00 0.0000000000000000e+00  3.9173353742307389e+00 7.2808143959162841e+00 0.0000000000000000e+00  3.9060831482103038e+00 7.3050650685014533e+00 0.0000000000000000e+00  3.9266493665296869e+00 7.2814288027600274e+00 0.0000000000000000e+00  3.9172293111632737e+00 7.3150364482248298e+00 0.0000000000000000e+00  3.9268374244317927e+00 7.2964812014783398e+00 0.0000000000000000e+00  3.9065226693491009e+00 7.3438366103395687e+00 0.0000000000000000e+00  3.9247849352593955e+00 7.3064091245394476e+00 0.0000000000000000e+00  3.9262065742862342e+00 7.3407594814438779e+00 0.0000000000000000e+00  3.9446495699276309e+00 7.3012884709269308e+00 0.0000000000000000e+00  3.9172121779896907e+00 7.3174940206649417e+00 0.0000000000000000e+00  3.9498305172286741e+00 7.3541320218905346e+00 0.0000000000000000e+00  3.9476807740879001e+00 7.3177830888851112e+00 0.0000000000000000e+00  3.9395309397392215e+00 7.1996311503858523e+00 0.0000000000000000e+00  3.9485480798924728e+00 7.4716668134916349e+00 0.0000000000000000e+00  3.7747915094867124e+00 7.7836503465618527e+00 0.0000000000000000e+00  6.1071718274278473e+00 3.4368599740634296e+00 0.0000000000000000e+00  9.8184331592149316e+00 -3.4177785691034118e-01 0.0000000000000000e+00  9.3690931252688667e+00 1.1817110210227200e-01 0.0000000000000000e+00  9.3901679022238316e+00 9.8465893766640056e-02 0.0000000000000000e+00  9.6181680045729063e+00 -1.4103400978011835e-01 0.0000000000000000e+00  9.4434541321442094e+00 3.8546007585713721e-02 0.0000000000000000e+00  9.5529253576657247e+00 -5.7356982343469337e-02 0.0000000000000000e+00  9.4623054805674247e+00 3.4598122810251521e-02 0.0000000000000000e+00  9.5214959959328613e+00 -2.5657598531306003e-02 0.0000000000000000e+00  9.5167024937604285e+00 -2.9084503773633464e-02 0.0000000000000000e+00  9.5078096132694814e+00 -8.9244389823738487e-03 0.0000000000000000e+00  9.5023034240182529e+00 4.1266721778541069e-03 0.0000000000000000e+00  9.5132168052635251e+00 -6.3288624074313172e-03 0.0000000000000000e+00  9.5143604251636678e+00 -1.7499300816879719e-02 0.0000000000000000e+00  9.5074490143690937e+00 1.4844372982121089e-02 0.0000000000000000e+00  9.5094092101463090e+00 8.9515326427094394e-03 0.0000000000000000e+00  9.5122333274216189e+00 -5.7605372219680425e-03 0.0000000000000000e+00  9.5084290548542096e+00 3.6597909955160927e-03 0.0000000000000000e+00  9.5110524530737326e+00 9.5101421727463685e-03 0.0000000000000000e+00  9.5108766230625221e+00 -4.0459318336576941e-03 0.0000000000000000e+00  9.5080581582785797e+00 1.2002131520271742e-03 0.0000000000000000e+00  9.5098435619231143e+00 7.9706075275907846e-03 0.0000000000000000e+00  9.5106700747389521e+00 -1.5630559583682468e-03 0.0000000000000000e+00  9.5107834266077838e+00 1.6135372481871246e-02 0.0000000000000000e+00  9.5052840764863813e+00 1.1810824642918035e-03 0.0000000000000000e+00  9.5135204671064564e+00 6.4645990888353077e-03 0.0000000000000000e+00  9.5088690802696121e+00 9.5751077425874007e-03 0.0000000000000000e+00  9.5093219220192644e+00 2.2310253943618460e-02 0.0000000000000000e+00  9.5056969822444231e+00 -3.5421960244624303e-04 0.0000000000000000e+00  9.5170210790130483e+00 1.1606357331793550e-02 0.0000000000000000e+00  9.5015930423746280e+00 4.5152118558068081e-03 0.0000000000000000e+00  9.5120398757380951e+00 1.1030599632284185e-02 0.0000000000000000e+00  9.5076684368285083e+00 9.4605406437503689e-03 0.0000000000000000e+00  9.5123963610062887e+00 6.0611929014418959e-03 0.0000000000000000e+00  9.4994187082650807e+00 9.3354353520071973e-03 0.0000000000000000e+00  9.5184285095374896e+00 4.2326306016327309e-03 0.0000000000000000e+00  9.5008529690111079e+00 1.3674371910932967e-02 0.0000000000000000e+00  9.5110876324808729e+00 2.7400306518561247e-03 0.0000000000000000e+00  9.5038388589179021e+00 2.5076265916235671e-02 0.0000000000000000e+00  9.5148680985257883e+00 -2.4374995348220877e-04 0.0000000000000000e+00  9.4967523210353448e+00 2.8735363911240770e-02 0.0000000000000000e+00  9.5166170859799646e+00 9.1831208740638000e-03 0.0000000000000000e+00  9.5009292660556426e+00 1.0991820636259692e-02 0.0000000000000000e+00  9.5116382395149817e+00 5.0871187535408398e-03 0.0000000000000000e+00  9.5006724342978348e+00 -7.1917182670701192e-03 0.0000000000000000e+00  9.5166536246864517e+00 2.7673159125008673e-02 0.0000000000000000e+00  9.4968894903421504e+00 -6.7129968626756895e-02 0.0000000000000000e+00  9.5148259166967240e+00 1.6780847012832757e-02 0.0000000000000000e+00  9.5021304216596310e+00 -5.5883740618318932e-02 0.0000000000000000e+00  9.5111283747154332e+00 -1.8934083392182677e-01 0.0000000000000000e+00  9.5091424102849551e+00 0.0000000000000000e+00 -6.3557384273657785e-02  9.4998970128087361e+00 0.0000000000000000e+00 -3.2689781693925536e-02  9.5131652683656238e+00 0.0000000000000000e+00 -3.3484670161474307e-02  9.5002463924392391e+00 0.0000000000000000e+00 -9.6775911391734165e-02  9.5087870356694602e+00 0.0000000000000000e+00 3.4993966250518586e-02  9.5015442472947100e+00 0.0000000000000000e+00 6.6274686637834535e-02  9.5112550512904743e+00 0.0000000000000000e+00 -6.9472659267249392e-03  9.5022803836150551e+00 0.0000000000000000e+00 -1.2647269296575220e-01  9.5079774158898402e+00 0.0000000000000000e+00 -8.8999223444335571e-02  9.5019836811762790e+00 0.0000000000000000e+00 1.5343171473944045e-01  9.5084164012875654e+00 0.0000000000000000e+00 -2.4322635352831259e-02  9.5049725537525127e+00 0.0000000000000000e+00 -1.0628548417790078e-02  9.5066049792205689e+00 0.0000000000000000e+00 -4.4359713063157453e-02  9.5057842703019286e+00 0.0000000000000000e+00 -3.0591521973397887e-02  9.5038018753276656e+00 0.0000000000000000e+00 -9.6277462422764665e-02  9.5043260436336627e+00 0.0000000000000000e+00 -1.9249220789923144e-01  9.5025515347514240e+00 0.0000000000000000e+00 -1.0158694545105874e-01  9.5032196833634508e+00 0.0000000000000000e+00 -2.5154807487663494e-01  9.4994409411051866e+00 0.0000000000000000e+00 4.8532241627597943e-02  9.5032793767327579e+00 0.0000000000000000e+00 6.1497194532313337e-02  9.4972599643241900e+00 0.0000000000000000e+00 -9.2158475431442455e-02  9.5018372087268279e+00 0.0000000000000000e+00 -2.2251852364218597e-01  9.4959799525715098e+00 0.0000000000000000e+00 -2.9727287145935675e-02  9.4959918227111153e+00 0.0000000000000000e+00 1.9209991739779114e-01  9.4963442242595413e+00 0.0000000000000000e+00 -8.0500271197650238e-03  9.4981021632371547e+00 0.0000000000000000e+00 4.3617662757044193e-02  9.4926594083097946e+00 0.0000000000000000e+00 -2.3050896272450341e-02  9.4992522483295083e+00 0.0000000000000000e+00 -1.3348463584730344e-01  9.4927936281829961e+00 0.0000000000000000e+00 -1.0925893252543514e-01  9.4944914610612052e+00 0.0000000000000000e+00 7.6234626794953714e-02  9.4930809556990940e+00 0.0000000000000000e+00 -5.6336854149999178e-02  9.4969673646004225e+00 0.0000000000000000e+00 -1.7228300165525695e-01  9.4880375356051712e+00 0.0000000000000000e+00 -3.5384387306173687e-02  9.4967805880390035e+00 0.0000000000000000e+00 -1.3008357907625329e-01  9.4893258108146874e+00 0.0000000000000000e+00 -1.2883492052505430e-01  9.4959041102771682e+00 0.0000000000000000e+00 -1.2907733929398149e-01  9.4906247708391884e+00 0.0000000000000000e+00 -1.4705080244055110e-01  9.4943619351001622e+00 0.0000000000000000e+00 -2.0192144765957651e-01  9.4906131526802060e+00 0.0000000000000000e+00 -2.2239310884387244e-03  9.4923735783920726e+00 -3.6711148744383426e-01 0.0000000000000000e+00  9.4871604008391266e+00 -5.2582284077401975e-01 0.0000000000000000e+00  9.4879180896934177e+00 -2.9777343868483896e-01 0.0000000000000000e+00  9.5031120444528039e+00 5.4383948076563167e-02 0.0000000000000000e+00  9.5015626870520009e+00 2.9458190759492606e-02 0.0000000000000000e+00  9.4814951085496055e+00 -7.3039801846811814e-01 0.0000000000000000e+00  9.4865989522345942e+00 -3.0411095096806356e-01 0.0000000000000000e+00  9.4970469814667169e+00 -4.4167361709958070e-01 0.0000000000000000e+00  9.4790267921364268e+00 -5.7035195852700649e-01 0.0000000000000000e+00  9.4914630701693792e+00 -4.0013856096065942e-01 0.0000000000000000e+00  9.4844046311194372e+00 -2.5921949146831363e-01 0.0000000000000000e+00  9.5014769005860984e+00 -5.9213295205029874e-02 0.0000000000000000e+00  9.4898396980719237e+00 -7.3896180706040093e-02 0.0000000000000000e+00  9.4958881211541168e+00 1.6081220032312313e-01 0.0000000000000000e+00  9.4907035757511018e+00 8.1540561397066738e-02 0.0000000000000000e+00  9.4963296663627368e+00 1.5949718545705754e-01 0.0000000000000000e+00  9.4895177568640996e+00 8.9942609420517711e-02 0.0000000000000000e+00  9.5001689574714856e+00 1.3047598823569418e-02 0.0000000000000000e+00  9.4918519601815081e+00 -5.8222452224451444e-02 0.0000000000000000e+00  9.4945184322905991e+00 1.1456997627738424e-01 0.0000000000000000e+00  9.4966763690370062e+00 -7.4641660959011466e-02 0.0000000000000000e+00  9.4944653422833465e+00 -8.7112758074012378e-02 0.0000000000000000e+00  9.4937047900784055e+00 1.3724591878967072e-02 0.0000000000000000e+00  9.5002148366270536e+00 4.6453450624834164e-02 0.0000000000000000e+00  9.4987681349545916e+00 8.9248114769789694e-02 0.0000000000000000e+00  9.4931475002802337e+00 1.2971363101641936e-01 0.0000000000000000e+00  9.5025681974025620e+00 1.3180185083799997e-01 0.0000000000000000e+00  9.4918168346388505e+00 1.2400155296139830e-01 0.0000000000000000e+00  9.4982335238239610e+00 -3.4811799244854016e-02 0.0000000000000000e+00  9.4955407440202286e+00 3.4381648183023271e-02 0.0000000000000000e+00  9.4912851515475491e+00 -8.7062880091621289e-02 0.0000000000000000e+00  9.5015348958877173e+00 2.4879151619615965e-02 0.0000000000000000e+00  9.4887408402055868e+00 1.6030253371067377e-01 0.0000000000000000e+00  9.5097191484934207e+00 1.5676461036406203e-01 0.0000000000000000e+00  9.4803698762192781e+00 -3.5818636975017831e-02 0.0000000000000000e+00  9.5238902641972025e+00 1.3800031477178301e-01 0.0000000000000000e+00  9.4677449818203456e+00 -4.0779137580611212e-02 0.0000000000000000e+00  9.5263101654139373e+00 6.3864954012271616e-02 0.0000000000000000e+00  9.4757948126839988e+00 -1.0821456033540741e-02 0.0000000000000000e+00  9.5076474498112216e+00 5.3604095857795542e-03 0.0000000000000000e+00  9.4847310833301428e+00 -6.9325121534704395e-02 0.0000000000000000e+00  9.53030702