<?xml version="1.0"?>
<VTKFile type="UnstructuredGrid"  version="0.1"  >
<UnstructuredGrid>
<Piece  NumberOfPoints="9509" NumberOfCells="18536">
<Points>
<DataArray  type="Float64"  NumberOfComponents="3"  format="ascii">-5 -1 0  5 -1 0  5 1 0  -5 1 0  -4.949999999999965 -1 0  -4.899999999999877 -1 0  -4.849999999999826 -1 0  -4.799999999999754 -1 0  -4.749999999999695 -1 0  -4.69999999999963 -1 0  -4.649999999999565 -1 0  -4.599999999999507 -1 0  -4.549999999999454 -1 0  -4.499999999999384 -1 0  -4.449999999999317 -1 0  -4.399999999999261 -1 0  -4.349999999999206 -1 0  -4.299999999999137 -1 0  -4.249999999999075 -1 0  -4.199999999999013 -1 0  -4.149999999998934 -1 0  -4.09999999999889 -1 0  -4.049999999998847 -1 0  -3.999999999998767 -1 0  -3.949999999998706 -1 0  -3.899999999998644 -1 0  -3.849999999998594 -1 0  -3.799999999998552 -1 0  -3.749999999998549 -1 0  -3.699999999998651 -1 0  -3.649999999998804 -1 0  -3.59999999999894 -1 0  -3.549999999999097 -1 0  -3.499999999999261 -1 0  -3.449999999999394 -1 0  -3.399999999999582 -1 0  -3.349999999999742 -1 0  -3.299999999999902 -1 0  -3.25000000000006 -1 0  -3.200000000000223 -1 0  -3.150000000000369 -1 0  -3.100000000000544 -1 0  -3.050000000000704 -1 0  -3.000000000000864 -1 0  -2.950000000001029 -1 0  -2.900000000001185 -1 0  -2.850000000001347 -1 0  -2.800000000001506 -1 0  -2.750000000001665 -1 0  -2.700000000001827 -1 0  -2.650000000001979 -1 0  -2.600000000002148 -1 0  -2.550000000002311 -1 0  -2.500000000002468 -1 0  -2.450000000002635 -1 0  -2.400000000002789 -1 0  -2.35000000000295 -1 0  -2.30000000000311 -1 0  -2.250000000003253 -1 0  -2.200000000003431 -1 0  -2.150000000003601 -1 0  -2.100000000003752 -1 0  -2.050000000003922 -1 0  -2.000000000004072 -1 0  -1.950000000004237 -1 0  -1.900000000004393 -1 0  -1.850000000004541 -1 0  -1.800000000004714 -1 0  -1.750000000004886 -1 0  -1.700000000005035 -1 0  -1.650000000005206 -1 0  -1.600000000005355 -1 0  -1.550000000005516 -1 0  -1.500000000005676 -1 0  -1.450000000005824 -1 0  -1.400000000005996 -1 0  -1.350000000006146 -1 0  -1.300000000006318 -1 0  -1.250000000006505 -1 0  -1.200000000006638 -1 0  -1.150000000006797 -1 0  -1.100000000006959 -1 0  -1.050000000007106 -1 0  -1.000000000007245 -1 0  -0.9500000000072193 -1 0  -0.9000000000072612 -1 0  -0.8500000000071966 -1 0  -0.8000000000071381 -1 0  -0.750000000007085 -1 0  -0.700000000007015 -1 0  -0.6500000000069521 -1 0  -0.6000000000068919 -1 0  -0.5500000000068104 -1 0  -0.5000000000067688 -1 0  -0.4500000000067104 -1 0  -0.4000000000066457 -1 0  -0.3500000000065757 -1 0  -0.3000000000065226 -1 0  -0.2500000000064961 -1 0  -0.2000000000063995 -1 0  -0.1500000000063775 -1 0  -0.1000000000062764 -1 0  -0.0500000000062597 -1 0  -6.153300091682468e-12 -1 0  0.04999999999390781 -1 0  0.09999999999396891 -1 0  0.14999999999403 -1 0  0.1999999999940929 -1 0  0.2499999999941318 -1 0  0.299999999994216 -1 0  0.349999999994254 -1 0  0.3999999999943391 -1 0  0.4499999999944038 -1 0  0.4999999999944613 -1 0  0.5499999999945429 -1 0  0.5999999999945853 -1 0  0.6499999999946606 -1 0  0.6999999999947084 -1 0  0.7499999999947651 -1 0  0.7999999999948315 -1 0  0.8499999999948926 -1 0  0.8999999999949537 -1 0  0.9499999999950148 -1 0  0.9999999999950768 -1 0  1.049999999995139 -1 0  1.0999999999952 -1 0  1.149999999995266 -1 0  1.199999999995324 -1 0  1.249999999995385 -1 0  1.299999999995446 -1 0  1.349999999995488 -1 0  1.399999999995569 -1 0  1.449999999995604 -1 0  1.499999999995692 -1 0  1.549999999995753 -1 0  1.599999999995816 -1 0  1.649999999995892 -1 0  1.699999999995939 -1 0  1.749999999996017 -1 0  1.799999999996063 -1 0  1.849999999996111 -1 0  1.899999999996185 -1 0  1.949999999996246 -1 0  1.999999999996308 -1 0  2.049999999996351 -1 0  2.099999999996431 -1 0  2.149999999996504 -1 0  2.199999999996555 -1 0  2.249999999996616 -1 0  2.299999999996677 -1 0  2.349999999996736 -1 0  2.3999999999968 -1 0  2.449999999996847 -1 0  2.499999999996923 -1 0  2.549999999997 -1 0  2.599999999997047 -1 0  2.649999999997093 -1 0  2.69999999999717 -1 0  2.749999999997245 -1 0  2.799999999997293 -1 0  2.849999999997344 -1 0  2.899999999997416 -1 0  2.949999999997469 -1 0  2.999999999997539 -1 0  3.049999999997576 -1 0  3.099999999997662 -1 0  3.149999999997725 -1 0  3.199999999997784 -1 0  3.249999999997829 -1 0  3.299999999997908 -1 0  3.349999999997921 -1 0  3.39999999999803 -1 0  3.4499999999981 -1 0  3.499999999998153 -1 0  3.549999999998214 -1 0  3.599999999998277 -1 0  3.649999999998409 -1 0  3.699999999998401 -1 0  3.749999999998444 -1 0  3.799999999998523 -1 0  3.849999999998602 -1 0  3.899999999998645 -1 0  3.949999999998658 -1 0  3.999999999998769 -1 0  4.049999999998814 -1 0  4.099999999998893 -1 0  4.149999999998883 -1 0  4.199999999999015 -1 0  4.249999999999064 -1 0  4.299999999999137 -1 0  4.349999999999152 -1 0  4.399999999999261 -1 0  4.44999999999933 -1 0  4.499999999999385 -1 0  4.549999999999446 -1 0  4.599999999999508 -1 0  4.649999999999633 -1 0  4.699999999999632 -1 0  4.749999999999723 -1 0  4.799999999999754 -1 0  4.849999999999801 -1 0  4.899999999999876 -1 0  4.949999999999925 -1 0  5 -0.950000000000111 0  5 -0.9000000000002774 0  5 -0.8500000000004283 0  5 -0.8000000000005548 0  5 -0.7500000000006787 0  5 -0.7000000000008322 0  5 -0.6500000000009709 0  5 -0.6000000000011096 0  5 -0.5500000000012484 0  5 -0.500000000001387 0  5 -0.4500000000015256 0  5 -0.4000000000016644 0  5 -0.3500000000018031 0  5 -0.3000000000019418 0  5 -0.2500000000020806 0  5 -0.2000000000022192 0  5 -0.1500000000023578 0  5 -0.1000000000024964 0  5 -0.05000000000262439 0  5 -2.752242878045763e-12 0  5 0.0499999999973757 0  5 0.09999999999750342 0  5 0.1499999999976422 0  5 0.1999999999977808 0  5 0.2499999999979194 0  5 0.2999999999980583 0  5 0.3499999999981969 0  5 0.3999999999983355 0  5 0.4499999999984743 0  5 0.4999999999986129 0  5 0.5499999999987515 0  5 0.5999999999988903 0  5 0.6499999999990291 0  5 0.699999999999168 0  5 0.7499999999993068 0  5 0.7999999999994454 0  5 0.849999999999584 0  5 0.8999999999997226 0  5 0.9499999999998612 0  4.949999999999965 1 0  4.899999999999877 1 0  4.849999999999826 1 0  4.799999999999754 1 0  4.749999999999695 1 0  4.69999999999963 1 0  4.649999999999565 1 0  4.599999999999507 1 0  4.549999999999454 1 0  4.499999999999384 1 0  4.449999999999317 1 0  4.399999999999261 1 0  4.349999999999206 1 0  4.299999999999137 1 0  4.249999999999075 1 0  4.199999999999013 1 0  4.149999999998934 1 0  4.09999999999889 1 0  4.049999999998847 1 0  3.999999999998767 1 0  3.949999999998706 1 0  3.899999999998644 1 0  3.849999999998594 1 0  3.799999999998552 1 0  3.749999999998549 1 0  3.699999999998651 1 0  3.649999999998804 1 0  3.59999999999894 1 0  3.549999999999097 1 0  3.499999999999261 1 0  3.449999999999394 1 0  3.399999999999582 1 0  3.349999999999742 1 0  3.299999999999902 1 0  3.25000000000006 1 0  3.200000000000223 1 0  3.150000000000369 1 0  3.100000000000544 1 0  3.050000000000704 1 0  3.000000000000864 1 0  2.950000000001029 1 0  2.900000000001185 1 0  2.850000000001347 1 0  2.800000000001506 1 0  2.750000000001665 1 0  2.700000000001827 1 0  2.650000000001979 1 0  2.600000000002148 1 0  2.550000000002311 1 0  2.500000000002468 1 0  2.450000000002635 1 0  2.400000000002789 1 0  2.35000000000295 1 0  2.30000000000311 1 0  2.250000000003253 1 0  2.200000000003431 1 0  2.150000000003601 1 0  2.100000000003752 1 0  2.050000000003922 1 0  2.000000000004072 1 0  1.950000000004237 1 0  1.900000000004393 1 0  1.850000000004541 1 0  1.800000000004714 1 0  1.750000000004886 1 0  1.700000000005035 1 0  1.650000000005206 1 0  1.600000000005355 1 0  1.550000000005516 1 0  1.500000000005676 1 0  1.450000000005824 1 0  1.400000000005996 1 0  1.350000000006146 1 0  1.300000000006318 1 0  1.250000000006505 1 0  1.200000000006638 1 0  1.150000000006797 1 0  1.100000000006959 1 0  1.050000000007106 1 0  1.000000000007245 1 0  0.9500000000072193 1 0  0.9000000000072612 1 0  0.8500000000071966 1 0  0.8000000000071381 1 0  0.750000000007085 1 0  0.700000000007015 1 0  0.6500000000069521 1 0  0.6000000000068919 1 0  0.5500000000068104 1 0  0.5000000000067688 1 0  0.4500000000067104 1 0  0.4000000000066457 1 0  0.3500000000065757 1 0  0.3000000000065226 1 0  0.2500000000064961 1 0  0.2000000000063995 1 0  0.1500000000063775 1 0  0.1000000000062764 1 0  0.0500000000062597 1 0  6.153300091682468e-12 1 0  -0.04999999999390781 1 0  -0.09999999999396891 1 0  -0.14999999999403 1 0  -0.1999999999940929 1 0  -0.2499999999941318 1 0  -0.299999999994216 1 0  -0.349999999994254 1 0  -0.3999999999943391 1 0  -0.4499999999944038 1 0  -0.4999999999944613 1 0  -0.5499999999945429 1 0  -0.5999999999945853 1 0  -0.6499999999946606 1 0  -0.6999999999947084 1 0  -0.7499999999947651 1 0  -0.7999999999948315 1 0  -0.8499999999948926 1 0  -0.8999999999949537 1 0  -0.9499999999950148 1 0  -0.9999999999950768 1 0  -1.049999999995139 1 0  -1.0999999999952 1 0  -1.149999999995266 1 0  -1.199999999995324 1 0  -1.249999999995385 1 0  -1.299999999995446 1 0  -1.349999999995488 1 0  -1.399999999995569 1 0  -1.449999999995604 1 0  -1.499999999995692 1 0  -1.549999999995753 1 0  -1.599999999995816 1 0  -1.649999999995892 1 0  -1.699999999995939 1 0  -1.749999999996017 1 0  -1.799999999996063 1 0  -1.849999999996111 1 0  -1.899999999996185 1 0  -1.949999999996246 1 0  -1.999999999996308 1 0  -2.049999999996351 1 0  -2.099999999996431 1 0  -2.149999999996504 1 0  -2.199999999996555 1 0  -2.249999999996616 1 0  -2.299999999996677 1 0  -2.349999999996736 1 0  -2.3999999999968 1 0  -2.449999999996847 1 0  -2.499999999996923 1 0  -2.549999999997 1 0  -2.599999999997047 1 0  -2.649999999997093 1 0  -2.69999999999717 1 0  -2.749999999997245 1 0  -2.799999999997293 1 0  -2.849999999997344 1 0  -2.899999999997416 1 0  -2.949999999997469 1 0  -2.999999999997539 1 0  -3.049999999997576 1 0  -3.099999999997662 1 0  -3.149999999997725 1 0  -3.199999999997784 1 0  -3.249999999997829 1 0  -3.29999
[...]
<PointData  Vectors="(h, u)"> 
<DataArray  type="Float64"  Name="(h, u)"  NumberOfComponents="3" format="ascii">6.2420163907553725e+00 0.0000000000000000e+00 0.0000000000000000e+00  9.5104834997586938e+00 0.0000000000000000e+00 0.0000000000000000e+00  9.5245816352456032e+00 0.0000000000000000e+00 0.0000000000000000e+00  6.2287213239218771e+00 0.0000000000000000e+00 0.0000000000000000e+00  6.2366640197708128e+00 8.1108480987236220e-02 0.0000000000000000e+00  6.2416624366165019e+00 1.7824420345672165e-01 0.0000000000000000e+00  6.2373779594813898e+00 2.3388144100613112e-01 0.0000000000000000e+00  6.2413678622105362e+00 3.3652278178130907e-01 0.0000000000000000e+00  6.2329660771180775e+00 4.2147978559214794e-01 0.0000000000000000e+00  6.2388420073546964e+00 4.9664076092377041e-01 0.0000000000000000e+00  6.2328441333667861e+00 5.7865327935211464e-01 0.0000000000000000e+00  6.2340489105750070e+00 6.8052125736314595e-01 0.0000000000000000e+00  6.2279727487199068e+00 7.1334372972874283e-01 0.0000000000000000e+00  6.2346999285225406e+00 8.2892117554116829e-01 0.0000000000000000e+00  6.2178655340392339e+00 9.1404640879199472e-01 0.0000000000000000e+00  6.2292076967179852e+00 9.8915225536239548e-01 0.0000000000000000e+00  6.2185897162438328e+00 1.0475210823354577e+00 0.0000000000000000e+00  6.2171215038118648e+00 1.1948409976306598e+00 0.0000000000000000e+00  6.2098591102144995e+00 1.2026052163972725e+00 0.0000000000000000e+00  6.2202427253390002e+00 1.3208176196577421e+00 0.0000000000000000e+00  6.1941240990730613e+00 1.4193017062644622e+00 0.0000000000000000e+00  6.2097105570057298e+00 1.4735110224454477e+00 0.0000000000000000e+00  6.1979638810122575e+00 1.5298361437487706e+00 0.0000000000000000e+00  6.1909534872999643e+00 1.7153297603504669e+00 0.0000000000000000e+00  6.1846629241318514e+00 1.6588829313170566e+00 0.0000000000000000e+00  6.1959669022694568e+00 1.8309721086596358e+00 0.0000000000000000e+00  6.1620439426237095e+00 1.9119208537967389e+00 0.0000000000000000e+00  6.1811436358303125e+00 1.9458268489578618e+00 0.0000000000000000e+00  6.1663174049350555e+00 2.0309384982813437e+00 0.0000000000000000e+00  6.1559109757206283e+00 2.1901499011605328e+00 0.0000000000000000e+00  6.1486461752874337e+00 2.1639942183399801e+00 0.0000000000000000e+00  6.1605272517019447e+00 2.2687710045195613e+00 0.0000000000000000e+00  6.1201195164691233e+00 2.4557370783199892e+00 0.0000000000000000e+00  6.1409949777265727e+00 2.3493040298471635e+00 0.0000000000000000e+00  6.1239375203684867e+00 2.5775220341266114e+00 0.0000000000000000e+00  6.1108248530647975e+00 2.6259485220419028e+00 0.0000000000000000e+00  6.1014355746695621e+00 2.6157171949172233e+00 0.0000000000000000e+00  6.1137053919756958e+00 2.8237095993277599e+00 0.0000000000000000e+00  6.0682467746580704e+00 2.8265297135040703e+00 0.0000000000000000e+00  6.0884120214949728e+00 2.8576859931644329e+00 0.0000000000000000e+00  6.0690859997761404e+00 3.0789019197353276e+00 0.0000000000000000e+00  6.0521052384018779e+00 2.9995007234372952e+00 0.0000000000000000e+00  6.0416777874923113e+00 3.1511080751061917e+00 0.0000000000000000e+00  6.0483515983278862e+00 3.2426004717141388e+00 0.0000000000000000e+00  6.0046124557335476e+00 3.2687978935840691e+00 0.0000000000000000e+00  6.0166837075625335e+00 3.3485858766428769e+00 0.0000000000000000e+00  5.9966004751690800e+00 3.4785132297807806e+00 0.0000000000000000e+00  5.9776063759499358e+00 3.4730106808111438e+00 0.0000000000000000e+00  5.9634711080904550e+00 3.5859654142470210e+00 0.0000000000000000e+00  5.9604683097812226e+00 3.6733380701479450e+00 0.0000000000000000e+00  5.9261716547516201e+00 3.7101248157533897e+00 0.0000000000000000e+00  5.9238581036674072e+00 3.7772159022670531e+00 0.0000000000000000e+00  5.9012873108183594e+00 3.9010344879968888e+00 0.0000000000000000e+00  5.8854876917925933e+00 3.9010933450267165e+00 0.0000000000000000e+00  5.8661015389279116e+00 4.0036298720285242e+00 0.0000000000000000e+00  5.8469997138937462e+00 4.0870564478046676e+00 0.0000000000000000e+00  5.8302551314004969e+00 4.1076357060238955e+00 0.0000000000000000e+00  5.8109414467386831e+00 4.2110604581769309e+00 0.0000000000000000e+00  5.7802225302004295e+00 4.2727676665917151e+00 0.0000000000000000e+00  5.7735956615205879e+00 4.3071142890994594e+00 0.0000000000000000e+00  5.7477764824893303e+00 4.4076079020513088e+00 0.0000000000000000e+00  5.7084140060449853e+00 4.4487754435599216e+00 0.0000000000000000e+00  5.7101785318069176e+00 4.5168031176401282e+00 0.0000000000000000e+00  5.6775938677276487e+00 4.5672505480299419e+00 0.0000000000000000e+00  5.6361001331078207e+00 4.6535058279504486e+00 0.0000000000000000e+00  5.6334529556246231e+00 4.6825894781363404e+00 0.0000000000000000e+00  5.6099338516604353e+00 4.7503654378304683e+00 0.0000000000000000e+00  5.5555072737784883e+00 4.8246169023090442e+00 0.0000000000000000e+00  5.5557339672144508e+00 4.8542058863216404e+00 0.0000000000000000e+00  5.5300879588228007e+00 4.9205288581322577e+00 0.0000000000000000e+00  5.4839990046448754e+00 4.9889253562760718e+00 0.0000000000000000e+00  5.4586095388559004e+00 5.0069603142524555e+00 0.0000000000000000e+00  5.4524671644776292e+00 5.1264934211727144e+00 0.0000000000000000e+00  5.4029267974838930e+00 5.0766404358832062e+00 0.0000000000000000e+00  5.3615956804074756e+00 5.2492670066385525e+00 0.0000000000000000e+00  5.3604929770934335e+00 5.2203178633272680e+00 0.0000000000000000e+00  5.3252033158124847e+00 5.2785418859508439e+00 0.0000000000000000e+00  5.2596552220374857e+00 5.3635896135179406e+00 0.0000000000000000e+00  5.2659254831163524e+00 5.4223921003103968e+00 0.0000000000000000e+00  5.2384205235784060e+00 5.3897836472732132e+00 0.0000000000000000e+00  5.1666228647231547e+00 5.5358278538117629e+00 0.0000000000000000e+00  5.1715869623554909e+00 5.5599018794713331e+00 0.0000000000000000e+00  5.1372302055678638e+00 5.5591609315603359e+00 0.0000000000000000e+00  5.0923263993393908e+00 5.6412731262815319e+00 0.0000000000000000e+00  5.0756479694728682e+00 5.7262879691512376e+00 0.0000000000000000e+00  5.0322980360596583e+00 5.7001894501322594e+00 0.0000000000000000e+00  5.0073336557703216e+00 5.7806635998260152e+00 0.0000000000000000e+00  4.9928554732343358e+00 5.8574296731902207e+00 0.0000000000000000e+00  4.9219679779410210e+00 5.8451044326713735e+00 0.0000000000000000e+00  4.9182785471000878e+00 5.9349535397197162e+00 0.0000000000000000e+00  4.8945629540865712e+00 5.9869926011834176e+00 0.0000000000000000e+00  4.8267129191038833e+00 5.9876878288934359e+00 0.0000000000000000e+00  4.8205418449704940e+00 6.0809099805949955e+00 0.0000000000000000e+00  4.7808675222943604e+00 6.1511230716341903e+00 0.0000000000000000e+00  4.7542648065501494e+00 6.0830007018925691e+00 0.0000000000000000e+00  4.6807566360284776e+00 6.2977116313175436e+00 0.0000000000000000e+00  4.7415683650763336e+00 6.1973125621411231e+00 0.0000000000000000e+00  4.6314516629539328e+00 6.2584699721681130e+00 0.0000000000000000e+00  4.6269808177783052e+00 6.3890965828114190e+00 0.0000000000000000e+00  4.5956370917541554e+00 6.3891605672536835e+00 0.0000000000000000e+00  4.5697177854519007e+00 6.3677445894364713e+00 0.0000000000000000e+00  4.4771270007995927e+00 6.5874692584858625e+00 0.0000000000000000e+00  4.5446512061556668e+00 6.4853315855188427e+00 0.0000000000000000e+00  4.4517269619289257e+00 6.5062420006129882e+00 0.0000000000000000e+00  4.4070381830441807e+00 6.7250572465012990e+00 0.0000000000000000e+00  4.3659286267053643e+00 6.7089325584711688e+00 0.0000000000000000e+00  4.3680142063013765e+00 6.6608232812059613e+00 0.0000000000000000e+00  4.3001302186631953e+00 6.8653369265186877e+00 0.0000000000000000e+00  4.3034775128627496e+00 6.8001215239287482e+00 0.0000000000000000e+00  4.2325212468256384e+00 6.8734390064131583e+00 0.0000000000000000e+00  4.2809705047505453e+00 6.8870072948474128e+00 0.0000000000000000e+00  4.1600409772684905e+00 7.0215414555678644e+00 0.0000000000000000e+00  4.1596431720114113e+00 6.9951960376424474e+00 0.0000000000000000e+00  4.1493557505522274e+00 7.0660635679277179e+00 0.0000000000000000e+00  4.1718091174071130e+00 7.0341093664868950e+00 0.0000000000000000e+00  4.0700198823334519e+00 7.1331239859325635e+00 0.0000000000000000e+00  4.0340869600594624e+00 7.2352104574542588e+00 0.0000000000000000e+00  4.0640269052076379e+00 7.1881675547814474e+00 0.0000000000000000e+00  3.9892958993027046e+00 7.2725522487597614e+00 0.0000000000000000e+00  4.0227880600587937e+00 7.2366721951453075e+00 0.0000000000000000e+00  3.8622170002743723e+00 7.5124422976099172e+00 0.0000000000000000e+00  4.0053706575557984e+00 7.2676395354149941e+00 0.0000000000000000e+00  3.7978381396274017e+00 7.5321096514327923e+00 0.0000000000000000e+00  3.9251641924773626e+00 7.4895301179795597e+00 0.0000000000000000e+00  3.7966605602340580e+00 7.4924522521482446e+00 0.0000000000000000e+00  3.8253159362525433e+00 7.6125069411267843e+00 0.0000000000000000e+00  3.6275693132975930e+00 7.8164630893786553e+00 0.0000000000000000e+00  3.6293643522116783e+00 7.8685857436588735e+00 0.0000000000000000e+00  3.9706823232777397e+00 7.2773357508284597e+00 0.0000000000000000e+00  3.7821826227744615e+00 7.6568611070787691e+00 0.0000000000000000e+00  4.1283888560355564e+00 7.0707690632392000e+00 0.0000000000000000e+00  4.0201953753040076e+00 7.2626368794802554e+00 0.0000000000000000e+00  3.9052231081117044e+00 7.3991572967342396e+00 0.0000000000000000e+00  4.0103909143673127e+00 7.3043216597604657e+00 0.0000000000000000e+00  4.0539515466994329e+00 7.1286361303186725e+00 0.0000000000000000e+00  3.9520798293961192e+00 7.4223363344513213e+00 0.0000000000000000e+00  3.9056381369611719e+00 7.3622229128978880e+00 0.0000000000000000e+00  3.9713193773537658e+00 7.3186764468493877e+00 0.0000000000000000e+00  3.9269200824081842e+00 7.4107145936091277e+00 0.0000000000000000e+00  3.9491799060814676e+00 7.3298059687298007e+00 0.0000000000000000e+00  4.0250906671069560e+00 7.2323006660699418e+00 0.0000000000000000e+00  3.9174817434958773e+00 7.4411972743079051e+00 0.0000000000000000e+00  3.9464302947903094e+00 7.3075295942286846e+00 0.0000000000000000e+00  3.9781928949066865e+00 7.3269686249728343e+00 0.0000000000000000e+00  3.9180023829960215e+00 7.3987700437575397e+00 0.0000000000000000e+00  3.9969321720396040e+00 7.2821820687911432e+00 0.0000000000000000e+00  3.9628749026563268e+00 7.3159655234678809e+00 0.0000000000000000e+00  3.9742962924288645e+00 7.3517921132688544e+00 0.0000000000000000e+00  3.9770432238960018e+00 7.2845622822850764e+00 0.0000000000000000e+00  3.9562605124879111e+00 7.3441668651021432e+00 0.0000000000000000e+00  3.9250369158176430e+00 7.4030973240541220e+00 0.0000000000000000e+00  4.0188232988894415e+00 7.2382035680634207e+00 0.0000000000000000e+00  3.9625169014478852e+00 7.3409533569294529e+00 0.0000000000000000e+00  3.9510798157085567e+00 7.3474142000908271e+00 0.0000000000000000e+00  3.9692528491264594e+00 7.3255630874084545e+00 0.0000000000000000e+00  3.9687171222502462e+00 7.3098258403460150e+00 0.0000000000000000e+00  3.9393361199830763e+00 7.3825665695448706e+00 0.0000000000000000e+00  3.9673870980804589e+00 7.3155923120463378e+00 0.0000000000000000e+00  3.9735897582980813e+00 7.3103595557309653e+00 0.0000000000000000e+00  3.9651856613808651e+00 7.3598529894996663e+00 0.0000000000000000e+00  3.9301913817609622e+00 7.3442495785670445e+00 0.0000000000000000e+00  3.9771185346819582e+00 7.3256521805694668e+00 0.0000000000000000e+00  3.9693678946797415e+00 7.3359675901381767e+00 0.0000000000000000e+00  3.9491703651650991e+00 7.3426240383433887e+00 0.0000000000000000e+00  3.9404749585582848e+00 7.3688527348514166e+00 0.0000000000000000e+00  3.9850279100710657e+00 7.3169619308863387e+00 0.0000000000000000e+00  3.9509131808867362e+00 7.3387735271401677e+00 0.0000000000000000e+00  3.9705321981454400e+00 7.3408447531054426e+00 0.0000000000000000e+00  3.9506167578819387e+00 7.3435326787250865e+00 0.0000000000000000e+00  3.9765310940449905e+00 7.3394479416939511e+00 0.0000000000000000e+00  3.9393356364714553e+00 7.3527743915931456e+00 0.0000000000000000e+00  3.9783837056046165e+00 7.3335623989645757e+00 0.0000000000000000e+00  3.9689184899428680e+00 7.3335271245955287e+00 0.0000000000000000e+00  3.9514958265376574e+00 7.3754358520621190e+00 0.0000000000000000e+00  3.9316549767281423e+00 7.3266121855957991e+00 0.0000000000000000e+00  4.0227118806641657e+00 7.3415713460132501e+00 0.0000000000000000e+00  3.9392302362513014e+00 7.4366027222804414e+00 0.0000000000000000e+00  4.0623739217537818e+00 6.8932244452789577e+00 0.0000000000000000e+00  3.4948295925281561e+00 8.3061183124069125e+00 0.0000000000000000e+00  9.5170187477008632e+00 4.1186267110373077e-02 0.0000000000000000e+00  8.8970019219530485e+00 5.9338633914353822e-01 0.0000000000000000e+00  9.8296075640198257e+00 -3.0800541219817812e-01 0.0000000000000000e+00  9.2792776177925127e+00 2.1842806056547548e-01 0.0000000000000000e+00  9.6034440964101506e+00 -7.6320347385601228e-02 0.0000000000000000e+00  9.4750603224817080e+00 2.2453326995256744e-02 0.0000000000000000e+00  9.4899667043471290e+00 3.8888217832336841e-02 0.0000000000000000e+00  9.4870647721538184e+00 7.5060353009357410e-03 0.0000000000000000e+00  9.5053454919168310e+00 2.4871115639674118e-02 0.0000000000000000e+00  9.4921276663522161e+00 -9.0748445428292246e-03 0.0000000000000000e+00  9.4986868073250186e+00 3.6377931752513699e-02 0.0000000000000000e+00  9.4868185754463283e+00 -5.4587071628439047e-04 0.0000000000000000e+00  9.5071837770525036e+00 2.6238264408400828e-02 0.0000000000000000e+00  9.4850328638223864e+00 3.3351939961574662e-03 0.0000000000000000e+00  9.5083051672503505e+00 3.1676531599666553e-02 0.0000000000000000e+00  9.4829669754351418e+00 4.6349896105538461e-03 0.0000000000000000e+00  9.5066643378354669e+00 2.3046946725093716e-02 0.0000000000000000e+00  9.4825244069695582e+00 4.8386030503070575e-03 0.0000000000000000e+00  9.5066914321636649e+00 -5.1791023825345081e-03 0.0000000000000000e+00  9.4835108378274793e+00 3.7339814239281566e-02 0.0000000000000000e+00  9.5045105388484838e+00 -5.9071305277743520e-02 0.0000000000000000e+00  9.4852479059772410e+00 1.7740855082481528e-02 0.0000000000000000e+00  9.5103935827027435e+00 -2.9760272960208462e-02 0.0000000000000000e+00  9.4839636129891467e+00 -1.8112377558524528e-01 0.0000000000000000e+00  9.4859596666614117e+00 0.0000000000000000e+00 -7.8028924788686005e-02  9.5104433528225147e+00 0.0000000000000000e+00 -1.6456447155352407e-02  9.4883519060865567e+00 0.0000000000000000e+00 -2.9290187805726019e-02  9.5083864317543920e+00 0.0000000000000000e+00 -9.7210440589533986e-02  9.4887190797647651e+00 0.0000000000000000e+00 3.8590658994922179e-02  9.5046518693805773e+00 0.0000000000000000e+00 8.0328924894918441e-02  9.4880050575134032e+00 0.0000000000000000e+00 2.9009399559859444e-03  9.5060359414754654e+00 0.0000000000000000e+00 -8.9336910924843083e-02  9.4875902062365380e+00 0.0000000000000000e+00 -9.1446421137385422e-02  9.5066127314460740e+00 0.0000000000000000e+00 1.6526713568636650e-01  9.4799213255580455e+00 0.0000000000000000e+00 -1.4040121636787060e-02  9.5038205647843750e+00 0.0000000000000000e+00 3.3575656514014368e-02  9.4853223261230291e+00 0.0000000000000000e+00 -3.0977406944513078e-02  9.4903077536691463e+00 0.0000000000000000e+00 -2.1882270279401414e-02  9.4907591319422888e+00 0.0000000000000000e+00 -5.0192872817980558e-02  9.4919289508134046e+00 0.0000000000000000e+00 -1.3602887170945083e-01  9.4790674478163250e+00 0.0000000000000000e+00 -9.1449584920098859e-02  9.4907029427372791e+00 0.0000000000000000e+00 -2.7545822538814929e-01  9.4974754329915978e+00 0.0000000000000000e+00 7.3121233407522385e-02  9.4921990304902675e+00 0.0000000000000000e+00 9.6820611824701822e-02  9.4876868798054907e+00 0.0000000000000000e+00 -4.2441239202521991e-02  9.4906554878881160e+00 0.0000000000000000e+00 -1.8765713416467031e-01  9.4928597917459072e+00 0.0000000000000000e+00 -3.1203830821681138e-02  9.4986173498005098e+00 0.0000000000000000e+00 2.5349039937460138e-01  9.4979726298253144e+00 0.0000000000000000e+00 1.3004085892679242e-02  9.4995442784915358e+00 0.0000000000000000e+00 8.1153735948413755e-02  9.5077361701500198e+00 0.0000000000000000e+00 4.4625567339314351e-03  9.5094545401985666e+00 0.0000000000000000e+00 -1.0473607402811505e-01  9.4856569094075276e+00 0.0000000000000000e+00 -9.9924535262567435e-02  9.5274087398093688e+00 0.0000000000000000e+00 6.8952950767701082e-02  9.4958783835453477e+00 0.0000000000000000e+00 -2.3355792981642684e-02  9.5059311326794251e+00 0.0000000000000000e+00 -1.3552975649402579e-01  9.5030234405448297e+00 0.0000000000000000e+00 -4.4048043155573077e-02  9.5296828402027334e+00 0.0000000000000000e+00 -1.2063435946572738e-01  9.4746502996219473e+00 0.0000000000000000e+00 -9.2217916209459141e-02  9.5369266671034776e+00 0.0000000000000000e+00 -1.1965144892347943e-01  9.4955189020175705e+00 0.0000000000000000e+00 -1.3031754078968280e-01  9.5095631404536860e+00 0.0000000000000000e+00 -2.1445945843707137e-01  9.5088880559403339e+00 0.0000000000000000e+00 1.7002377391537558e-02  9.5276418683526760e+00 -3.5116918810284153e-01 0.0000000000000000e+00  9.5260344874440470e+00 -3.1227273549452328e-01 0.0000000000000000e+00  9.5068474873382129e+00 -1.7410115572539273e-01 0.0000000000000000e+00  9.5171530207903778e+00 -1.2901787608227949e-01 0.0000000000000000e+00  9.5294477120123080e+00 -5.5916288983316220e-01 0.0000000000000000e+00  9.4832780564603709e+00 -7.8232172723561266e-01 0.0000000000000000e+00  9.5237052204953692e+00 -3.5941196246957141e-01 0.0000000000000000e+00  9.5053087689639462e+00 -5.0532162454467422e-01 0.0000000000000000e+00  9.5324383696569743e+00 -4.8719536097070965e-01 0.0000000000000000e+00  9.4703944829618081e+00 -2.6272388934988133e-01 0.0000000000000000e+00  9.5470428214919210e+00 -1.4635073069148793e-01 0.0000000000000000e+00  9.4893777901741405e+00 -9.6298590192941805e-02 0.0000000000000000e+00  9.5199539292986195e+00 -4.8193571802465099e-02 0.0000000000000000e+00  9.5215569197580336e+00 1.7631864636086284e-01 0.0000000000000000e+00  9.4847010576912716e+00 5.4146200919642867e-02 0.0000000000000000e+00  9.5629270660721808e+00 1.5243616125402193e-01 0.0000000000000000e+00  9.4518182245652458e+00 9.6876713437457934e-02 0.0000000000000000e+00  9.5408316219042479e+00 6.4533469877953720e-02 0.0000000000000000e+00  9.5413367247150944e+00 -6.2914383397580598e-02 0.0000000000000000e+00  9.5456969882986282e+00 7.9090755012136124e-02 0.0000000000000000e+00  9.3739736454514198e+00 8.8385597872209995e-02 0.0000000000000000e+00  9.7926655884308289e+00 -2.9051468292707527e-01 0.0000000000000000e+00  8.9173201801920090e+00 3.9948291527991975e-01 0.0000000000000000e+00  9.5718096092883815e+00 1.7180875492894032e-01 0.0000000000000000e+00  3.6090756201176566e+00 8.1796249140493664e+00 0.0000000000000000e+00  4.0122097290988998e+00 6.7633888505919959e+00 0.0000000000000000e+00  4.0495438170626592e+00 7.5009475383558879e+00 0.0000000000000000e+00  4.0982484907729928e+00 7.2069367042184718e+00 0.0000000000000000e+00  3.8873653225328706e+00 7.4232650934577773e+00 0.0000000000000000e+00  4.0516156991571233e+00 7.2068261580893536e+00 0.0000000000000000e+00  4.0553226199238059e+00 7.3486017218704864e+00 0.0000000000000000e+00  3.9885215801186416e+00 7.2937764947279984e+00 0.0000000000000000e+00  4.0263115380967047e+00 7.2780228715294655e+00 0.0000000000000000e+00  4.0054805222777858e+00 7.3103742598877970e+00 0.0000000000000000e+00  4.0179966956069570e+00 7.2975908908863509e+00 0.0000000000000000e+00  3.9860882461401812e+00 7.3227643895216525e+00 0.0000000000000000e+00  4.0338855806425142e+00 7.1820017632132274e+00 0.0000000000000000e+00  4.0043054666965530e+00 7.3514549340638267e+00 0.0000000000000000e+00  3.9283114945628848e+00 7.3330761382652900e+00 0.0000000000000000e+00  3.9539615667756731e+00 7.3922433886797005e+00 0.0000000000000000e+00  3.9285614611929494e+00 7.3129742990338391e+00 0.0000000000000000e+00  3.9307525756708910e+00 7.3994