<?xml version="1.0"?>
<VTKFile type="UnstructuredGrid"  version="0.1"  >
<UnstructuredGrid>
<Piece  NumberOfPoints="9509" NumberOfCells="18536">
<Points>
<DataArray  type="Float64"  NumberOfComponents="3"  format="ascii">-5 -1 0  5 -1 0  5 1 0  -5 1 0  -4.949999999999965 -1 0  -4.899999999999877 -1 0  -4.849999999999826 -1 0  -4.799999999999754 -1 0  -4.749999999999695 -1 0  -4.69999999999963 -1 0  -4.649999999999565 -1 0  -4.599999999999507 -1 0  -4.549999999999454 -1 0  -4.499999999999384 -1 0  -4.449999999999317 -1 0  -4.399999999999261 -1 0  -4.349999999999206 -1 0  -4.299999999999137 -1 0  -4.249999999999075 -1 0  -4.199999999999013 -1 0  -4.149999999998934 -1 0  -4.09999999999889 -1 0  -4.049999999998847 -1 0  -3.999999999998767 -1 0  -3.949999999998706 -1 0  -3.899999999998644 -1 0  -3.849999999998594 -1 0  -3.799999999998552 -1 0  -3.749999999998549 -1 0  -3.699999999998651 -1 0  -3.649999999998804 -1 0  -3.59999999999894 -1 0  -3.549999999999097 -1 0  -3.499999999999261 -1 0  -3.449999999999394 -1 0  -3.399999999999582 -1 0  -3.349999999999742 -1 0  -3.299999999999902 -1 0  -3.25000000000006 -1 0  -3.200000000000223 -1 0  -3.150000000000369 -1 0  -3.100000000000544 -1 0  -3.050000000000704 -1 0  -3.000000000000864 -1 0  -2.950000000001029 -1 0  -2.900000000001185 -1 0  -2.850000000001347 -1 0  -2.800000000001506 -1 0  -2.750000000001665 -1 0  -2.700000000001827 -1 0  -2.650000000001979 -1 0  -2.600000000002148 -1 0  -2.550000000002311 -1 0  -2.500000000002468 -1 0  -2.450000000002635 -1 0  -2.400000000002789 -1 0  -2.35000000000295 -1 0  -2.30000000000311 -1 0  -2.250000000003253 -1 0  -2.200000000003431 -1 0  -2.150000000003601 -1 0  -2.100000000003752 -1 0  -2.050000000003922 -1 0  -2.000000000004072 -1 0  -1.950000000004237 -1 0  -1.900000000004393 -1 0  -1.850000000004541 -1 0  -1.800000000004714 -1 0  -1.750000000004886 -1 0  -1.700000000005035 -1 0  -1.650000000005206 -1 0  -1.600000000005355 -1 0  -1.550000000005516 -1 0  -1.500000000005676 -1 0  -1.450000000005824 -1 0  -1.400000000005996 -1 0  -1.350000000006146 -1 0  -1.300000000006318 -1 0  -1.250000000006505 -1 0  -1.200000000006638 -1 0  -1.150000000006797 -1 0  -1.100000000006959 -1 0  -1.050000000007106 -1 0  -1.000000000007245 -1 0  -0.9500000000072193 -1 0  -0.9000000000072612 -1 0  -0.8500000000071966 -1 0  -0.8000000000071381 -1 0  -0.750000000007085 -1 0  -0.700000000007015 -1 0  -0.6500000000069521 -1 0  -0.6000000000068919 -1 0  -0.5500000000068104 -1 0  -0.5000000000067688 -1 0  -0.4500000000067104 -1 0  -0.4000000000066457 -1 0  -0.3500000000065757 -1 0  -0.3000000000065226 -1 0  -0.2500000000064961 -1 0  -0.2000000000063995 -1 0  -0.1500000000063775 -1 0  -0.1000000000062764 -1 0  -0.0500000000062597 -1 0  -6.153300091682468e-12 -1 0  0.04999999999390781 -1 0  0.09999999999396891 -1 0  0.14999999999403 -1 0  0.1999999999940929 -1 0  0.2499999999941318 -1 0  0.299999999994216 -1 0  0.349999999994254 -1 0  0.3999999999943391 -1 0  0.4499999999944038 -1 0  0.4999999999944613 -1 0  0.5499999999945429 -1 0  0.5999999999945853 -1 0  0.6499999999946606 -1 0  0.6999999999947084 -1 0  0.7499999999947651 -1 0  0.7999999999948315 -1 0  0.8499999999948926 -1 0  0.8999999999949537 -1 0  0.9499999999950148 -1 0  0.9999999999950768 -1 0  1.049999999995139 -1 0  1.0999999999952 -1 0  1.149999999995266 -1 0  1.199999999995324 -1 0  1.249999999995385 -1 0  1.299999999995446 -1 0  1.349999999995488 -1 0  1.399999999995569 -1 0  1.449999999995604 -1 0  1.499999999995692 -1 0  1.549999999995753 -1 0  1.599999999995816 -1 0  1.649999999995892 -1 0  1.699999999995939 -1 0  1.749999999996017 -1 0  1.799999999996063 -1 0  1.849999999996111 -1 0  1.899999999996185 -1 0  1.949999999996246 -1 0  1.999999999996308 -1 0  2.049999999996351 -1 0  2.099999999996431 -1 0  2.149999999996504 -1 0  2.199999999996555 -1 0  2.249999999996616 -1 0  2.299999999996677 -1 0  2.349999999996736 -1 0  2.3999999999968 -1 0  2.449999999996847 -1 0  2.499999999996923 -1 0  2.549999999997 -1 0  2.599999999997047 -1 0  2.649999999997093 -1 0  2.69999999999717 -1 0  2.749999999997245 -1 0  2.799999999997293 -1 0  2.849999999997344 -1 0  2.899999999997416 -1 0  2.949999999997469 -1 0  2.999999999997539 -1 0  3.049999999997576 -1 0  3.099999999997662 -1 0  3.149999999997725 -1 0  3.199999999997784 -1 0  3.249999999997829 -1 0  3.299999999997908 -1 0  3.349999999997921 -1 0  3.39999999999803 -1 0  3.4499999999981 -1 0  3.499999999998153 -1 0  3.549999999998214 -1 0  3.599999999998277 -1 0  3.649999999998409 -1 0  3.699999999998401 -1 0  3.749999999998444 -1 0  3.799999999998523 -1 0  3.849999999998602 -1 0  3.899999999998645 -1 0  3.949999999998658 -1 0  3.999999999998769 -1 0  4.049999999998814 -1 0  4.099999999998893 -1 0  4.149999999998883 -1 0  4.199999999999015 -1 0  4.249999999999064 -1 0  4.299999999999137 -1 0  4.349999999999152 -1 0  4.399999999999261 -1 0  4.44999999999933 -1 0  4.499999999999385 -1 0  4.549999999999446 -1 0  4.599999999999508 -1 0  4.649999999999633 -1 0  4.699999999999632 -1 0  4.749999999999723 -1 0  4.799999999999754 -1 0  4.849999999999801 -1 0  4.899999999999876 -1 0  4.949999999999925 -1 0  5 -0.950000000000111 0  5 -0.9000000000002774 0  5 -0.8500000000004283 0  5 -0.8000000000005548 0  5 -0.7500000000006787 0  5 -0.7000000000008322 0  5 -0.6500000000009709 0  5 -0.6000000000011096 0  5 -0.5500000000012484 0  5 -0.500000000001387 0  5 -0.4500000000015256 0  5 -0.4000000000016644 0  5 -0.3500000000018031 0  5 -0.3000000000019418 0  5 -0.2500000000020806 0  5 -0.2000000000022192 0  5 -0.1500000000023578 0  5 -0.1000000000024964 0  5 -0.05000000000262439 0  5 -2.752242878045763e-12 0  5 0.0499999999973757 0  5 0.09999999999750342 0  5 0.1499999999976422 0  5 0.1999999999977808 0  5 0.2499999999979194 0  5 0.2999999999980583 0  5 0.3499999999981969 0  5 0.3999999999983355 0  5 0.4499999999984743 0  5 0.4999999999986129 0  5 0.5499999999987515 0  5 0.5999999999988903 0  5 0.6499999999990291 0  5 0.699999999999168 0  5 0.7499999999993068 0  5 0.7999999999994454 0  5 0.849999999999584 0  5 0.8999999999997226 0  5 0.9499999999998612 0  4.949999999999965 1 0  4.899999999999877 1 0  4.849999999999826 1 0  4.799999999999754 1 0  4.749999999999695 1 0  4.69999999999963 1 0  4.649999999999565 1 0  4.599999999999507 1 0  4.549999999999454 1 0  4.499999999999384 1 0  4.449999999999317 1 0  4.399999999999261 1 0  4.349999999999206 1 0  4.299999999999137 1 0  4.249999999999075 1 0  4.199999999999013 1 0  4.149999999998934 1 0  4.09999999999889 1 0  4.049999999998847 1 0  3.999999999998767 1 0  3.949999999998706 1 0  3.899999999998644 1 0  3.849999999998594 1 0  3.799999999998552 1 0  3.749999999998549 1 0  3.699999999998651 1 0  3.649999999998804 1 0  3.59999999999894 1 0  3.549999999999097 1 0  3.499999999999261 1 0  3.449999999999394 1 0  3.399999999999582 1 0  3.349999999999742 1 0  3.299999999999902 1 0  3.25000000000006 1 0  3.200000000000223 1 0  3.150000000000369 1 0  3.100000000000544 1 0  3.050000000000704 1 0  3.000000000000864 1 0  2.950000000001029 1 0  2.900000000001185 1 0  2.850000000001347 1 0  2.800000000001506 1 0  2.750000000001665 1 0  2.700000000001827 1 0  2.650000000001979 1 0  2.600000000002148 1 0  2.550000000002311 1 0  2.500000000002468 1 0  2.450000000002635 1 0  2.400000000002789 1 0  2.35000000000295 1 0  2.30000000000311 1 0  2.250000000003253 1 0  2.200000000003431 1 0  2.150000000003601 1 0  2.100000000003752 1 0  2.050000000003922 1 0  2.000000000004072 1 0  1.950000000004237 1 0  1.900000000004393 1 0  1.850000000004541 1 0  1.800000000004714 1 0  1.750000000004886 1 0  1.700000000005035 1 0  1.650000000005206 1 0  1.600000000005355 1 0  1.550000000005516 1 0  1.500000000005676 1 0  1.450000000005824 1 0  1.400000000005996 1 0  1.350000000006146 1 0  1.300000000006318 1 0  1.250000000006505 1 0  1.200000000006638 1 0  1.150000000006797 1 0  1.100000000006959 1 0  1.050000000007106 1 0  1.000000000007245 1 0  0.9500000000072193 1 0  0.9000000000072612 1 0  0.8500000000071966 1 0  0.8000000000071381 1 0  0.750000000007085 1 0  0.700000000007015 1 0  0.6500000000069521 1 0  0.6000000000068919 1 0  0.5500000000068104 1 0  0.5000000000067688 1 0  0.4500000000067104 1 0  0.4000000000066457 1 0  0.3500000000065757 1 0  0.3000000000065226 1 0  0.2500000000064961 1 0  0.2000000000063995 1 0  0.1500000000063775 1 0  0.1000000000062764 1 0  0.0500000000062597 1 0  6.153300091682468e-12 1 0  -0.04999999999390781 1 0  -0.09999999999396891 1 0  -0.14999999999403 1 0  -0.1999999999940929 1 0  -0.2499999999941318 1 0  -0.299999999994216 1 0  -0.349999999994254 1 0  -0.3999999999943391 1 0  -0.4499999999944038 1 0  -0.4999999999944613 1 0  -0.5499999999945429 1 0  -0.5999999999945853 1 0  -0.6499999999946606 1 0  -0.6999999999947084 1 0  -0.7499999999947651 1 0  -0.7999999999948315 1 0  -0.8499999999948926 1 0  -0.8999999999949537 1 0  -0.9499999999950148 1 0  -0.9999999999950768 1 0  -1.049999999995139 1 0  -1.0999999999952 1 0  -1.149999999995266 1 0  -1.199999999995324 1 0  -1.249999999995385 1 0  -1.299999999995446 1 0  -1.349999999995488 1 0  -1.399999999995569 1 0  -1.449999999995604 1 0  -1.499999999995692 1 0  -1.549999999995753 1 0  -1.599999999995816 1 0  -1.649999999995892 1 0  -1.699999999995939 1 0  -1.749999999996017 1 0  -1.799999999996063 1 0  -1.849999999996111 1 0  -1.899999999996185 1 0  -1.949999999996246 1 0  -1.999999999996308 1 0  -2.049999999996351 1 0  -2.099999999996431 1 0  -2.149999999996504 1 0  -2.199999999996555 1 0  -2.249999999996616 1 0  -2.299999999996677 1 0  -2.349999999996736 1 0  -2.3999999999968 1 0  -2.449999999996847 1 0  -2.499999999996923 1 0  -2.549999999997 1 0  -2.599999999997047 1 0  -2.649999999997093 1 0  -2.69999999999717 1 0  -2.749999999997245 1 0  -2.799999999997293 1 0  -2.849999999997344 1 0  -2.899999999997416 1 0  -2.949999999997469 1 0  -2.999999999997539 1 0  -3.049999999997576 1 0  -3.099999999997662 1 0  -3.149999999997725 1 0  -3.199999999997784 1 0  -3.249999999997829 1 0  -3.29999
[...]
<PointData  Vectors="(h, u)"> 
<DataArray  type="Float64"  Name="(h, u)"  NumberOfComponents="3" format="ascii">4.6026687431781363e+00 0.0000000000000000e+00 0.0000000000000000e+00  9.5002303272766824e+00 0.0000000000000000e+00 0.0000000000000000e+00  9.5012644724578728e+00 0.0000000000000000e+00 0.0000000000000000e+00  4.5964413802045723e+00 0.0000000000000000e+00 0.0000000000000000e+00  4.6020222980382464e+00 4.4016677730729661e-02 0.0000000000000000e+00  4.6022207571741474e+00 1.6168991545033559e-01 0.0000000000000000e+00  4.6047277821129065e+00 2.0797623052131542e-01 0.0000000000000000e+00  4.5997469214087232e+00 1.9705802455887814e-01 0.0000000000000000e+00  4.6020977003161168e+00 3.3732629545645898e-01 0.0000000000000000e+00  4.6025503609572711e+00 4.3155070563388187e-01 0.0000000000000000e+00  4.6002690278449148e+00 3.8814964953720066e-01 0.0000000000000000e+00  4.6048898374762954e+00 6.1278009503666997e-01 0.0000000000000000e+00  4.5959049212024734e+00 5.5821260189375121e-01 0.0000000000000000e+00  4.6007649383320617e+00 6.3448706117776821e-01 0.0000000000000000e+00  4.5997048980871575e+00 7.3041353160682965e-01 0.0000000000000000e+00  4.5972804376252858e+00 8.3400037754702283e-01 0.0000000000000000e+00  4.5918156703492867e+00 7.3006023190729663e-01 0.0000000000000000e+00  4.6037045988631418e+00 1.0092316450131955e+00 0.0000000000000000e+00  4.5882892255151688e+00 9.6309736301197135e-01 0.0000000000000000e+00  4.5961806964066234e+00 1.0000145582694715e+00 0.0000000000000000e+00  4.5932908076131982e+00 1.1076464417922463e+00 0.0000000000000000e+00  4.5957619248651209e+00 1.2658886741752629e+00 0.0000000000000000e+00  4.5815332982936585e+00 1.1077250176872118e+00 0.0000000000000000e+00  4.6030573206556324e+00 1.3671306811646939e+00 0.0000000000000000e+00  4.5801406779974521e+00 1.3748768641849789e+00 0.0000000000000000e+00  4.5910577581753671e+00 1.4018304238419379e+00 0.0000000000000000e+00  4.5864637506016566e+00 1.5014910194409528e+00 0.0000000000000000e+00  4.5906834463071871e+00 1.5617607627973384e+00 0.0000000000000000e+00  4.5726618532225700e+00 1.6076949146554116e+00 0.0000000000000000e+00  4.5967330843567682e+00 1.7176687250350160e+00 0.0000000000000000e+00  4.5732205091189151e+00 1.7177568229004265e+00 0.0000000000000000e+00  4.5808472959370654e+00 1.8193906228378112e+00 0.0000000000000000e+00  4.5801397887973723e+00 1.8984221820233713e+00 0.0000000000000000e+00  4.5811887509955920e+00 1.9370274483617056e+00 0.0000000000000000e+00  4.5632012871082477e+00 2.0015601460397656e+00 0.0000000000000000e+00  4.5880985011375488e+00 2.0743163549487549e+00 0.0000000000000000e+00  4.5647663081653826e+00 2.1511244603603759e+00 0.0000000000000000e+00  4.5678805639809630e+00 2.1857108625108701e+00 0.0000000000000000e+00  4.5747096421355833e+00 2.2722540373766060e+00 0.0000000000000000e+00  4.5668149453439275e+00 2.3201362139907591e+00 0.0000000000000000e+00  4.5550730945722622e+00 2.4149188102020553e+00 0.0000000000000000e+00  4.5754263874160763e+00 2.4243965306214217e+00 0.0000000000000000e+00  4.5552736780660057e+00 2.5497618046595005e+00 0.0000000000000000e+00  4.5525028997849564e+00 2.5788152851911268e+00 0.0000000000000000e+00  4.5659492020514554e+00 2.6440639245371105e+00 0.0000000000000000e+00  4.5500022064650292e+00 2.7203598866544714e+00 0.0000000000000000e+00  4.5440009877231029e+00 2.7922393707339159e+00 0.0000000000000000e+00  4.5585012329542254e+00 2.8187987160462047e+00 0.0000000000000000e+00  4.5419073392663547e+00 2.9403476207008725e+00 0.0000000000000000e+00  4.5354940361941933e+00 2.9410691784687630e+00 0.0000000000000000e+00  4.5499829890555485e+00 3.0745525123807202e+00 0.0000000000000000e+00  4.5314651316350272e+00 3.0591416013010946e+00 0.0000000000000000e+00  4.5290799891364637e+00 3.2021441144596285e+00 0.0000000000000000e+00  4.5371651368103985e+00 3.2080440141532813e+00 0.0000000000000000e+00  4.5242623453260968e+00 3.2976846438522744e+00 0.0000000000000000e+00  4.5185319661621035e+00 3.3510407432855733e+00 0.0000000000000000e+00  4.5281599021794383e+00 3.4314651531274563e+00 0.0000000000000000e+00  4.5118957959947901e+00 3.4608354928180574e+00 0.0000000000000000e+00  4.5130698877478181e+00 3.5581368178810973e+00 0.0000000000000000e+00  4.5131124864192023e+00 3.6053967127635769e+00 0.0000000000000000e+00  4.5042485766870977e+00 3.6609290725806902e+00 0.0000000000000000e+00  4.5016055215525981e+00 3.7421018899751499e+00 0.0000000000000000e+00  4.5014086059912177e+00 3.7848112071047844e+00 0.0000000000000000e+00  4.4891248665162014e+00 3.8785929887555715e+00 0.0000000000000000e+00  4.4949610488088130e+00 3.8911266947969954e+00 0.0000000000000000e+00  4.4824882941819153e+00 4.0147690645640992e+00 0.0000000000000000e+00  4.4787338906077325e+00 4.0384643065373620e+00 0.0000000000000000e+00  4.4820813958498000e+00 4.0951491528700954e+00 0.0000000000000000e+00  4.4717601500709234e+00 4.1910866340686779e+00 0.0000000000000000e+00  4.4624273337411138e+00 4.2354964255028387e+00 0.0000000000000000e+00  4.4728993330196483e+00 4.2647804387011430e+00 0.0000000000000000e+00  4.4590749919344184e+00 4.3974505447238244e+00 0.0000000000000000e+00  4.4507079019950035e+00 4.3842877088971361e+00 0.0000000000000000e+00  4.4619546305777682e+00 4.4823742256304175e+00 0.0000000000000000e+00  4.4494985666383569e+00 4.5467754805779137e+00 0.0000000000000000e+00  4.4400290617036005e+00 4.5713080886619863e+00 0.0000000000000000e+00  4.4365733634064046e+00 4.6919789478500933e+00 0.0000000000000000e+00  4.4448882534333718e+00 4.6892913797736844e+00 0.0000000000000000e+00  4.4161346110382382e+00 4.7860616176367881e+00 0.0000000000000000e+00  4.4161942110988468e+00 4.8711382358547564e+00 0.0000000000000000e+00  4.4195968157093199e+00 4.8706043363505866e+00 0.0000000000000000e+00  4.4179496468611035e+00 4.9614903046379046e+00 0.0000000000000000e+00  4.3723869039939052e+00 5.0607990915395549e+00 0.0000000000000000e+00  4.4056433663874328e+00 5.0677319500450775e+00 0.0000000000000000e+00  4.3912261102767642e+00 5.1212601960278281e+00 0.0000000000000000e+00  4.3724723580411853e+00 5.2518848748440803e+00 0.0000000000000000e+00  4.3565504247403890e+00 5.2239837637621260e+00 0.0000000000000000e+00  4.3693355281406197e+00 5.3736267452442181e+00 0.0000000000000000e+00  4.3539207347707283e+00 5.3547354574341703e+00 0.0000000000000000e+00  4.3387025381592306e+00 5.4346033419610942e+00 0.0000000000000000e+00  4.3233306201525465e+00 5.5707694922284015e+00 0.0000000000000000e+00  4.3343494482147724e+00 5.5164327090821601e+00 0.0000000000000000e+00  4.3022880668612542e+00 5.6290915855561092e+00 0.0000000000000000e+00  4.3246836702601268e+00 5.7194587688982930e+00 0.0000000000000000e+00  4.2708320299879077e+00 5.7046647513624356e+00 0.0000000000000000e+00  4.3183875153674771e+00 5.7861611226700083e+00 0.0000000000000000e+00  4.2837608690041389e+00 5.8573368403461332e+00 0.0000000000000000e+00  4.3041606004826916e+00 5.8293897553412179e+00 0.0000000000000000e+00  4.2250863370313496e+00 6.0165498462914151e+00 0.0000000000000000e+00  4.2835668877506166e+00 6.0171790081237075e+00 0.0000000000000000e+00  4.2401844465184819e+00 6.0046161195503149e+00 0.0000000000000000e+00  4.2059304880329327e+00 6.2139862398364416e+00 0.0000000000000000e+00  4.2346844619286053e+00 6.1501191013614891e+00 0.0000000000000000e+00  4.2369390915403651e+00 6.1722951428074238e+00 0.0000000000000000e+00  4.1280395795591032e+00 6.4118152978227423e+00 0.0000000000000000e+00  4.1808758579919267e+00 6.3399560043001237e+00 0.0000000000000000e+00  4.1779627592399686e+00 6.3826120965709974e+00 0.0000000000000000e+00  4.1442414824018696e+00 6.4761892087553559e+00 0.0000000000000000e+00  4.1787841791266125e+00 6.4529876806785929e+00 0.0000000000000000e+00  4.1558489587341292e+00 6.5302795495026604e+00 0.0000000000000000e+00  4.1219902036360638e+00 6.5873688922664035e+00 0.0000000000000000e+00  4.0774314015424595e+00 6.7003514740088530e+00 0.0000000000000000e+00  4.1055899366721365e+00 6.6929141738190356e+00 0.0000000000000000e+00  4.0701517737173987e+00 6.7446676438723241e+00 0.0000000000000000e+00  4.1076024839963985e+00 6.7596112590553483e+00 0.0000000000000000e+00  4.0267207381631120e+00 6.8684899086923217e+00 0.0000000000000000e+00  4.0151336639470232e+00 6.9131069795693652e+00 0.0000000000000000e+00  3.9648180477991026e+00 7.0374013343107471e+00 0.0000000000000000e+00  4.0320739212528656e+00 6.9343457915055682e+00 0.0000000000000000e+00  4.0274051823530961e+00 6.9756640469158571e+00 0.0000000000000000e+00  3.9740953071120968e+00 7.0876428813890096e+00 0.0000000000000000e+00  3.9349575746273207e+00 7.1192580070956986e+00 0.0000000000000000e+00  3.9164694657275088e+00 7.2194914698415831e+00 0.0000000000000000e+00  3.9321414725180843e+00 7.1623069711832885e+00 0.0000000000000000e+00  3.8807190008244388e+00 7.3164316617776626e+00 0.0000000000000000e+00  3.8771744217794204e+00 7.2745332336552782e+00 0.0000000000000000e+00  3.8562025347440665e+00 7.3748181108271158e+00 0.0000000000000000e+00  3.8911436491087481e+00 7.3182916179433084e+00 0.0000000000000000e+00  3.7857299931826582e+00 7.4575680061519414e+00 0.0000000000000000e+00  3.8196864669129718e+00 7.4871780399160075e+00 0.0000000000000000e+00  3.7572010052272833e+00 7.5150943772025531e+00 0.0000000000000000e+00  3.7749324197457237e+00 7.5647998880000342e+00 0.0000000000000000e+00  3.7610214734515655e+00 7.5856064945721977e+00 0.0000000000000000e+00  3.6608810937416449e+00 7.7156313042906239e+00 0.0000000000000000e+00  3.9314373861822509e+00 7.3108585572916391e+00 0.0000000000000000e+00  4.0022661452049766e+00 7.2398328285410667e+00 0.0000000000000000e+00  4.0012058362326020e+00 7.2018491156853308e+00 0.0000000000000000e+00  3.9248779865829588e+00 7.3445312023557303e+00 0.0000000000000000e+00  3.9311583086029414e+00 7.3334820856475345e+00 0.0000000000000000e+00  3.9363114284253276e+00 7.3363025167361853e+00 0.0000000000000000e+00  3.9418155372540888e+00 7.3148917446005575e+00 0.0000000000000000e+00  3.9330892136799545e+00 7.3616487516421873e+00 0.0000000000000000e+00  3.9494124585950492e+00 7.3095678282345569e+00 0.0000000000000000e+00  3.9327583232690211e+00 7.3590376218426776e+00 0.0000000000000000e+00  3.9334269992934505e+00 7.3443245280978600e+00 0.0000000000000000e+00  3.9291217100621907e+00 7.3571385115529475e+00 0.0000000000000000e+00  3.9648895721761721e+00 7.3050634638367757e+00 0.0000000000000000e+00  3.9504079961032694e+00 7.3484770971977804e+00 0.0000000000000000e+00  3.9138882399871386e+00 7.3456680041750033e+00 0.0000000000000000e+00  3.9783904243305228e+00 7.3250168002914817e+00 0.0000000000000000e+00  3.9534853613766288e+00 7.3216355888494800e+00 0.0000000000000000e+00  3.9342710856655652e+00 7.3389377926543631e+00 0.0000000000000000e+00  3.9327025656194197e+00 7.3612451626139235e+00 0.0000000000000000e+00  3.9828946589195708e+00 7.3685081238232026e+00 0.0000000000000000e+00  3.9262777461814466e+00 7.2503916049913499e+00 0.0000000000000000e+00  3.9972376593656946e+00 7.1849302644539126e+00 0.0000000000000000e+00  3.5322166419897223e+00 8.4352441859136267e+00 0.0000000000000000e+00  7.8380984674978933e+00 1.4739131310605296e+00 0.0000000000000000e+00  9.2769311205536500e+00 1.6311998674313039e-01 0.0000000000000000e+00  9.6716744465526698e+00 -1.8036919486038969e-01 0.0000000000000000e+00  9.2676581776336260e+00 2.2899982310599801e-01 0.0000000000000000e+00  9.6557050245036447e+00 -1.5517172348421457e-01 0.0000000000000000e+00  9.4263309532560537e+00 4.8556860519978873e-02 0.0000000000000000e+00  9.5286038280468226e+00 -3.1882020301782228e-02 0.0000000000000000e+00  9.4812347910731152e+00 2.3868355803888755e-02 0.0000000000000000e+00  9.5051001473066776e+00 -7.9197020556432667e-03 0.0000000000000000e+00  9.5044185012819913e+00 -1.5849306589474511e-02 0.0000000000000000e+00  9.5070746868264351e+00 1.5631113730398962e-02 0.0000000000000000e+00  9.4946976088036674e+00 1.5140346222206251e-02 0.0000000000000000e+00  9.5047208890420567e+00 -6.6348265336365012e-03 0.0000000000000000e+00  9.5120363688072338e+00 1.1360335621342786e-03 0.0000000000000000e+00  9.5070817980528979e+00 1.0717926776378306e-02 0.0000000000000000e+00  9.4970160739087373e+00 3.7033652778539236e-03 0.0000000000000000e+00  9.5167622126806286e+00 -4.6633503984339804e-03 0.0000000000000000e+00  9.5076378991904242e+00 1.1883691243764406e-02 0.0000000000000000e+00  9.5025955618311322e+00 1.9476523333196152e-03 0.0000000000000000e+00  9.5091242966093485e+00 1.8235385229807978e-02 0.0000000000000000e+00  9.5128540992773374e+00 -3.2910548300340565e-03 0.0000000000000000e+00  9.5013118033663382e+00 1.1986651707981509e-02 0.0000000000000000e+00  9.5090294673119224e+00 8.9652975055983519e-03 0.0000000000000000e+00  9.5122024329912165e+00 1.9043349532447511e-02 0.0000000000000000e+00  9.5045389641323563e+00 -1.8870221435363208e-03 0.0000000000000000e+00  9.5069449653971230e+00 1.5553055272656137e-02 0.0000000000000000e+00  9.5122681526710604e+00 -2.9229364662260674e-03 0.0000000000000000e+00  9.5073185740279396e+00 1.0014802688702730e-02 0.0000000000000000e+00  9.5033308047198162e+00 1.1111663067932149e-02 0.0000000000000000e+00  9.5136553170986051e+00 1.6383267375402999e-03 0.0000000000000000e+00  9.5048519986407189e+00 4.4751578350768371e-03 0.0000000000000000e+00  9.5056604761751995e+00 7.3881651333349589e-03 0.0000000000000000e+00  9.5066930244139272e+00 8.2465086349687040e-03 0.0000000000000000e+00  9.5111160866304356e+00 -1.0098761909809011e-03 0.0000000000000000e+00  9.4974752352083591e+00 2.5960342028966958e-02 0.0000000000000000e+00  9.5129744864816672e+00 -3.5613373437228296e-03 0.0000000000000000e+00  9.5023862669712091e+00 2.5234247470884860e-02 0.0000000000000000e+00  9.5070940816233307e+00 1.0042883199162005e-02 0.0000000000000000e+00  9.5017980798824908e+00 9.9990434524050952e-03 0.0000000000000000e+00  9.5137252352976773e+00 3.6105998621777358e-03 0.0000000000000000e+00  9.4963704360926311e+00 -4.9576600011161064e-03 0.0000000000000000e+00  9.5138085895774882e+00 2.7768883259376553e-02 0.0000000000000000e+00  9.5014047652424178e+00 -6.5399574422293924e-02 0.0000000000000000e+00  9.5100015459038634e+00 1.7452946780789798e-02 0.0000000000000000e+00  9.5018543743600290e+00 -5.3752554844114585e-02 0.0000000000000000e+00  9.5129843240335834e+00 -1.8472604985971347e-01 0.0000000000000000e+00  9.5109115277021630e+00 0.0000000000000000e+00 -6.4139601937608925e-02  9.4997624811494603e+00 0.0000000000000000e+00 -3.2114278384339077e-02  9.5102660380380595e+00 0.0000000000000000e+00 -3.1208011238195207e-02  9.5007811456081921e+00 0.0000000000000000e+00 -1.0244722627242629e-01  9.5096214380304271e+00 0.0000000000000000e+00 3.3754563043972126e-02  9.4985450797395110e+00 0.0000000000000000e+00 6.3402534934971458e-02  9.5094395502196534e+00 0.0000000000000000e+00 -4.0484625372113727e-03  9.4967651171190930e+00 0.0000000000000000e+00 -1.2813942309886983e-01  9.5074572257408168e+00 0.0000000000000000e+00 -9.2918163207967183e-02  9.4973025951946077e+00 0.0000000000000000e+00 1.4557520108964647e-01  9.5048065993444890e+00 0.0000000000000000e+00 -1.9190090585274471e-02  9.4913576737380314e+00 0.0000000000000000e+00 -1.6295686620712228e-02  9.5072352137006941e+00 0.0000000000000000e+00 -4.4718110964902635e-02  9.4919275765497062e+00 0.0000000000000000e+00 -3.9323306960500792e-02  9.4974361476066260e+00 0.0000000000000000e+00 -8.9479975196911823e-02  9.4925486257375820e+00 0.0000000000000000e+00 -1.9588616756140781e-01  9.5000456739082075e+00 0.0000000000000000e+00 -1.0347623924368571e-01  9.4877309762295994e+00 0.0000000000000000e+00 -2.7218052027467166e-01  9.4990834179965571e+00 0.0000000000000000e+00 4.8054243604260583e-02  9.4920731303316792e+00 0.0000000000000000e+00 5.5780189085942289e-02  9.4963678168804808e+00 0.0000000000000000e+00 -8.5965639519813508e-02  9.4907957888469312e+00 0.0000000000000000e+00 -2.3412111100836766e-01  9.4963478375764030e+00 0.0000000000000000e+00 -3.4928545109426910e-02  9.4942344890834729e+00 0.0000000000000000e+00 1.9407951232494955e-01  9.4933124612520245e+00 0.0000000000000000e+00 -1.1047817910706763e-02  9.4934075918950178e+00 0.0000000000000000e+00 4.3334108638916256e-02  9.4992261079473650e+00 0.0000000000000000e+00 -2.1300439317967122e-02  9.4920557274107473e+00 0.0000000000000000e+00 -1.3620827260285945e-01  9.4958905640556246e+00 0.0000000000000000e+00 -1.1455399185951959e-01  9.5009673219793225e+00 0.0000000000000000e+00 7.6700892745250979e-02  9.4929405488778187e+00 0.0000000000000000e+00 -5.4555575439917833e-02  9.4970891620552571e+00 0.0000000000000000e+00 -1.6697947089207726e-01  9.5022987072296701e+00 0.0000000000000000e+00 -4.0519250393173854e-02  9.4958167971067233e+00 0.0000000000000000e+00 -1.2962559132031828e-01  9.4963256197823860e+00 0.0000000000000000e+00 -1.2199314492211835e-01  9.5036229132746364e+00 0.0000000000000000e+00 -1.3304028946259205e-01  9.4957643376745935e+00 0.0000000000000000e+00 -1.4882158095382875e-01  9.4965817823334504e+00 0.0000000000000000e+00 -2.0136738252594810e-01  9.5025397911860505e+00 0.0000000000000000e+00 -2.3386489939450491e-03  9.5014772576094373e+00 -3.6640867957566603e-01 0.0000000000000000e+00  9.4903709311811966e+00 -4.9920088057828560e-01 0.0000000000000000e+00  9.4935144913215925e+00 -2.7933274602389441e-01 0.0000000000000000e+00  9.5062812501816154e+00 4.3275215106904553e-02 0.0000000000000000e+00  9.5111537262743315e+00 -5.9588898884396592e-02 0.0000000000000000e+00  9.4833315098235111e+00 -7.5058751131386836e-01 0.0000000000000000e+00  9.4945083211667534e+00 -3.1153343380293225e-01 0.0000000000000000e+00  9.5034947460378483e+00 -4.5820988002534674e-01 0.0000000000000000e+00  9.4911507687157215e+00 -5.6033341720826724e-01 0.0000000000000000e+00  9.4925705876058029e+00 -3.7971585831629878e-01 0.0000000000000000e+00  9.5007542250398842e+00 -2.4376245419700573e-01 0.0000000000000000e+00  9.5020246681169827e+00 -5.7224720951037290e-02 0.0000000000000000e+00  9.5025589669998354e+00 -6.7473246428148351e-02 0.0000000000000000e+00  9.4993793204690640e+00 1.6317299239935584e-01 0.0000000000000000e+00  9.5017184593015660e+00 7.7823140705189017e-02 0.0000000000000000e+00  9.4972652008764289e+00 1.5985758184186113e-01 0.0000000000000000e+00  9.5023047943735275e+00 8.7650532531448277e-02 0.0000000000000000e+00  9.4969794931212448e+00 1.0316183394396087e-02 0.0000000000000000e+00  9.5040519264017540e+00 -6.4779078148888516e-02 0.0000000000000000e+00  9.4996719122792150e+00 1.1391759121658700e-01 0.0000000000000000e+00  9.4940316824381625e+00 -8.0134736846012689e-02 0.0000000000000000e+00  9.5089190028619903e+00 -8.7082477002663736e-02 0.0000000000000000e+00  9.4962198264818642e+00 1.1854632651989881e-02 0.0000000000000000e+00  9.5033409059703686e+00 4.7654621005782723e-02 0.0000000000000000e+00  9.4934751699220037e+00 8.7398444775410880e-02 0.0000000000000000e+00  9.5157028085451376e+00 1.1931205766621816e-01 0.0000000000000000e+00  9.4888031161669790e+00 1.3616042060636141e-01 0.0000000000000000e+00  9.5101916731910716e+00 1.2370793901222073e-01 0.0000000000000000e+00  9.4983776105543463e+00 -3.4340079172415328e-02 0.0000000000000000e+00  9.5143177753428532e+00 3.0582177077257484e-02 0.0000000000000000e+00  9.4931565656835257e+00 -8.6873401840814421e-02 0.0000000000000000e+00  9.5293929133740463e+00 3.2754236558865187e-03 0.0000000000000000e+00  9.4745007218768595e+00 1.6767837058183263e-01 0.0000000000000000e+00  9.5303291458779498e+00 1.5401473975662242e-01 0.0000000000000000e+00  9.5079321475103331e+00 -1.7234118147126731e-02 0.0000000000000000e+00  9.4946749461530420e+00 1.1248465558421721e-01 0.0000000000000000e+00  9.5253190073798493e+00 -6.4462925547395980e-02 0.0000000000000000e+00  9.4546040424104909e+00 1.7765535422505566e-01 0.0000000000000000e+00  9.5630567389793217e+00 -1.1600225836477325e-01 0.0000000000000000e+00  9.5287616868431542e+00 5.6413390591370571e-02 0.0000000000000000e+00  9.3821038965582932e+00 2.4541291710025066e-03 0.0000000000000000e+00  9.806411461