<?xml version="1.0"?>
<VTKFile type="UnstructuredGrid"  version="0.1"  >
<UnstructuredGrid>
<Piece  NumberOfPoints="9509" NumberOfCells="18536">
<Points>
<DataArray  type="Float64"  NumberOfComponents="3"  format="ascii">-5 -1 0  5 -1 0  5 1 0  -5 1 0  -4.949999999999965 -1 0  -4.899999999999877 -1 0  -4.849999999999826 -1 0  -4.799999999999754 -1 0  -4.749999999999695 -1 0  -4.69999999999963 -1 0  -4.649999999999565 -1 0  -4.599999999999507 -1 0  -4.549999999999454 -1 0  -4.499999999999384 -1 0  -4.449999999999317 -1 0  -4.399999999999261 -1 0  -4.349999999999206 -1 0  -4.299999999999137 -1 0  -4.249999999999075 -1 0  -4.199999999999013 -1 0  -4.149999999998934 -1 0  -4.09999999999889 -1 0  -4.049999999998847 -1 0  -3.999999999998767 -1 0  -3.949999999998706 -1 0  -3.899999999998644 -1 0  -3.849999999998594 -1 0  -3.799999999998552 -1 0  -3.749999999998549 -1 0  -3.699999999998651 -1 0  -3.649999999998804 -1 0  -3.59999999999894 -1 0  -3.549999999999097 -1 0  -3.499999999999261 -1 0  -3.449999999999394 -1 0  -3.399999999999582 -1 0  -3.349999999999742 -1 0  -3.299999999999902 -1 0  -3.25000000000006 -1 0  -3.200000000000223 -1 0  -3.150000000000369 -1 0  -3.100000000000544 -1 0  -3.050000000000704 -1 0  -3.000000000000864 -1 0  -2.950000000001029 -1 0  -2.900000000001185 -1 0  -2.850000000001347 -1 0  -2.800000000001506 -1 0  -2.750000000001665 -1 0  -2.700000000001827 -1 0  -2.650000000001979 -1 0  -2.600000000002148 -1 0  -2.550000000002311 -1 0  -2.500000000002468 -1 0  -2.450000000002635 -1 0  -2.400000000002789 -1 0  -2.35000000000295 -1 0  -2.30000000000311 -1 0  -2.250000000003253 -1 0  -2.200000000003431 -1 0  -2.150000000003601 -1 0  -2.100000000003752 -1 0  -2.050000000003922 -1 0  -2.000000000004072 -1 0  -1.950000000004237 -1 0  -1.900000000004393 -1 0  -1.850000000004541 -1 0  -1.800000000004714 -1 0  -1.750000000004886 -1 0  -1.700000000005035 -1 0  -1.650000000005206 -1 0  -1.600000000005355 -1 0  -1.550000000005516 -1 0  -1.500000000005676 -1 0  -1.450000000005824 -1 0  -1.400000000005996 -1 0  -1.350000000006146 -1 0  -1.300000000006318 -1 0  -1.250000000006505 -1 0  -1.200000000006638 -1 0  -1.150000000006797 -1 0  -1.100000000006959 -1 0  -1.050000000007106 -1 0  -1.000000000007245 -1 0  -0.9500000000072193 -1 0  -0.9000000000072612 -1 0  -0.8500000000071966 -1 0  -0.8000000000071381 -1 0  -0.750000000007085 -1 0  -0.700000000007015 -1 0  -0.6500000000069521 -1 0  -0.6000000000068919 -1 0  -0.5500000000068104 -1 0  -0.5000000000067688 -1 0  -0.4500000000067104 -1 0  -0.4000000000066457 -1 0  -0.3500000000065757 -1 0  -0.3000000000065226 -1 0  -0.2500000000064961 -1 0  -0.2000000000063995 -1 0  -0.1500000000063775 -1 0  -0.1000000000062764 -1 0  -0.0500000000062597 -1 0  -6.153300091682468e-12 -1 0  0.04999999999390781 -1 0  0.09999999999396891 -1 0  0.14999999999403 -1 0  0.1999999999940929 -1 0  0.2499999999941318 -1 0  0.299999999994216 -1 0  0.349999999994254 -1 0  0.3999999999943391 -1 0  0.4499999999944038 -1 0  0.4999999999944613 -1 0  0.5499999999945429 -1 0  0.5999999999945853 -1 0  0.6499999999946606 -1 0  0.6999999999947084 -1 0  0.7499999999947651 -1 0  0.7999999999948315 -1 0  0.8499999999948926 -1 0  0.8999999999949537 -1 0  0.9499999999950148 -1 0  0.9999999999950768 -1 0  1.049999999995139 -1 0  1.0999999999952 -1 0  1.149999999995266 -1 0  1.199999999995324 -1 0  1.249999999995385 -1 0  1.299999999995446 -1 0  1.349999999995488 -1 0  1.399999999995569 -1 0  1.449999999995604 -1 0  1.499999999995692 -1 0  1.549999999995753 -1 0  1.599999999995816 -1 0  1.649999999995892 -1 0  1.699999999995939 -1 0  1.749999999996017 -1 0  1.799999999996063 -1 0  1.849999999996111 -1 0  1.899999999996185 -1 0  1.949999999996246 -1 0  1.999999999996308 -1 0  2.049999999996351 -1 0  2.099999999996431 -1 0  2.149999999996504 -1 0  2.199999999996555 -1 0  2.249999999996616 -1 0  2.299999999996677 -1 0  2.349999999996736 -1 0  2.3999999999968 -1 0  2.449999999996847 -1 0  2.499999999996923 -1 0  2.549999999997 -1 0  2.599999999997047 -1 0  2.649999999997093 -1 0  2.69999999999717 -1 0  2.749999999997245 -1 0  2.799999999997293 -1 0  2.849999999997344 -1 0  2.899999999997416 -1 0  2.949999999997469 -1 0  2.999999999997539 -1 0  3.049999999997576 -1 0  3.099999999997662 -1 0  3.149999999997725 -1 0  3.199999999997784 -1 0  3.249999999997829 -1 0  3.299999999997908 -1 0  3.349999999997921 -1 0  3.39999999999803 -1 0  3.4499999999981 -1 0  3.499999999998153 -1 0  3.549999999998214 -1 0  3.599999999998277 -1 0  3.649999999998409 -1 0  3.699999999998401 -1 0  3.749999999998444 -1 0  3.799999999998523 -1 0  3.849999999998602 -1 0  3.899999999998645 -1 0  3.949999999998658 -1 0  3.999999999998769 -1 0  4.049999999998814 -1 0  4.099999999998893 -1 0  4.149999999998883 -1 0  4.199999999999015 -1 0  4.249999999999064 -1 0  4.299999999999137 -1 0  4.349999999999152 -1 0  4.399999999999261 -1 0  4.44999999999933 -1 0  4.499999999999385 -1 0  4.549999999999446 -1 0  4.599999999999508 -1 0  4.649999999999633 -1 0  4.699999999999632 -1 0  4.749999999999723 -1 0  4.799999999999754 -1 0  4.849999999999801 -1 0  4.899999999999876 -1 0  4.949999999999925 -1 0  5 -0.950000000000111 0  5 -0.9000000000002774 0  5 -0.8500000000004283 0  5 -0.8000000000005548 0  5 -0.7500000000006787 0  5 -0.7000000000008322 0  5 -0.6500000000009709 0  5 -0.6000000000011096 0  5 -0.5500000000012484 0  5 -0.500000000001387 0  5 -0.4500000000015256 0  5 -0.4000000000016644 0  5 -0.3500000000018031 0  5 -0.3000000000019418 0  5 -0.2500000000020806 0  5 -0.2000000000022192 0  5 -0.1500000000023578 0  5 -0.1000000000024964 0  5 -0.05000000000262439 0  5 -2.752242878045763e-12 0  5 0.0499999999973757 0  5 0.09999999999750342 0  5 0.1499999999976422 0  5 0.1999999999977808 0  5 0.2499999999979194 0  5 0.2999999999980583 0  5 0.3499999999981969 0  5 0.3999999999983355 0  5 0.4499999999984743 0  5 0.4999999999986129 0  5 0.5499999999987515 0  5 0.5999999999988903 0  5 0.6499999999990291 0  5 0.699999999999168 0  5 0.7499999999993068 0  5 0.7999999999994454 0  5 0.849999999999584 0  5 0.8999999999997226 0  5 0.9499999999998612 0  4.949999999999965 1 0  4.899999999999877 1 0  4.849999999999826 1 0  4.799999999999754 1 0  4.749999999999695 1 0  4.69999999999963 1 0  4.649999999999565 1 0  4.599999999999507 1 0  4.549999999999454 1 0  4.499999999999384 1 0  4.449999999999317 1 0  4.399999999999261 1 0  4.349999999999206 1 0  4.299999999999137 1 0  4.249999999999075 1 0  4.199999999999013 1 0  4.149999999998934 1 0  4.09999999999889 1 0  4.049999999998847 1 0  3.999999999998767 1 0  3.949999999998706 1 0  3.899999999998644 1 0  3.849999999998594 1 0  3.799999999998552 1 0  3.749999999998549 1 0  3.699999999998651 1 0  3.649999999998804 1 0  3.59999999999894 1 0  3.549999999999097 1 0  3.499999999999261 1 0  3.449999999999394 1 0  3.399999999999582 1 0  3.349999999999742 1 0  3.299999999999902 1 0  3.25000000000006 1 0  3.200000000000223 1 0  3.150000000000369 1 0  3.100000000000544 1 0  3.050000000000704 1 0  3.000000000000864 1 0  2.950000000001029 1 0  2.900000000001185 1 0  2.850000000001347 1 0  2.800000000001506 1 0  2.750000000001665 1 0  2.700000000001827 1 0  2.650000000001979 1 0  2.600000000002148 1 0  2.550000000002311 1 0  2.500000000002468 1 0  2.450000000002635 1 0  2.400000000002789 1 0  2.35000000000295 1 0  2.30000000000311 1 0  2.250000000003253 1 0  2.200000000003431 1 0  2.150000000003601 1 0  2.100000000003752 1 0  2.050000000003922 1 0  2.000000000004072 1 0  1.950000000004237 1 0  1.900000000004393 1 0  1.850000000004541 1 0  1.800000000004714 1 0  1.750000000004886 1 0  1.700000000005035 1 0  1.650000000005206 1 0  1.600000000005355 1 0  1.550000000005516 1 0  1.500000000005676 1 0  1.450000000005824 1 0  1.400000000005996 1 0  1.350000000006146 1 0  1.300000000006318 1 0  1.250000000006505 1 0  1.200000000006638 1 0  1.150000000006797 1 0  1.100000000006959 1 0  1.050000000007106 1 0  1.000000000007245 1 0  0.9500000000072193 1 0  0.9000000000072612 1 0  0.8500000000071966 1 0  0.8000000000071381 1 0  0.750000000007085 1 0  0.700000000007015 1 0  0.6500000000069521 1 0  0.6000000000068919 1 0  0.5500000000068104 1 0  0.5000000000067688 1 0  0.4500000000067104 1 0  0.4000000000066457 1 0  0.3500000000065757 1 0  0.3000000000065226 1 0  0.2500000000064961 1 0  0.2000000000063995 1 0  0.1500000000063775 1 0  0.1000000000062764 1 0  0.0500000000062597 1 0  6.153300091682468e-12 1 0  -0.04999999999390781 1 0  -0.09999999999396891 1 0  -0.14999999999403 1 0  -0.1999999999940929 1 0  -0.2499999999941318 1 0  -0.299999999994216 1 0  -0.349999999994254 1 0  -0.3999999999943391 1 0  -0.4499999999944038 1 0  -0.4999999999944613 1 0  -0.5499999999945429 1 0  -0.5999999999945853 1 0  -0.6499999999946606 1 0  -0.6999999999947084 1 0  -0.7499999999947651 1 0  -0.7999999999948315 1 0  -0.8499999999948926 1 0  -0.8999999999949537 1 0  -0.9499999999950148 1 0  -0.9999999999950768 1 0  -1.049999999995139 1 0  -1.0999999999952 1 0  -1.149999999995266 1 0  -1.199999999995324 1 0  -1.249999999995385 1 0  -1.299999999995446 1 0  -1.349999999995488 1 0  -1.399999999995569 1 0  -1.449999999995604 1 0  -1.499999999995692 1 0  -1.549999999995753 1 0  -1.599999999995816 1 0  -1.649999999995892 1 0  -1.699999999995939 1 0  -1.749999999996017 1 0  -1.799999999996063 1 0  -1.849999999996111 1 0  -1.899999999996185 1 0  -1.949999999996246 1 0  -1.999999999996308 1 0  -2.049999999996351 1 0  -2.099999999996431 1 0  -2.149999999996504 1 0  -2.199999999996555 1 0  -2.249999999996616 1 0  -2.299999999996677 1 0  -2.349999999996736 1 0  -2.3999999999968 1 0  -2.449999999996847 1 0  -2.499999999996923 1 0  -2.549999999997 1 0  -2.599999999997047 1 0  -2.649999999997093 1 0  -2.69999999999717 1 0  -2.749999999997245 1 0  -2.799999999997293 1 0  -2.849999999997344 1 0  -2.899999999997416 1 0  -2.949999999997469 1 0  -2.999999999997539 1 0  -3.049999999997576 1 0  -3.099999999997662 1 0  -3.149999999997725 1 0  -3.199999999997784 1 0  -3.249999999997829 1 0  -3.29999
[...]
<PointData  Vectors="(h, u)"> 
<DataArray  type="Float64"  Name="(h, u)"  NumberOfComponents="3" format="ascii">5.1517548959474899e+00 0.0000000000000000e+00 0.0000000000000000e+00  9.4906115532683817e+00 0.0000000000000000e+00 0.0000000000000000e+00  9.5079228474555642e+00 0.0000000000000000e+00 0.0000000000000000e+00  5.1563179788373272e+00 0.0000000000000000e+00 0.0000000000000000e+00  5.1667718406203083e+00 6.4987690231532613e-02 0.0000000000000000e+00  5.1518402231693088e+00 1.5863932619267257e-01 0.0000000000000000e+00  5.1642585728519750e+00 2.1054979617606140e-01 0.0000000000000000e+00  5.1497031889577798e+00 2.6618162741294227e-01 0.0000000000000000e+00  5.1658824939300265e+00 3.6511052893668161e-01 0.0000000000000000e+00  5.1525958814201287e+00 4.4641265013157289e-01 0.0000000000000000e+00  5.1589011618927749e+00 4.8519826026727308e-01 0.0000000000000000e+00  5.1494406432067485e+00 6.0697350781580761e-01 0.0000000000000000e+00  5.1630821725951348e+00 6.4090297628218917e-01 0.0000000000000000e+00  5.1419675626222370e+00 7.0436935428389602e-01 0.0000000000000000e+00  5.1604500968460174e+00 7.9489760228232487e-01 0.0000000000000000e+00  5.1484155224460659e+00 8.8916685322273437e-01 0.0000000000000000e+00  5.1487857188498580e+00 8.5907203649546526e-01 0.0000000000000000e+00  5.1456198022479613e+00 1.0965502604987161e+00 0.0000000000000000e+00  5.1563660005785001e+00 1.0129121294252272e+00 0.0000000000000000e+00  5.1325423003339630e+00 1.1626482641159228e+00 0.0000000000000000e+00  5.1510161711101672e+00 1.2203791395499237e+00 0.0000000000000000e+00  5.1438533807920166e+00 1.3239607928586918e+00 0.0000000000000000e+00  5.1342435205937136e+00 1.2855510855007488e+00 0.0000000000000000e+00  5.1380674657969436e+00 1.4792836311278736e+00 0.0000000000000000e+00  5.1469017591046491e+00 1.5387922407075880e+00 0.0000000000000000e+00  5.1197813043718545e+00 1.4679922234363321e+00 0.0000000000000000e+00  5.1395169577447080e+00 1.7178174793984105e+00 0.0000000000000000e+00  5.1344298366062322e+00 1.7267342575441420e+00 0.0000000000000000e+00  5.1189492304062316e+00 1.7036207702294994e+00 0.0000000000000000e+00  5.1267702157860127e+00 1.9341786033759001e+00 0.0000000000000000e+00  5.1330251465197136e+00 1.8892581562253397e+00 0.0000000000000000e+00  5.1069444981159888e+00 1.9824730223068454e+00 0.0000000000000000e+00  5.1219396325591049e+00 2.1169699777753479e+00 0.0000000000000000e+00  5.1233667114765300e+00 2.0826501588869193e+00 0.0000000000000000e+00  5.0994075686380276e+00 2.2223918478351097e+00 0.0000000000000000e+00  5.1122137109648831e+00 2.3110305221577865e+00 0.0000000000000000e+00  5.1140182052607708e+00 2.3016098774258844e+00 0.0000000000000000e+00  5.0910506596425460e+00 2.4293650352919931e+00 0.0000000000000000e+00  5.0995602820246804e+00 2.5155073884218702e+00 0.0000000000000000e+00  5.1063186164886378e+00 2.5287092443069188e+00 0.0000000000000000e+00  5.0775115604154593e+00 2.6394467761497076e+00 0.0000000000000000e+00  5.0914628688874428e+00 2.7063153731351792e+00 0.0000000000000000e+00  5.0896956105635276e+00 2.7700632896597268e+00 0.0000000000000000e+00  5.0727558201777709e+00 2.8339776683658973e+00 0.0000000000000000e+00  5.0712341053007330e+00 2.9053622415382510e+00 0.0000000000000000e+00  5.0839397599612779e+00 3.0093448545737798e+00 0.0000000000000000e+00  5.0542373713690649e+00 3.0135400825967120e+00 0.0000000000000000e+00  5.0631587747816935e+00 3.1313178806585857e+00 0.0000000000000000e+00  5.0627559851648849e+00 3.2124704576605261e+00 0.0000000000000000e+00  5.0493999001253327e+00 3.2192113976852847e+00 0.0000000000000000e+00  5.0386794128053642e+00 3.3471153404544105e+00 0.0000000000000000e+00  5.0558060199019907e+00 3.4036771241612644e+00 0.0000000000000000e+00  5.0286824210175958e+00 3.4467432776115365e+00 0.0000000000000000e+00  5.0274962910460674e+00 3.5258524348075242e+00 0.0000000000000000e+00  5.0332803405194673e+00 3.6342383114477634e+00 0.0000000000000000e+00  5.0201831280911735e+00 3.6325653747688040e+00 0.0000000000000000e+00  5.0019361240807463e+00 3.7388676015735083e+00 0.0000000000000000e+00  5.0203738226925569e+00 3.8406279228263065e+00 0.0000000000000000e+00  4.9991930957741531e+00 3.8218251165853467e+00 0.0000000000000000e+00  4.9857861944600641e+00 3.9636342775371531e+00 0.0000000000000000e+00  4.9959212813392044e+00 4.0193483343034835e+00 0.0000000000000000e+00  4.9843964535170810e+00 4.0414012914669977e+00 0.0000000000000000e+00  4.9623739277740393e+00 4.1556925077221027e+00 0.0000000000000000e+00  4.9763297980125056e+00 4.2169362626330624e+00 0.0000000000000000e+00  4.9601261907545187e+00 4.2466855659785461e+00 0.0000000000000000e+00  4.9440408309361086e+00 4.3537441983592799e+00 0.0000000000000000e+00  4.9493315338238357e+00 4.4017396082988913e+00 0.0000000000000000e+00  4.9347367865130796e+00 4.4679262589789541e+00 0.0000000000000000e+00  4.9217439205503242e+00 4.5253569491933314e+00 0.0000000000000000e+00  4.9213989465337145e+00 4.6114710921902367e+00 0.0000000000000000e+00  4.9035320540246365e+00 4.6588773249218898e+00 0.0000000000000000e+00  4.8997906802432976e+00 4.7188137408409352e+00 0.0000000000000000e+00  4.8960930778767207e+00 4.7858878399133093e+00 0.0000000000000000e+00  4.8640796758947822e+00 4.8748679763066800e+00 0.0000000000000000e+00  4.8809016733409445e+00 4.8844337016291659e+00 0.0000000000000000e+00  4.8634258119672715e+00 4.9747731039180501e+00 0.0000000000000000e+00  4.8363227190271516e+00 5.0632455829049050e+00 0.0000000000000000e+00  4.8435032568484786e+00 5.0665709280916351e+00 0.0000000000000000e+00  4.8457088977869187e+00 5.1416325789071786e+00 0.0000000000000000e+00  4.7985127758360022e+00 5.2563607810609776e+00 0.0000000000000000e+00  4.8089349253726885e+00 5.2300823273072368e+00 0.0000000000000000e+00  4.8024280193066620e+00 5.3548690876071676e+00 0.0000000000000000e+00  4.7824508902600114e+00 5.3794544766900447e+00 0.0000000000000000e+00  4.7511749174041675e+00 5.4529425749736493e+00 0.0000000000000000e+00  4.7549435256609129e+00 5.5269508645982679e+00 0.0000000000000000e+00  4.7559026807370079e+00 5.5429867923936698e+00 0.0000000000000000e+00  4.7016850032408479e+00 5.6199418355079134e+00 0.0000000000000000e+00  4.7059704082404759e+00 5.7246720554832153e+00 0.0000000000000000e+00  4.6958379234710010e+00 5.7090753743811140e+00 0.0000000000000000e+00  4.6737298584617371e+00 5.7840420892449647e+00 0.0000000000000000e+00  4.6481979306027013e+00 5.8860655876932988e+00 0.0000000000000000e+00  4.6420151606409403e+00 5.8963163326903372e+00 0.0000000000000000e+00  4.6013215940441539e+00 5.9535727972443127e+00 0.0000000000000000e+00  4.6229477570063828e+00 6.0494538898147683e+00 0.0000000000000000e+00  4.5567558824692371e+00 6.0362130936192546e+00 0.0000000000000000e+00  4.5754354392593140e+00 6.1515710157250263e+00 0.0000000000000000e+00  4.5516598357698372e+00 6.1377967340063169e+00 0.0000000000000000e+00  4.5524386469337683e+00 6.1928992479477758e+00 0.0000000000000000e+00  4.4641442906886226e+00 6.3181017239208064e+00 0.0000000000000000e+00  4.5275653228623440e+00 6.2857209106752787e+00 0.0000000000000000e+00  4.4470171332107995e+00 6.3685817818348687e+00 0.0000000000000000e+00  4.4304880942571874e+00 6.4696568344576786e+00 0.0000000000000000e+00  4.4378336555365934e+00 6.4162880733271930e+00 0.0000000000000000e+00  4.4322927634716098e+00 6.5064856421035753e+00 0.0000000000000000e+00  4.3125122474606474e+00 6.6213580499807057e+00 0.0000000000000000e+00  4.3624481815631766e+00 6.6290552402200644e+00 0.0000000000000000e+00  4.3197430080335737e+00 6.6723876593888036e+00 0.0000000000000000e+00  4.2981327870364607e+00 6.7082059508560938e+00 0.0000000000000000e+00  4.2868355294372913e+00 6.7618709067492011e+00 0.0000000000000000e+00  4.2905852935331978e+00 6.7640371265637631e+00 0.0000000000000000e+00  4.2605119169416517e+00 6.7862834593561692e+00 0.0000000000000000e+00  4.2007722232410600e+00 6.9440523261535265e+00 0.0000000000000000e+00  4.1968403229793774e+00 6.8975758821464304e+00 0.0000000000000000e+00  4.1641976992824494e+00 6.9858975058976505e+00 0.0000000000000000e+00  4.2166473062109713e+00 6.9182029505741562e+00 0.0000000000000000e+00  4.0919444308880992e+00 7.0963354198053166e+00 0.0000000000000000e+00  4.0950053421803707e+00 7.0829179378839493e+00 0.0000000000000000e+00  4.0353750078069481e+00 7.2256166792657730e+00 0.0000000000000000e+00  4.0767497560006385e+00 7.0957301406527638e+00 0.0000000000000000e+00  4.0733221142374338e+00 7.1770658843155521e+00 0.0000000000000000e+00  4.0137899590243924e+00 7.2296827665033927e+00 0.0000000000000000e+00  3.9826229429240594e+00 7.3042610904931635e+00 0.0000000000000000e+00  3.9346521004154993e+00 7.3394212752919250e+00 0.0000000000000000e+00  3.9347676271407597e+00 7.3913223024904209e+00 0.0000000000000000e+00  3.8879313582756803e+00 7.4484298969619989e+00 0.0000000000000000e+00  3.9233817419581318e+00 7.3464906955617630e+00 0.0000000000000000e+00  3.8294353149504565e+00 7.6069498350451203e+00 0.0000000000000000e+00  3.8415152072524807e+00 7.4453032611629517e+00 0.0000000000000000e+00  3.7645640371137050e+00 7.6945894014627960e+00 0.0000000000000000e+00  3.8300463104559466e+00 7.5509918337000572e+00 0.0000000000000000e+00  3.7665236092222538e+00 7.6478721151156268e+00 0.0000000000000000e+00  3.7078651196567436e+00 7.7012929248760011e+00 0.0000000000000000e+00  3.9546243940075718e+00 7.3738515629711818e+00 0.0000000000000000e+00  3.9757685350071994e+00 7.2920370050279004e+00 0.0000000000000000e+00  4.0208913780813207e+00 7.2556274267049288e+00 0.0000000000000000e+00  4.0139090246865763e+00 7.2590677970708111e+00 0.0000000000000000e+00  4.0018399000279086e+00 7.2875908576873254e+00 0.0000000000000000e+00  3.9286812000685720e+00 7.3630947987178761e+00 0.0000000000000000e+00  3.9228354529008271e+00 7.4043854394219517e+00 0.0000000000000000e+00  4.0056502084751955e+00 7.2856476820056608e+00 0.0000000000000000e+00  3.9650547876248701e+00 7.2978431899055982e+00 0.0000000000000000e+00  3.9150182590605267e+00 7.4413982624344781e+00 0.0000000000000000e+00  3.9822027385510110e+00 7.2652512144654313e+00 0.0000000000000000e+00  3.9544208597628971e+00 7.3783011012195212e+00 0.0000000000000000e+00  3.9427160493121414e+00 7.3350118031170943e+00 0.0000000000000000e+00  3.9774118226548096e+00 7.3369814674673375e+00 0.0000000000000000e+00  3.9436275508925993e+00 7.3284405078517052e+00 0.0000000000000000e+00  3.9970622045955646e+00 7.3145018767683965e+00 0.0000000000000000e+00  3.9360081933893660e+00 7.3467978984561100e+00 0.0000000000000000e+00  3.9668982070899026e+00 7.3277312350728714e+00 0.0000000000000000e+00  3.9563786288579599e+00 7.3416861397062858e+00 0.0000000000000000e+00  3.9397944474220163e+00 7.3592194391549253e+00 0.0000000000000000e+00  3.9466162113101229e+00 7.3427572039065208e+00 0.0000000000000000e+00  3.9690428319286495e+00 7.3274727882665731e+00 0.0000000000000000e+00  3.9528519893315193e+00 7.3372558754697019e+00 0.0000000000000000e+00  3.9595862324605111e+00 7.3305384047501736e+00 0.0000000000000000e+00  3.9657171323782596e+00 7.3371253562137602e+00 0.0000000000000000e+00  3.9647952277051042e+00 7.3141118798530611e+00 0.0000000000000000e+00  3.9441561784845804e+00 7.3539720765915426e+00 0.0000000000000000e+00  3.9477282564787659e+00 7.3610358005480494e+00 0.0000000000000000e+00  3.9841058820735578e+00 7.3010069832705122e+00 0.0000000000000000e+00  3.9488687131548112e+00 7.3020781517806359e+00 0.0000000000000000e+00  3.9543740298623460e+00 7.4103175566587067e+00 0.0000000000000000e+00  3.9591671620625486e+00 7.3675697251017240e+00 0.0000000000000000e+00  4.0643542730531239e+00 6.8745597596158561e+00 0.0000000000000000e+00  3.4063760426414742e+00 8.4872936421729914e+00 0.0000000000000000e+00  9.3100093678507054e+00 1.7744494697554761e-01 0.0000000000000000e+00  8.8708390464094879e+00 6.0909683637497536e-01 0.0000000000000000e+00  9.8027674876092448e+00 -3.0087319319064826e-01 0.0000000000000000e+00  9.2530183664313501e+00 2.3389309790374757e-01 0.0000000000000000e+00  9.5761059072919341e+00 -8.5128274858946057e-02 0.0000000000000000e+00  9.4384412954554229e+00 6.2106373523703753e-02 0.0000000000000000e+00  9.4739671132355774e+00 1.1782706000851049e-02 0.0000000000000000e+00  9.4765363494058388e+00 6.4235454532209305e-03 0.0000000000000000e+00  9.4724737680407518e+00 3.3874989134867112e-02 0.0000000000000000e+00  9.4827741185630643e+00 -5.8201338604296272e-04 0.0000000000000000e+00  9.4741891921977022e+00 3.2442857891735732e-02 0.0000000000000000e+00  9.4813946417228827e+00 1.2301964717489601e-02 0.0000000000000000e+00  9.4820515743960048e+00 1.2653472689158864e-02 0.0000000000000000e+00  9.4816439018791865e+00 2.0005033426901228e-02 0.0000000000000000e+00  9.4865186049386878e+00 3.1622576637963438e-02 0.0000000000000000e+00  9.4856489070465546e+00 2.7542946509788299e-03 0.0000000000000000e+00  9.4858847856769728e+00 2.2653853813423986e-02 0.0000000000000000e+00  9.4881822198900458e+00 1.1912276043296791e-02 0.0000000000000000e+00  9.4875657909549300e+00 1.2540085788596726e-02 0.0000000000000000e+00  9.4881735238935860e+00 1.8000073617014039e-02 0.0000000000000000e+00  9.4833981038818180e+00 1.3106604461547228e-02 0.0000000000000000e+00  9.4892091873913156e+00 8.4032785180235617e-03 0.0000000000000000e+00  9.4838406639998656e+00 1.0300312168853108e-02 0.0000000000000000e+00  9.4846867744687167e+00 1.7530492266300757e-02 0.0000000000000000e+00  9.4851030569920738e+00 1.9588653202715612e-03 0.0000000000000000e+00  9.4862854911135006e+00 2.7719859455300651e-02 0.0000000000000000e+00  9.4823106670156445e+00 2.3793497738103793e-03 0.0000000000000000e+00  9.4893566373276954e+00 2.6593581843785137e-02 0.0000000000000000e+00  9.4842163107202069e+00 9.7516781316390536e-03 0.0000000000000000e+00  9.4876331796268012e+00 1.3620500300342238e-02 0.0000000000000000e+00  9.4888798322383199e+00 2.2598489385325729e-03 0.0000000000000000e+00  9.4875104016434282e+00 -7.3285519707724451e-03 0.0000000000000000e+00  9.4884976235382439e+00 3.0004898889042390e-02 0.0000000000000000e+00  9.4913202333559461e+00 -6.7114087745529571e-02 0.0000000000000000e+00  9.4849521515653414e+00 1.6022363794531713e-02 0.0000000000000000e+00  9.4931866950725787e+00 -4.4243321638032726e-02 0.0000000000000000e+00  9.4857591573549964e+00 -1.8601331516001435e-01 0.0000000000000000e+00  9.4806103843830769e+00 0.0000000000000000e+00 -7.2516986707135953e-02  9.4901771256864702e+00 0.0000000000000000e+00 -3.0927745190021005e-02  9.4822709522690705e+00 0.0000000000000000e+00 -3.9116833267335838e-02  9.4951989149008362e+00 0.0000000000000000e+00 -1.0506500587458870e-01  9.4811153546593854e+00 0.0000000000000000e+00 2.0587790118074448e-02  9.4975331229909514e+00 0.0000000000000000e+00 6.5259624914057346e-02  9.4847515380864564e+00 0.0000000000000000e+00 -1.8978494016665303e-02  9.5016605892430874e+00 0.0000000000000000e+00 -1.2471300178679968e-01  9.4877776004704817e+00 0.0000000000000000e+00 -1.0836020494224803e-01  9.4975941751443251e+00 0.0000000000000000e+00 1.4295965798336685e-01  9.4950550472703341e+00 0.0000000000000000e+00 -3.5810979960271126e-02  9.5028525454445987e+00 0.0000000000000000e+00 -4.1867345257406655e-03  9.4947646246233095e+00 0.0000000000000000e+00 -6.4506506946041750e-02  9.5060597709651589e+00 0.0000000000000000e+00 -4.6321834012737352e-02  9.4957758757507218e+00 0.0000000000000000e+00 -8.7817616455330039e-02  9.5026308944385036e+00 0.0000000000000000e+00 -1.7438539353449511e-01  9.5015932963912739e+00 0.0000000000000000e+00 -1.1588578076590234e-01  9.4970969107982786e+00 0.0000000000000000e+00 -2.8827118034797566e-01  9.4961833045610859e+00 0.0000000000000000e+00 5.3398071758290172e-02  9.5054172122019907e+00 0.0000000000000000e+00 7.2029772807179593e-02  9.5015801866842118e+00 0.0000000000000000e+00 -7.5981479050296605e-02  9.4992211497185082e+00 0.0000000000000000e+00 -2.2455564089429098e-01  9.4997061730548484e+00 0.0000000000000000e+00 -3.6912028772596972e-02  9.5081557005306472e+00 0.0000000000000000e+00 2.1705130086718272e-01  9.4995094219382175e+00 0.0000000000000000e+00 9.2100158965910969e-04  9.5066461217365781e+00 0.0000000000000000e+00 5.1484290444348248e-02  9.5024566576669880e+00 0.0000000000000000e+00 -4.7124862533856945e-03  9.5059731113786157e+00 0.0000000000000000e+00 -1.2152548320541952e-01  9.5033391347078062e+00 0.0000000000000000e+00 -1.0585774757030739e-01  9.5134571005588882e+00 0.0000000000000000e+00 6.9973105177048425e-02  9.4985950533686889e+00 0.0000000000000000e+00 -3.1545564181475277e-02  9.5093201667476066e+00 0.0000000000000000e+00 -1.5350267593397779e-01  9.5100606727496846e+00 0.0000000000000000e+00 -3.6834458203546805e-02  9.5058833176485020e+00 0.0000000000000000e+00 -1.2555851201848295e-01  9.5055391719078237e+00 0.0000000000000000e+00 -1.0611307218633101e-01  9.5126004738472147e+00 0.0000000000000000e+00 -1.2932862223425226e-01  9.5044988580913614e+00 0.0000000000000000e+00 -1.4714680741022235e-01  9.5042369089785499e+00 0.0000000000000000e+00 -2.2001524120742386e-01  9.5105887033770156e+00 0.0000000000000000e+00 1.3449487198883104e-02  9.5075095993560872e+00 -3.6986174728219884e-01 0.0000000000000000e+00  9.5022958594577283e+00 -4.1680158736315404e-01 0.0000000000000000e+00  9.5015722472284718e+00 -2.3792605817880544e-01 0.0000000000000000e+00  9.5114714310167390e+00 -1.3526576922002310e-02 0.0000000000000000e+00  9.5177490793601862e+00 -2.6498946725065503e-01 0.0000000000000000e+00  9.4976044989347397e+00 -7.9659124540065451e-01 0.0000000000000000e+00  9.4908886044340512e+00 -3.3147094672276645e-01 0.0000000000000000e+00  9.5199968002369459e+00 -4.9493138413581150e-01 0.0000000000000000e+00  9.4929086008209644e+00 -5.3638667711036703e-01 0.0000000000000000e+00  9.5080549194734640e+00 -3.3306809833034112e-01 0.0000000000000000e+00  9.5056327006733969e+00 -1.9981055176320028e-01 0.0000000000000000e+00  9.5115997812730111e+00 -6.8788513944581769e-02 0.0000000000000000e+00  9.5001121535973709e+00 -5.4496983419219339e-02 0.0000000000000000e+00  9.5157398725825235e+00 1.5447414660095829e-01 0.0000000000000000e+00  9.4981224649940188e+00 7.9987474370152453e-02 0.0000000000000000e+00  9.5083031337779893e+00 1.7138984356711312e-01 0.0000000000000000e+00  9.5100578151294215e+00 7.2252707185654852e-02 0.0000000000000000e+00  9.5054233920905293e+00 2.5560124166311683e-02 0.0000000000000000e+00  9.5059526826907508e+00 -6.0021405288471892e-02 0.0000000000000000e+00  9.5140979394959171e+00 1.0645219997898225e-01 0.0000000000000000e+00  9.5180328626052049e+00 -7.5119511696850300e-02 0.0000000000000000e+00  9.5017429697488431e+00 -8.1910760782485326e-02 0.0000000000000000e+00  9.5297956100105665e+00 -2.2107578190436013e-02 0.0000000000000000e+00  9.4940732195221109e+00 4.8627040502108927e-02 0.0000000000000000e+00  9.5150414652195803e+00 8.6130483660200596e-02 0.0000000000000000e+00  9.5134084219228239e+00 1.1248543611741083e-01 0.0000000000000000e+00  9.4898298633974534e+00 1.2892744151157384e-01 0.0000000000000000e+00  9.5433310692653475e+00 1.6011646049511871e-01 0.0000000000000000e+00  9.4537909486761791e+00 -2.0046983145273027e-02 0.0000000000000000e+00  9.5305474915996822e+00 6.4206787453800138e-02 0.0000000000000000e+00  9.6509974498367903e+00 -2.1270947012224745e-01 0.0000000000000000e+00  9.1625550457523239e+00 2.6530890802955104e-01 0.0000000000000000e+00  1.0103677333438698e+01 -3.3154783688860290e-01 0.0000000000000000e+00  8.8659494533066656e+00 7.5819373215177066e-01 0.0000000000000000e+00  9.8893905766377159e+00 -5.7003714833790831e-01 0.0000000000000000e+00  9.0371431112211784e+00 7.4984180942431666e-01 0.0000000000000000e+00  9.5347227026611865e+00 -1.5231128983885509e-01 0.0000000000000000e+00  3.4613419476140344e+00 8.3805789295513371e+00 0.0000000000000000e+00  4.1798244149590831e+00 6.8503330685302002e+00 0.0000000000000000e+00  3.9659066299509558e+00 7.2272849933715326e+00 0.0000000000000000e+00  4.0633903024006832e+00 7.5405321040568243e+00 0.0000000000000000e+00  4.0073860779246795e+