<?xml version="1.0"?>
<VTKFile type="UnstructuredGrid"  version="0.1"  >
<UnstructuredGrid>
<Piece  NumberOfPoints="9509" NumberOfCells="18536">
<Points>
<DataArray  type="Float64"  NumberOfComponents="3"  format="ascii">-5 -1 0  5 -1 0  5 1 0  -5 1 0  -4.949999999999965 -1 0  -4.899999999999877 -1 0  -4.849999999999826 -1 0  -4.799999999999754 -1 0  -4.749999999999695 -1 0  -4.69999999999963 -1 0  -4.649999999999565 -1 0  -4.599999999999507 -1 0  -4.549999999999454 -1 0  -4.499999999999384 -1 0  -4.449999999999317 -1 0  -4.399999999999261 -1 0  -4.349999999999206 -1 0  -4.299999999999137 -1 0  -4.249999999999075 -1 0  -4.199999999999013 -1 0  -4.149999999998934 -1 0  -4.09999999999889 -1 0  -4.049999999998847 -1 0  -3.999999999998767 -1 0  -3.949999999998706 -1 0  -3.899999999998644 -1 0  -3.849999999998594 -1 0  -3.799999999998552 -1 0  -3.749999999998549 -1 0  -3.699999999998651 -1 0  -3.649999999998804 -1 0  -3.59999999999894 -1 0  -3.549999999999097 -1 0  -3.499999999999261 -1 0  -3.449999999999394 -1 0  -3.399999999999582 -1 0  -3.349999999999742 -1 0  -3.299999999999902 -1 0  -3.25000000000006 -1 0  -3.200000000000223 -1 0  -3.150000000000369 -1 0  -3.100000000000544 -1 0  -3.050000000000704 -1 0  -3.000000000000864 -1 0  -2.950000000001029 -1 0  -2.900000000001185 -1 0  -2.850000000001347 -1 0  -2.800000000001506 -1 0  -2.750000000001665 -1 0  -2.700000000001827 -1 0  -2.650000000001979 -1 0  -2.600000000002148 -1 0  -2.550000000002311 -1 0  -2.500000000002468 -1 0  -2.450000000002635 -1 0  -2.400000000002789 -1 0  -2.35000000000295 -1 0  -2.30000000000311 -1 0  -2.250000000003253 -1 0  -2.200000000003431 -1 0  -2.150000000003601 -1 0  -2.100000000003752 -1 0  -2.050000000003922 -1 0  -2.000000000004072 -1 0  -1.950000000004237 -1 0  -1.900000000004393 -1 0  -1.850000000004541 -1 0  -1.800000000004714 -1 0  -1.750000000004886 -1 0  -1.700000000005035 -1 0  -1.650000000005206 -1 0  -1.600000000005355 -1 0  -1.550000000005516 -1 0  -1.500000000005676 -1 0  -1.450000000005824 -1 0  -1.400000000005996 -1 0  -1.350000000006146 -1 0  -1.300000000006318 -1 0  -1.250000000006505 -1 0  -1.200000000006638 -1 0  -1.150000000006797 -1 0  -1.100000000006959 -1 0  -1.050000000007106 -1 0  -1.000000000007245 -1 0  -0.9500000000072193 -1 0  -0.9000000000072612 -1 0  -0.8500000000071966 -1 0  -0.8000000000071381 -1 0  -0.750000000007085 -1 0  -0.700000000007015 -1 0  -0.6500000000069521 -1 0  -0.6000000000068919 -1 0  -0.5500000000068104 -1 0  -0.5000000000067688 -1 0  -0.4500000000067104 -1 0  -0.4000000000066457 -1 0  -0.3500000000065757 -1 0  -0.3000000000065226 -1 0  -0.2500000000064961 -1 0  -0.2000000000063995 -1 0  -0.1500000000063775 -1 0  -0.1000000000062764 -1 0  -0.0500000000062597 -1 0  -6.153300091682468e-12 -1 0  0.04999999999390781 -1 0  0.09999999999396891 -1 0  0.14999999999403 -1 0  0.1999999999940929 -1 0  0.2499999999941318 -1 0  0.299999999994216 -1 0  0.349999999994254 -1 0  0.3999999999943391 -1 0  0.4499999999944038 -1 0  0.4999999999944613 -1 0  0.5499999999945429 -1 0  0.5999999999945853 -1 0  0.6499999999946606 -1 0  0.6999999999947084 -1 0  0.7499999999947651 -1 0  0.7999999999948315 -1 0  0.8499999999948926 -1 0  0.8999999999949537 -1 0  0.9499999999950148 -1 0  0.9999999999950768 -1 0  1.049999999995139 -1 0  1.0999999999952 -1 0  1.149999999995266 -1 0  1.199999999995324 -1 0  1.249999999995385 -1 0  1.299999999995446 -1 0  1.349999999995488 -1 0  1.399999999995569 -1 0  1.449999999995604 -1 0  1.499999999995692 -1 0  1.549999999995753 -1 0  1.599999999995816 -1 0  1.649999999995892 -1 0  1.699999999995939 -1 0  1.749999999996017 -1 0  1.799999999996063 -1 0  1.849999999996111 -1 0  1.899999999996185 -1 0  1.949999999996246 -1 0  1.999999999996308 -1 0  2.049999999996351 -1 0  2.099999999996431 -1 0  2.149999999996504 -1 0  2.199999999996555 -1 0  2.249999999996616 -1 0  2.299999999996677 -1 0  2.349999999996736 -1 0  2.3999999999968 -1 0  2.449999999996847 -1 0  2.499999999996923 -1 0  2.549999999997 -1 0  2.599999999997047 -1 0  2.649999999997093 -1 0  2.69999999999717 -1 0  2.749999999997245 -1 0  2.799999999997293 -1 0  2.849999999997344 -1 0  2.899999999997416 -1 0  2.949999999997469 -1 0  2.999999999997539 -1 0  3.049999999997576 -1 0  3.099999999997662 -1 0  3.149999999997725 -1 0  3.199999999997784 -1 0  3.249999999997829 -1 0  3.299999999997908 -1 0  3.349999999997921 -1 0  3.39999999999803 -1 0  3.4499999999981 -1 0  3.499999999998153 -1 0  3.549999999998214 -1 0  3.599999999998277 -1 0  3.649999999998409 -1 0  3.699999999998401 -1 0  3.749999999998444 -1 0  3.799999999998523 -1 0  3.849999999998602 -1 0  3.899999999998645 -1 0  3.949999999998658 -1 0  3.999999999998769 -1 0  4.049999999998814 -1 0  4.099999999998893 -1 0  4.149999999998883 -1 0  4.199999999999015 -1 0  4.249999999999064 -1 0  4.299999999999137 -1 0  4.349999999999152 -1 0  4.399999999999261 -1 0  4.44999999999933 -1 0  4.499999999999385 -1 0  4.549999999999446 -1 0  4.599999999999508 -1 0  4.649999999999633 -1 0  4.699999999999632 -1 0  4.749999999999723 -1 0  4.799999999999754 -1 0  4.849999999999801 -1 0  4.899999999999876 -1 0  4.949999999999925 -1 0  5 -0.950000000000111 0  5 -0.9000000000002774 0  5 -0.8500000000004283 0  5 -0.8000000000005548 0  5 -0.7500000000006787 0  5 -0.7000000000008322 0  5 -0.6500000000009709 0  5 -0.6000000000011096 0  5 -0.5500000000012484 0  5 -0.500000000001387 0  5 -0.4500000000015256 0  5 -0.4000000000016644 0  5 -0.3500000000018031 0  5 -0.3000000000019418 0  5 -0.2500000000020806 0  5 -0.2000000000022192 0  5 -0.1500000000023578 0  5 -0.1000000000024964 0  5 -0.05000000000262439 0  5 -2.752242878045763e-12 0  5 0.0499999999973757 0  5 0.09999999999750342 0  5 0.1499999999976422 0  5 0.1999999999977808 0  5 0.2499999999979194 0  5 0.2999999999980583 0  5 0.3499999999981969 0  5 0.3999999999983355 0  5 0.4499999999984743 0  5 0.4999999999986129 0  5 0.5499999999987515 0  5 0.5999999999988903 0  5 0.6499999999990291 0  5 0.699999999999168 0  5 0.7499999999993068 0  5 0.7999999999994454 0  5 0.849999999999584 0  5 0.8999999999997226 0  5 0.9499999999998612 0  4.949999999999965 1 0  4.899999999999877 1 0  4.849999999999826 1 0  4.799999999999754 1 0  4.749999999999695 1 0  4.69999999999963 1 0  4.649999999999565 1 0  4.599999999999507 1 0  4.549999999999454 1 0  4.499999999999384 1 0  4.449999999999317 1 0  4.399999999999261 1 0  4.349999999999206 1 0  4.299999999999137 1 0  4.249999999999075 1 0  4.199999999999013 1 0  4.149999999998934 1 0  4.09999999999889 1 0  4.049999999998847 1 0  3.999999999998767 1 0  3.949999999998706 1 0  3.899999999998644 1 0  3.849999999998594 1 0  3.799999999998552 1 0  3.749999999998549 1 0  3.699999999998651 1 0  3.649999999998804 1 0  3.59999999999894 1 0  3.549999999999097 1 0  3.499999999999261 1 0  3.449999999999394 1 0  3.399999999999582 1 0  3.349999999999742 1 0  3.299999999999902 1 0  3.25000000000006 1 0  3.200000000000223 1 0  3.150000000000369 1 0  3.100000000000544 1 0  3.050000000000704 1 0  3.000000000000864 1 0  2.950000000001029 1 0  2.900000000001185 1 0  2.850000000001347 1 0  2.800000000001506 1 0  2.750000000001665 1 0  2.700000000001827 1 0  2.650000000001979 1 0  2.600000000002148 1 0  2.550000000002311 1 0  2.500000000002468 1 0  2.450000000002635 1 0  2.400000000002789 1 0  2.35000000000295 1 0  2.30000000000311 1 0  2.250000000003253 1 0  2.200000000003431 1 0  2.150000000003601 1 0  2.100000000003752 1 0  2.050000000003922 1 0  2.000000000004072 1 0  1.950000000004237 1 0  1.900000000004393 1 0  1.850000000004541 1 0  1.800000000004714 1 0  1.750000000004886 1 0  1.700000000005035 1 0  1.650000000005206 1 0  1.600000000005355 1 0  1.550000000005516 1 0  1.500000000005676 1 0  1.450000000005824 1 0  1.400000000005996 1 0  1.350000000006146 1 0  1.300000000006318 1 0  1.250000000006505 1 0  1.200000000006638 1 0  1.150000000006797 1 0  1.100000000006959 1 0  1.050000000007106 1 0  1.000000000007245 1 0  0.9500000000072193 1 0  0.9000000000072612 1 0  0.8500000000071966 1 0  0.8000000000071381 1 0  0.750000000007085 1 0  0.700000000007015 1 0  0.6500000000069521 1 0  0.6000000000068919 1 0  0.5500000000068104 1 0  0.5000000000067688 1 0  0.4500000000067104 1 0  0.4000000000066457 1 0  0.3500000000065757 1 0  0.3000000000065226 1 0  0.2500000000064961 1 0  0.2000000000063995 1 0  0.1500000000063775 1 0  0.1000000000062764 1 0  0.0500000000062597 1 0  6.153300091682468e-12 1 0  -0.04999999999390781 1 0  -0.09999999999396891 1 0  -0.14999999999403 1 0  -0.1999999999940929 1 0  -0.2499999999941318 1 0  -0.299999999994216 1 0  -0.349999999994254 1 0  -0.3999999999943391 1 0  -0.4499999999944038 1 0  -0.4999999999944613 1 0  -0.5499999999945429 1 0  -0.5999999999945853 1 0  -0.6499999999946606 1 0  -0.6999999999947084 1 0  -0.7499999999947651 1 0  -0.7999999999948315 1 0  -0.8499999999948926 1 0  -0.8999999999949537 1 0  -0.9499999999950148 1 0  -0.9999999999950768 1 0  -1.049999999995139 1 0  -1.0999999999952 1 0  -1.149999999995266 1 0  -1.199999999995324 1 0  -1.249999999995385 1 0  -1.299999999995446 1 0  -1.349999999995488 1 0  -1.399999999995569 1 0  -1.449999999995604 1 0  -1.499999999995692 1 0  -1.549999999995753 1 0  -1.599999999995816 1 0  -1.649999999995892 1 0  -1.699999999995939 1 0  -1.749999999996017 1 0  -1.799999999996063 1 0  -1.849999999996111 1 0  -1.899999999996185 1 0  -1.949999999996246 1 0  -1.999999999996308 1 0  -2.049999999996351 1 0  -2.099999999996431 1 0  -2.149999999996504 1 0  -2.199999999996555 1 0  -2.249999999996616 1 0  -2.299999999996677 1 0  -2.349999999996736 1 0  -2.3999999999968 1 0  -2.449999999996847 1 0  -2.499999999996923 1 0  -2.549999999997 1 0  -2.599999999997047 1 0  -2.649999999997093 1 0  -2.69999999999717 1 0  -2.749999999997245 1 0  -2.799999999997293 1 0  -2.849999999997344 1 0  -2.899999999997416 1 0  -2.949999999997469 1 0  -2.999999999997539 1 0  -3.049999999997576 1 0  -3.099999999997662 1 0  -3.149999999997725 1 0  -3.199999999997784 1 0  -3.249999999997829 1 0  -3.29999
[...]
<PointData  Vectors="(h, u)"> 
<DataArray  type="Float64"  Name="(h, u)"  NumberOfComponents="3" format="ascii">5.1218749808946686e+00 0.0000000000000000e+00 0.0000000000000000e+00  9.4931009890861535e+00 0.0000000000000000e+00 0.0000000000000000e+00  9.5100543378107325e+00 0.0000000000000000e+00 0.0000000000000000e+00  5.1263616110294832e+00 0.0000000000000000e+00 0.0000000000000000e+00  5.1376544760986604e+00 6.4733549987354713e-02 0.0000000000000000e+00  5.1219965401519030e+00 1.5784061725483542e-01 0.0000000000000000e+00  5.1352074965404046e+00 2.1076370508387737e-01 0.0000000000000000e+00  5.1197852002059792e+00 2.6318694535707982e-01 0.0000000000000000e+00  5.1368740420536625e+00 3.6337299630633230e-01 0.0000000000000000e+00  5.1229960555024316e+00 4.4553554135764373e-01 0.0000000000000000e+00  5.1295725891821640e+00 4.8124669481107318e-01 0.0000000000000000e+00  5.1202906456928829e+00 6.0589118839811318e-01 0.0000000000000000e+00  5.1336691021091418e+00 6.3829476927537365e-01 0.0000000000000000e+00  5.1127189219892299e+00 6.9957377638562457e-01 0.0000000000000000e+00  5.1314851093354221e+00 7.9230586563964811e-01 0.0000000000000000e+00  5.1193106249908178e+00 8.8584067559342206e-01 0.0000000000000000e+00  5.1192204764630658e+00 8.5264033424682439e-01 0.0000000000000000e+00  5.1175357292557848e+00 1.0932122928487882e+00 0.0000000000000000e+00  5.1266299608510817e+00 1.0090510470843257e+00 0.0000000000000000e+00  5.1039968638355049e+00 1.1552548897718109e+00 0.0000000000000000e+00  5.1222260778793594e+00 1.2151797706387100e+00 0.0000000000000000e+00  5.1153810601393790e+00 1.3207132575995486e+00 0.0000000000000000e+00  5.1044781739734102e+00 1.2763558304988369e+00 0.0000000000000000e+00  5.1110818127652964e+00 1.4730125822278244e+00 0.0000000000000000e+00  5.1168170916835676e+00 1.5336297857279031e+00 0.0000000000000000e+00  5.0919333111898144e+00 1.4611809883541065e+00 0.0000000000000000e+00  5.1108863770308828e+00 1.7068107286146592e+00 0.0000000000000000e+00  5.1063797620632112e+00 1.7216352965275084e+00 0.0000000000000000e+00  5.0892204903298994e+00 1.6961098660607756e+00 0.0000000000000000e+00  5.1003757176399160e+00 1.9237301203637616e+00 0.0000000000000000e+00  5.1030493252714511e+00 1.8798261408431836e+00 0.0000000000000000e+00  5.0794389710686314e+00 1.9765148797332881e+00 0.0000000000000000e+00  5.0936373148999019e+00 2.1046335062385730e+00 0.0000000000000000e+00  5.0956451679030073e+00 2.0750787512133875e+00 0.0000000000000000e+00  5.0700550082232283e+00 2.2113139761333178e+00 0.0000000000000000e+00  5.0860322745323350e+00 2.3002506081173295e+00 0.0000000000000000e+00  5.0846340380676249e+00 2.2936989222613033e+00 0.0000000000000000e+00  5.0638055269468047e+00 2.4162239325759360e+00 0.0000000000000000e+00  5.0717263168686824e+00 2.5035274065497499e+00 0.0000000000000000e+00  5.0789462638444096e+00 2.5204848025497317e+00 0.0000000000000000e+00  5.0491001152430739e+00 2.6252785897121984e+00 0.0000000000000000e+00  5.0651507917711278e+00 2.6940888751633332e+00 0.0000000000000000e+00  5.0615757419190706e+00 2.7591998094757582e+00 0.0000000000000000e+00  5.0458528006967738e+00 2.8214191704138938e+00 0.0000000000000000e+00  5.0442104269218229e+00 2.8907975480891075e+00 0.0000000000000000e+00  5.0570057707305596e+00 2.9976998363187213e+00 0.0000000000000000e+00  5.0273319516956585e+00 3.0009954545414965e+00 0.0000000000000000e+00  5.0366435924775272e+00 3.1158024377885232e+00 0.0000000000000000e+00  5.0361697181757128e+00 3.1996485660812679e+00 0.0000000000000000e+00  5.0230031072798393e+00 3.2062371219985142e+00 0.0000000000000000e+00  5.0127567320276079e+00 3.3310961046170191e+00 0.0000000000000000e+00  5.0292249616037958e+00 3.3895938426134764e+00 0.0000000000000000e+00  5.0035241917777293e+00 3.4337990453147924e+00 0.0000000000000000e+00  5.0012102143617794e+00 3.5089309041939591e+00 0.0000000000000000e+00  5.0080492741806015e+00 3.6192279454645093e+00 0.0000000000000000e+00  4.9946773596183869e+00 3.6191548064552368e+00 0.0000000000000000e+00  4.9771836135066279e+00 3.7221507016308406e+00 0.0000000000000000e+00  4.9946165260118880e+00 3.8237415698157728e+00 0.0000000000000000e+00  4.9755866956012236e+00 3.8089098915047601e+00 0.0000000000000000e+00  4.9604375847298599e+00 3.9456327073673783e+00 0.0000000000000000e+00  4.9719567786587548e+00 4.0028313582184323e+00 0.0000000000000000e+00  4.9606014112803125e+00 4.0268262483045163e+00 0.0000000000000000e+00  4.9387890604226650e+00 4.1380858898608412e+00 0.0000000000000000e+00  4.9519466874933951e+00 4.2005428966810312e+00 0.0000000000000000e+00  4.9382299328737487e+00 4.2300604830275681e+00 0.0000000000000000e+00  4.9202343036939213e+00 4.3382944788470539e+00 0.0000000000000000e+00  4.9263181114471903e+00 4.3836645655272681e+00 0.0000000000000000e+00  4.9130740184210335e+00 4.4521333322414574e+00 0.0000000000000000e+00  4.8993178249059870e+00 4.5090792382330864e+00 0.0000000000000000e+00  4.8985700142359638e+00 4.5949577588284658e+00 0.0000000000000000e+00  4.8836357303348432e+00 4.6404822450531631e+00 0.0000000000000000e+00  4.8779870764205642e+00 4.7048424967097233e+00 0.0000000000000000e+00  4.8744210887336274e+00 4.7675553925242840e+00 0.0000000000000000e+00  4.8448009536241630e+00 4.8586508224429883e+00 0.0000000000000000e+00  4.8608649903072418e+00 4.8676860078025896e+00 0.0000000000000000e+00  4.8430355077803382e+00 4.9591358251692865e+00 0.0000000000000000e+00  4.8174287835950249e+00 5.0448145691919564e+00 0.0000000000000000e+00  4.8261247722607425e+00 5.0521106294612563e+00 0.0000000000000000e+00  4.8259668460491607e+00 5.1228842321150152e+00 0.0000000000000000e+00  4.7805931823641332e+00 5.2430735582246424e+00 0.0000000000000000e+00  4.7916528387565558e+00 5.2129454448336459e+00 0.0000000000000000e+00  4.7861383740762653e+00 5.3382821198284125e+00 0.0000000000000000e+00  4.7627629722873186e+00 5.3662644473251468e+00 0.0000000000000000e+00  4.7371290364110408e+00 5.4384674768405370e+00 0.0000000000000000e+00  4.7379023018484840e+00 5.5092458094671564e+00 0.0000000000000000e+00  4.7408884369397084e+00 5.5309377668305952e+00 0.0000000000000000e+00  4.6853982185706480e+00 5.6065295915405864e+00 0.0000000000000000e+00  4.6928372553717956e+00 5.7089888019645239e+00 0.0000000000000000e+00  4.6811601774691232e+00 5.6959938129160141e+00 0.0000000000000000e+00  4.6610396099856528e+00 5.7716014586570363e+00 0.0000000000000000e+00  4.6336042006983051e+00 5.8730514950359325e+00 0.0000000000000000e+00  4.6308748369111665e+00 5.8835029364119711e+00 0.0000000000000000e+00  4.5883973271579981e+00 5.9432788861466479e+00 0.0000000000000000e+00  4.6120386055093263e+00 6.0352583676188862e+00 0.0000000000000000e+00  4.5456788667259840e+00 6.0264849551516324e+00 0.0000000000000000e+00  4.5657794336752957e+00 6.1406187095999991e+00 0.0000000000000000e+00  4.5415776890570312e+00 6.1246708508694772e+00 0.0000000000000000e+00  4.5437962207215534e+00 6.1855615895237959e+00 0.0000000000000000e+00  4.4551528812525651e+00 6.3061008865854804e+00 0.0000000000000000e+00  4.5204178278489531e+00 6.2771890786776128e+00 0.0000000000000000e+00  4.4392448780114249e+00 6.3579553344764976e+00 0.0000000000000000e+00  4.4244929381882070e+00 6.4620091516176092e+00 0.0000000000000000e+00  4.4306989008448054e+00 6.4075476585835629e+00 0.0000000000000000e+00  4.4274050678238446e+00 6.4968936121538841e+00 0.0000000000000000e+00  4.3053505357546946e+00 6.6179365398267160e+00 0.0000000000000000e+00  4.3606977724177209e+00 6.6167104664294811e+00 0.0000000000000000e+00  4.3134744986478797e+00 6.6671378089350908e+00 0.0000000000000000e+00  4.2951253258534932e+00 6.7027327072910978e+00 0.0000000000000000e+00  4.2853264939861342e+00 6.7515280433974105e+00 0.0000000000000000e+00  4.2871920176531999e+00 6.7571556364338319e+00 0.0000000000000000e+00  4.2594601333436675e+00 6.7829524216686448e+00 0.0000000000000000e+00  4.1974019905794249e+00 6.9346975202883439e+00 0.0000000000000000e+00  4.1971785202469221e+00 6.8934574932496382e+00 0.0000000000000000e+00  4.1594497941213273e+00 6.9826461740982095e+00 0.0000000000000000e+00  4.2191953508445792e+00 6.9095431874538233e+00 0.0000000000000000e+00  4.0890014965192236e+00 7.0938383986945057e+00 0.0000000000000000e+00  4.0949487989832898e+00 7.0775969179536578e+00 0.0000000000000000e+00  4.0349840025361008e+00 7.2215458626213236e+00 0.0000000000000000e+00  4.0752616031427120e+00 7.0941140457622236e+00 0.0000000000000000e+00  4.0758906604920657e+00 7.1675398681607803e+00 0.0000000000000000e+00  4.0148480108565776e+00 7.2283055840643184e+00 0.0000000000000000e+00  3.9834805280419214e+00 7.2959054035783151e+00 0.0000000000000000e+00  3.9344663963387676e+00 7.3393758688165800e+00 0.0000000000000000e+00  3.9390286141115372e+00 7.3815589923692650e+00 0.0000000000000000e+00  3.8881413357224006e+00 7.4476028904965021e+00 0.0000000000000000e+00  3.9209792877622567e+00 7.3453399995545743e+00 0.0000000000000000e+00  3.8375444564783896e+00 7.5965522278436683e+00 0.0000000000000000e+00  3.8444590109144974e+00 7.4381725786157009e+00 0.0000000000000000e+00  3.7696958515459289e+00 7.6845824665359652e+00 0.0000000000000000e+00  3.8282884041897440e+00 7.5529341538246975e+00 0.0000000000000000e+00  3.7685895359655470e+00 7.6422163024014429e+00 0.0000000000000000e+00  3.6955081446704980e+00 7.7200753207648001e+00 0.0000000000000000e+00  3.9432295488252871e+00 7.3932759435261426e+00 0.0000000000000000e+00  3.9757066382720110e+00 7.2920616055794509e+00 0.0000000000000000e+00  4.0169677080014656e+00 7.2587046886496873e+00 0.0000000000000000e+00  4.0175232830606404e+00 7.2558583122351461e+00 0.0000000000000000e+00  4.0037565376307329e+00 7.2836019333787343e+00 0.0000000000000000e+00  3.9259930006263115e+00 7.3666759628363678e+00 0.0000000000000000e+00  3.9265330354941201e+00 7.3976897672893687e+00 0.0000000000000000e+00  4.0029882869897779e+00 7.2921289701722340e+00 0.0000000000000000e+00  3.9621516531506686e+00 7.2969533047290014e+00 0.0000000000000000e+00  3.9176199082828158e+00 7.4404835080109342e+00 0.0000000000000000e+00  3.9808276813878671e+00 7.2657296445163198e+00 0.0000000000000000e+00  3.9534020728543049e+00 7.3783008508158368e+00 0.0000000000000000e+00  3.9429132573423584e+00 7.3350495753781537e+00 0.0000000000000000e+00  3.9750912595369137e+00 7.3391891607864084e+00 0.0000000000000000e+00  3.9436917535617564e+00 7.3266835783774509e+00 0.0000000000000000e+00  3.9967956477880624e+00 7.3157441338630163e+00 0.0000000000000000e+00  3.9328945573513754e+00 7.3480650923021313e+00 0.0000000000000000e+00  3.9676395419856316e+00 7.3276965103523484e+00 0.0000000000000000e+00  3.9550527383899361e+00 7.3407517717570423e+00 0.0000000000000000e+00  3.9396958538817359e+00 7.3605453533966463e+00 0.0000000000000000e+00  3.9448258833353855e+00 7.3430330185382742e+00 0.0000000000000000e+00  3.9700571464563876e+00 7.3270709915112366e+00 0.0000000000000000e+00  3.9528389217088375e+00 7.3362340304324567e+00 0.0000000000000000e+00  3.9603767653308823e+00 7.3313060178090135e+00 0.0000000000000000e+00  3.9625634711374969e+00 7.3337251717938452e+00 0.0000000000000000e+00  3.9688359537331839e+00 7.3210560139801792e+00 0.0000000000000000e+00  3.9419228589310311e+00 7.3522584099493447e+00 0.0000000000000000e+00  3.9402855407650588e+00 7.3445495048655234e+00 0.0000000000000000e+00  4.0004041924104392e+00 7.3269493507366654e+00 0.0000000000000000e+00  3.9446653561427607e+00 7.3204357897788546e+00 0.0000000000000000e+00  3.9257566611970809e+00 7.2857273045055972e+00 0.0000000000000000e+00  3.9686663753299567e+00 7.5239929154843130e+00 0.0000000000000000e+00  3.9810645303127479e+00 7.3154701588859767e+00 0.0000000000000000e+00  4.9642875310493659e+00 5.0778620687666987e+00 0.0000000000000000e+00  1.0030365038282390e+01 -4.5326810407103080e-01 0.0000000000000000e+00  9.1205663658468019e+00 3.9537130090465344e-01 0.0000000000000000e+00  9.5269000368144070e+00 -1.9951757915764395e-02 0.0000000000000000e+00  9.4956280825066308e+00 -1.7113023974869843e-02 0.0000000000000000e+00  9.4250129360254782e+00 6.7403722889170486e-02 0.0000000000000000e+00  9.5166447729792143e+00 -1.6241129133703874e-02 0.0000000000000000e+00  9.4409746725573580e+00 4.3561727536292366e-02 0.0000000000000000e+00  9.4868621978925383e+00 -3.3708204116943466e-03 0.0000000000000000e+00  9.4780956564922771e+00 2.7253827901562260e-02 0.0000000000000000e+00  9.4751490986596227e+00 7.7277315644288923e-03 0.0000000000000000e+00  9.4810038664955609e+00 2.4497030109954365e-02 0.0000000000000000e+00  9.4779456511598674e+00 1.5761961697623589e-02 0.0000000000000000e+00  9.4858991225362956e+00 7.9289834709014417e-03 0.0000000000000000e+00  9.4796360734065530e+00 2.1909647633577473e-02 0.0000000000000000e+00  9.4872396816255335e+00 2.8038504770805130e-02 0.0000000000000000e+00  9.4857959196836994e+00 4.0570950384456036e-03 0.0000000000000000e+00  9.4862523759485349e+00 2.0387547479110875e-02 0.0000000000000000e+00  9.4879510233885842e+00 1.2187063106359780e-02 0.0000000000000000e+00  9.4897298392884117e+00 1.1707643240860346e-02 0.0000000000000000e+00  9.4878587018098202e+00 1.9704151166072843e-02 0.0000000000000000e+00  9.4851625851994417e+00 1.1473011788870240e-02 0.0000000000000000e+00  9.4914924682286674e+00 1.0226469252016115e-02 0.0000000000000000e+00  9.4850508222842382e+00 9.3954025444038438e-03 0.0000000000000000e+00  9.4860262810509077e+00 1.8754985711929534e-02 0.0000000000000000e+00  9.4884340943272090e+00 7.8292171426463269e-04 0.0000000000000000e+00  9.4872949719963700e+00 2.8312960842037799e-02 0.0000000000000000e+00  9.4845832772408709e+00 1.3150664739734622e-03 0.0000000000000000e+00  9.4921201469453056e+00 2.7039254395192724e-02 0.0000000000000000e+00  9.4854597123264082e+00 8.0737641604647289e-03 0.0000000000000000e+00  9.4898413367368555e+00 1.4441535358840379e-02 0.0000000000000000e+00  9.4910483662556935e+00 1.0103367186302314e-03 0.0000000000000000e+00  9.4888074941483236e+00 -7.3141355878855877e-03 0.0000000000000000e+00  9.4895022762789516e+00 3.0068984931474280e-02 0.0000000000000000e+00  9.4940021510953390e+00 -6.7304021895867538e-02 0.0000000000000000e+00  9.4852967290469792e+00 1.5741736286130636e-02 0.0000000000000000e+00  9.4952022401304976e+00 -4.3273342184993742e-02 0.0000000000000000e+00  9.4875299829076258e+00 -1.8729916433758498e-01 0.0000000000000000e+00  9.4826017524898916e+00 0.0000000000000000e+00 -7.3481841020071159e-02  9.4922522024278884e+00 0.0000000000000000e+00 -3.0220444697785148e-02  9.4832628352575892e+00 0.0000000000000000e+00 -4.0363938497146763e-02  9.4976948319336909e+00 0.0000000000000000e+00 -1.0651562796877723e-01  9.4828356721966109e+00 0.0000000000000000e+00 2.1102332363480691e-02  9.4980263885575056e+00 0.0000000000000000e+00 6.4467305018642937e-02  9.4862631676951903e+00 0.0000000000000000e+00 -2.0993210941718656e-02  9.5021523148691163e+00 0.0000000000000000e+00 -1.2420728741685705e-01  9.4885187588260411e+00 0.0000000000000000e+00 -1.0866404780092299e-01  9.4968252682287613e+00 0.0000000000000000e+00 1.4103232252107131e-01  9.4965393508863958e+00 0.0000000000000000e+00 -3.6309317057430457e-02  9.5001093585739866e+00 0.0000000000000000e+00 -6.1028206084000692e-03  9.4963551346488870e+00 0.0000000000000000e+00 -6.2701169660234660e-02  9.5031572036572456e+00 0.0000000000000000e+00 -4.7409797270450284e-02  9.4945269404212667e+00 0.0000000000000000e+00 -8.8051458490326501e-02  9.5005017019699807e+00 0.0000000000000000e+00 -1.7625138580574720e-01  9.5021053990145923e+00 0.0000000000000000e+00 -1.1388809760068649e-01  9.4941691461996260e+00 0.0000000000000000e+00 -2.8799291981041752e-01  9.4955797388972041e+00 0.0000000000000000e+00 5.2990019093333250e-02  9.5028384222445847e+00 0.0000000000000000e+00 6.9025585953338908e-02  9.5023473089789903e+00 0.0000000000000000e+00 -7.4653973800130502e-02  9.4984129245716407e+00 0.0000000000000000e+00 -2.2649277794145659e-01  9.4988508822214595e+00 0.0000000000000000e+00 -3.6975712310001678e-02  9.5060484264399232e+00 0.0000000000000000e+00 2.1529490941205068e-01  9.5006013409072843e+00 0.0000000000000000e+00 7.1934429291465945e-04  9.5059013213371397e+00 0.0000000000000000e+00 5.1714841530897941e-02  9.5018889613683530e+00 0.0000000000000000e+00 -5.2041316823644582e-03  9.5041107408516581e+00 0.0000000000000000e+00 -1.2291010243424820e-01  9.5042423284574014e+00 0.0000000000000000e+00 -1.0721194259407572e-01  9.5120148912747080e+00 0.0000000000000000e+00 7.2288198497577769e-02  9.4974068583561291e+00 0.0000000000000000e+00 -3.3497401897779971e-02  9.5090633892919829e+00 0.0000000000000000e+00 -1.5427851099369108e-01  9.5107221045728441e+00 0.0000000000000000e+00 -3.8009753950854999e-02  9.5054098105658316e+00 0.0000000000000000e+00 -1.2489871900930846e-01  9.5062861269127445e+00 0.0000000000000000e+00 -1.0693047477641532e-01  9.5138309501509397e+00 0.0000000000000000e+00 -1.2941357531663350e-01  9.5051836346831227e+00 0.0000000000000000e+00 -1.4609222144659259e-01  9.5053032531603368e+00 0.0000000000000000e+00 -2.1785331614836712e-01  9.5092223620324816e+00 0.0000000000000000e+00 1.1249308312944569e-02  9.5055652611658079e+00 -3.6817068211409482e-01 0.0000000000000000e+00  9.5033699132615066e+00 -4.2314286492967285e-01 0.0000000000000000e+00  9.5009079811198003e+00 -2.4041561056791064e-01 0.0000000000000000e+00  9.5103470120601301e+00 -6.0252324730832802e-03 0.0000000000000000e+00  9.5179994618704171e+00 -2.5644993069053840e-01 0.0000000000000000e+00  9.4952499500943244e+00 -7.9476715108070151e-01 0.0000000000000000e+00  9.4923716796554167e+00 -3.3040903155253060e-01 0.0000000000000000e+00  9.5204242899003599e+00 -4.9425440643409901e-01 0.0000000000000000e+00  9.4912346671659549e+00 -5.3597167889465269e-01 0.0000000000000000e+00  9.5077986146313904e+00 -3.3633875015277803e-01 0.0000000000000000e+00  9.5079247328092933e+00 -2.0361103003950548e-01 0.0000000000000000e+00  9.5072172825034933e+00 -6.6239195941939708e-02 0.0000000000000000e+00  9.5055620124531082e+00 -5.8595010787575945e-02 0.0000000000000000e+00  9.5110968515144254e+00 1.5874272160007163e-01 0.0000000000000000e+00  9.5038041577716381e+00 7.6874286271855108e-02 0.0000000000000000e+00  9.5048959713586019e+00 1.7366528760422834e-01 0.0000000000000000e+00  9.5136854957914796e+00 7.1825295876762910e-02 0.0000000000000000e+00  9.5024195401415614e+00 2.6556064555602114e-02 0.0000000000000000e+00  9.5155344920350604e+00 -5.9927357130253142e-02 0.0000000000000000e+00  9.5042651853991451e+00 1.0959334579328543e-01 0.0000000000000000e+00  9.5212269817771134e+00 -7.5439988082282014e-02 0.0000000000000000e+00  9.5045808943915731e+00 -8.1428299356800141e-02 0.0000000000000000e+00  9.5248244335983454e+00 -2.4424115593218811e-02 0.0000000000000000e+00  9.4980919215061057e+00 5.0857667083304726e-02 0.0000000000000000e+00  9.5210501080927283e+00 7.7704940306108014e-02 0.0000000000000000e+00  9.5060119202738438e+00 1.2016018118063651e-01 0.0000000000000000e+00  9.4891644000285016e+00 1.3276184046328546e-01 0.0000000000000000e+00  9.5612485332975830e+00 1.2820933105791318e-01 0.0000000000000000e+00  9.4292780511450207e+00 2.4579097628787471e-02 0.0000000000000000e+00  9.5269675515810839e+00 -8.9716700952034642e-03 0.0000000000000000e+00  9.5717933777107227e+00 -1.2209527098054104e-01 0.0000000000000000e+00  9.2804666032161229e+00 1.5648097028700711e-01 0.0000000000000000e+00  9.8100061781869492e+00 -1.1041416854454722e-01 0.0000000000000000e+00  9.3000815586531047e+00 3.8289239637093520e-01 0.0000000000000000e+00  9.6055746035500142e+00 -2.7976514481045150e-01 0.0000000000000000e+00  9.1544249204460311e+00 6.3332468794573382e-01 0.0000000000000000e+00  1.0113509252833486e+01 -7.2797776630888511e-01 0.0000000000000000e+00  5.1896358379271685e+00 4.9304431348612967e+00 0.0000000000000000e+00  3.9983143484912396e+00 7.2696971270531643e+00 0.0000000000000000e+00  4.0101068419402432e+00 7.5734385552779075e+00 0.0000000000000000e+00  3.9739123547363495e+00 7.2277737100715855e+00 0.0000000000000000e+00  4.0585052215122861