<?xml version="1.0"?>
<VTKFile type="UnstructuredGrid"  version="0.1"  >
<UnstructuredGrid>
<Piece  NumberOfPoints="9509" NumberOfCells="18536">
<Points>
<DataArray  type="Float64"  NumberOfComponents="3"  format="ascii">-5 -1 0  5 -1 0  5 1 0  -5 1 0  -4.949999999999965 -1 0  -4.899999999999877 -1 0  -4.849999999999826 -1 0  -4.799999999999754 -1 0  -4.749999999999695 -1 0  -4.69999999999963 -1 0  -4.649999999999565 -1 0  -4.599999999999507 -1 0  -4.549999999999454 -1 0  -4.499999999999384 -1 0  -4.449999999999317 -1 0  -4.399999999999261 -1 0  -4.349999999999206 -1 0  -4.299999999999137 -1 0  -4.249999999999075 -1 0  -4.199999999999013 -1 0  -4.149999999998934 -1 0  -4.09999999999889 -1 0  -4.049999999998847 -1 0  -3.999999999998767 -1 0  -3.949999999998706 -1 0  -3.899999999998644 -1 0  -3.849999999998594 -1 0  -3.799999999998552 -1 0  -3.749999999998549 -1 0  -3.699999999998651 -1 0  -3.649999999998804 -1 0  -3.59999999999894 -1 0  -3.549999999999097 -1 0  -3.499999999999261 -1 0  -3.449999999999394 -1 0  -3.399999999999582 -1 0  -3.349999999999742 -1 0  -3.299999999999902 -1 0  -3.25000000000006 -1 0  -3.200000000000223 -1 0  -3.150000000000369 -1 0  -3.100000000000544 -1 0  -3.050000000000704 -1 0  -3.000000000000864 -1 0  -2.950000000001029 -1 0  -2.900000000001185 -1 0  -2.850000000001347 -1 0  -2.800000000001506 -1 0  -2.750000000001665 -1 0  -2.700000000001827 -1 0  -2.650000000001979 -1 0  -2.600000000002148 -1 0  -2.550000000002311 -1 0  -2.500000000002468 -1 0  -2.450000000002635 -1 0  -2.400000000002789 -1 0  -2.35000000000295 -1 0  -2.30000000000311 -1 0  -2.250000000003253 -1 0  -2.200000000003431 -1 0  -2.150000000003601 -1 0  -2.100000000003752 -1 0  -2.050000000003922 -1 0  -2.000000000004072 -1 0  -1.950000000004237 -1 0  -1.900000000004393 -1 0  -1.850000000004541 -1 0  -1.800000000004714 -1 0  -1.750000000004886 -1 0  -1.700000000005035 -1 0  -1.650000000005206 -1 0  -1.600000000005355 -1 0  -1.550000000005516 -1 0  -1.500000000005676 -1 0  -1.450000000005824 -1 0  -1.400000000005996 -1 0  -1.350000000006146 -1 0  -1.300000000006318 -1 0  -1.250000000006505 -1 0  -1.200000000006638 -1 0  -1.150000000006797 -1 0  -1.100000000006959 -1 0  -1.050000000007106 -1 0  -1.000000000007245 -1 0  -0.9500000000072193 -1 0  -0.9000000000072612 -1 0  -0.8500000000071966 -1 0  -0.8000000000071381 -1 0  -0.750000000007085 -1 0  -0.700000000007015 -1 0  -0.6500000000069521 -1 0  -0.6000000000068919 -1 0  -0.5500000000068104 -1 0  -0.5000000000067688 -1 0  -0.4500000000067104 -1 0  -0.4000000000066457 -1 0  -0.3500000000065757 -1 0  -0.3000000000065226 -1 0  -0.2500000000064961 -1 0  -0.2000000000063995 -1 0  -0.1500000000063775 -1 0  -0.1000000000062764 -1 0  -0.0500000000062597 -1 0  -6.153300091682468e-12 -1 0  0.04999999999390781 -1 0  0.09999999999396891 -1 0  0.14999999999403 -1 0  0.1999999999940929 -1 0  0.2499999999941318 -1 0  0.299999999994216 -1 0  0.349999999994254 -1 0  0.3999999999943391 -1 0  0.4499999999944038 -1 0  0.4999999999944613 -1 0  0.5499999999945429 -1 0  0.5999999999945853 -1 0  0.6499999999946606 -1 0  0.6999999999947084 -1 0  0.7499999999947651 -1 0  0.7999999999948315 -1 0  0.8499999999948926 -1 0  0.8999999999949537 -1 0  0.9499999999950148 -1 0  0.9999999999950768 -1 0  1.049999999995139 -1 0  1.0999999999952 -1 0  1.149999999995266 -1 0  1.199999999995324 -1 0  1.249999999995385 -1 0  1.299999999995446 -1 0  1.349999999995488 -1 0  1.399999999995569 -1 0  1.449999999995604 -1 0  1.499999999995692 -1 0  1.549999999995753 -1 0  1.599999999995816 -1 0  1.649999999995892 -1 0  1.699999999995939 -1 0  1.749999999996017 -1 0  1.799999999996063 -1 0  1.849999999996111 -1 0  1.899999999996185 -1 0  1.949999999996246 -1 0  1.999999999996308 -1 0  2.049999999996351 -1 0  2.099999999996431 -1 0  2.149999999996504 -1 0  2.199999999996555 -1 0  2.249999999996616 -1 0  2.299999999996677 -1 0  2.349999999996736 -1 0  2.3999999999968 -1 0  2.449999999996847 -1 0  2.499999999996923 -1 0  2.549999999997 -1 0  2.599999999997047 -1 0  2.649999999997093 -1 0  2.69999999999717 -1 0  2.749999999997245 -1 0  2.799999999997293 -1 0  2.849999999997344 -1 0  2.899999999997416 -1 0  2.949999999997469 -1 0  2.999999999997539 -1 0  3.049999999997576 -1 0  3.099999999997662 -1 0  3.149999999997725 -1 0  3.199999999997784 -1 0  3.249999999997829 -1 0  3.299999999997908 -1 0  3.349999999997921 -1 0  3.39999999999803 -1 0  3.4499999999981 -1 0  3.499999999998153 -1 0  3.549999999998214 -1 0  3.599999999998277 -1 0  3.649999999998409 -1 0  3.699999999998401 -1 0  3.749999999998444 -1 0  3.799999999998523 -1 0  3.849999999998602 -1 0  3.899999999998645 -1 0  3.949999999998658 -1 0  3.999999999998769 -1 0  4.049999999998814 -1 0  4.099999999998893 -1 0  4.149999999998883 -1 0  4.199999999999015 -1 0  4.249999999999064 -1 0  4.299999999999137 -1 0  4.349999999999152 -1 0  4.399999999999261 -1 0  4.44999999999933 -1 0  4.499999999999385 -1 0  4.549999999999446 -1 0  4.599999999999508 -1 0  4.649999999999633 -1 0  4.699999999999632 -1 0  4.749999999999723 -1 0  4.799999999999754 -1 0  4.849999999999801 -1 0  4.899999999999876 -1 0  4.949999999999925 -1 0  5 -0.950000000000111 0  5 -0.9000000000002774 0  5 -0.8500000000004283 0  5 -0.8000000000005548 0  5 -0.7500000000006787 0  5 -0.7000000000008322 0  5 -0.6500000000009709 0  5 -0.6000000000011096 0  5 -0.5500000000012484 0  5 -0.500000000001387 0  5 -0.4500000000015256 0  5 -0.4000000000016644 0  5 -0.3500000000018031 0  5 -0.3000000000019418 0  5 -0.2500000000020806 0  5 -0.2000000000022192 0  5 -0.1500000000023578 0  5 -0.1000000000024964 0  5 -0.05000000000262439 0  5 -2.752242878045763e-12 0  5 0.0499999999973757 0  5 0.09999999999750342 0  5 0.1499999999976422 0  5 0.1999999999977808 0  5 0.2499999999979194 0  5 0.2999999999980583 0  5 0.3499999999981969 0  5 0.3999999999983355 0  5 0.4499999999984743 0  5 0.4999999999986129 0  5 0.5499999999987515 0  5 0.5999999999988903 0  5 0.6499999999990291 0  5 0.699999999999168 0  5 0.7499999999993068 0  5 0.7999999999994454 0  5 0.849999999999584 0  5 0.8999999999997226 0  5 0.9499999999998612 0  4.949999999999965 1 0  4.899999999999877 1 0  4.849999999999826 1 0  4.799999999999754 1 0  4.749999999999695 1 0  4.69999999999963 1 0  4.649999999999565 1 0  4.599999999999507 1 0  4.549999999999454 1 0  4.499999999999384 1 0  4.449999999999317 1 0  4.399999999999261 1 0  4.349999999999206 1 0  4.299999999999137 1 0  4.249999999999075 1 0  4.199999999999013 1 0  4.149999999998934 1 0  4.09999999999889 1 0  4.049999999998847 1 0  3.999999999998767 1 0  3.949999999998706 1 0  3.899999999998644 1 0  3.849999999998594 1 0  3.799999999998552 1 0  3.749999999998549 1 0  3.699999999998651 1 0  3.649999999998804 1 0  3.59999999999894 1 0  3.549999999999097 1 0  3.499999999999261 1 0  3.449999999999394 1 0  3.399999999999582 1 0  3.349999999999742 1 0  3.299999999999902 1 0  3.25000000000006 1 0  3.200000000000223 1 0  3.150000000000369 1 0  3.100000000000544 1 0  3.050000000000704 1 0  3.000000000000864 1 0  2.950000000001029 1 0  2.900000000001185 1 0  2.850000000001347 1 0  2.800000000001506 1 0  2.750000000001665 1 0  2.700000000001827 1 0  2.650000000001979 1 0  2.600000000002148 1 0  2.550000000002311 1 0  2.500000000002468 1 0  2.450000000002635 1 0  2.400000000002789 1 0  2.35000000000295 1 0  2.30000000000311 1 0  2.250000000003253 1 0  2.200000000003431 1 0  2.150000000003601 1 0  2.100000000003752 1 0  2.050000000003922 1 0  2.000000000004072 1 0  1.950000000004237 1 0  1.900000000004393 1 0  1.850000000004541 1 0  1.800000000004714 1 0  1.750000000004886 1 0  1.700000000005035 1 0  1.650000000005206 1 0  1.600000000005355 1 0  1.550000000005516 1 0  1.500000000005676 1 0  1.450000000005824 1 0  1.400000000005996 1 0  1.350000000006146 1 0  1.300000000006318 1 0  1.250000000006505 1 0  1.200000000006638 1 0  1.150000000006797 1 0  1.100000000006959 1 0  1.050000000007106 1 0  1.000000000007245 1 0  0.9500000000072193 1 0  0.9000000000072612 1 0  0.8500000000071966 1 0  0.8000000000071381 1 0  0.750000000007085 1 0  0.700000000007015 1 0  0.6500000000069521 1 0  0.6000000000068919 1 0  0.5500000000068104 1 0  0.5000000000067688 1 0  0.4500000000067104 1 0  0.4000000000066457 1 0  0.3500000000065757 1 0  0.3000000000065226 1 0  0.2500000000064961 1 0  0.2000000000063995 1 0  0.1500000000063775 1 0  0.1000000000062764 1 0  0.0500000000062597 1 0  6.153300091682468e-12 1 0  -0.04999999999390781 1 0  -0.09999999999396891 1 0  -0.14999999999403 1 0  -0.1999999999940929 1 0  -0.2499999999941318 1 0  -0.299999999994216 1 0  -0.349999999994254 1 0  -0.3999999999943391 1 0  -0.4499999999944038 1 0  -0.4999999999944613 1 0  -0.5499999999945429 1 0  -0.5999999999945853 1 0  -0.6499999999946606 1 0  -0.6999999999947084 1 0  -0.7499999999947651 1 0  -0.7999999999948315 1 0  -0.8499999999948926 1 0  -0.8999999999949537 1 0  -0.9499999999950148 1 0  -0.9999999999950768 1 0  -1.049999999995139 1 0  -1.0999999999952 1 0  -1.149999999995266 1 0  -1.199999999995324 1 0  -1.249999999995385 1 0  -1.299999999995446 1 0  -1.349999999995488 1 0  -1.399999999995569 1 0  -1.449999999995604 1 0  -1.499999999995692 1 0  -1.549999999995753 1 0  -1.599999999995816 1 0  -1.649999999995892 1 0  -1.699999999995939 1 0  -1.749999999996017 1 0  -1.799999999996063 1 0  -1.849999999996111 1 0  -1.899999999996185 1 0  -1.949999999996246 1 0  -1.999999999996308 1 0  -2.049999999996351 1 0  -2.099999999996431 1 0  -2.149999999996504 1 0  -2.199999999996555 1 0  -2.249999999996616 1 0  -2.299999999996677 1 0  -2.349999999996736 1 0  -2.3999999999968 1 0  -2.449999999996847 1 0  -2.499999999996923 1 0  -2.549999999997 1 0  -2.599999999997047 1 0  -2.649999999997093 1 0  -2.69999999999717 1 0  -2.749999999997245 1 0  -2.799999999997293 1 0  -2.849999999997344 1 0  -2.899999999997416 1 0  -2.949999999997469 1 0  -2.999999999997539 1 0  -3.049999999997576 1 0  -3.099999999997662 1 0  -3.149999999997725 1 0  -3.199999999997784 1 0  -3.249999999997829 1 0  -3.29999
[...]
<PointData  Vectors="(h, u)"> 
<DataArray  type="Float64"  Name="(h, u)"  NumberOfComponents="3" format="ascii">9.9999999997601705e+00 0.0000000000000000e+00 0.0000000000000000e+00  9.9999999999999922e-01 0.0000000000000000e+00 0.0000000000000000e+00  9.9999999999999967e-01 0.0000000000000000e+00 0.0000000000000000e+00  9.9999999999936318e+00 0.0000000000000000e+00 0.0000000000000000e+00  1.0000000000271948e+01 1.8371018245544983e-10 0.0000000000000000e+00  9.9999999996302602e+00 -3.0274536072619956e-10 0.0000000000000000e+00  1.0000000000318762e+01 2.5543508873874907e-10 0.0000000000000000e+00  9.9999999994966622e+00 -7.9366045628270653e-11 0.0000000000000000e+00  1.0000000000759115e+01 5.0143131303492571e-10 0.0000000000000000e+00  9.9999999985708783e+00 -1.0821905732293125e-09 0.0000000000000000e+00  1.0000000001666889e+01 1.2803918574372166e-09 0.0000000000000000e+00  9.9999999972476239e+00 -1.5847537411396254e-09 0.0000000000000000e+00  1.0000000003720734e+01 2.5857544514623001e-09 0.0000000000000000e+00  9.9999999943067532e+00 -4.0141747836131582e-09 0.0000000000000000e+00  1.0000000008256837e+01 5.8210319384074400e-09 0.0000000000000000e+00  9.9999999877524388e+00 -8.6273212822853167e-09 0.0000000000000000e+00  1.0000000017354719e+01 1.2115823064104963e-08 0.0000000000000000e+00  9.9999999758171185e+00 -1.6825856990681501e-08 0.0000000000000000e+00  1.0000000033625389e+01 2.3447473487911270e-08 0.0000000000000000e+00  9.9999999523636465e+00 -3.3670879305288854e-08 0.0000000000000000e+00  1.0000000068557567e+01 4.9498521258240760e-08 0.0000000000000000e+00  9.9999999019538119e+00 -7.2188816229639770e-08 0.0000000000000000e+00  1.0000000136151206e+01 1.0131807950306514e-07 0.0000000000000000e+00  9.9999998174696163e+00 -1.3590887148926649e-07 0.0000000000000000e+00  1.0000000240535647e+01 1.7845148418548491e-07 0.0000000000000000e+00  9.9999996781298357e+00 -2.3944127103327223e-07 0.0000000000000000e+00  1.0000000445793294e+01 3.3671774185605181e-07 0.0000000000000000e+00  9.9999993714652167e+00 -4.8485299183496384e-07 0.0000000000000000e+00  1.0000000867342569e+01 6.7952259335768128e-07 0.0000000000000000e+00  9.9999988622650253e+00 -8.9412005787508780e-07 0.0000000000000000e+00  1.0000001422191545e+01 1.1084475061316594e-06 0.0000000000000000e+00  9.9999982337413584e+00 -1.3632600857304652e-06 0.0000000000000000e+00  1.0000002309128124e+01 1.7926932825807893e-06 0.0000000000000000e+00  9.9999967776171754e+00 -2.5626601873175248e-06 0.0000000000000000e+00  1.0000004539639527e+01 3.7069586365528755e-06 0.0000000000000000e+00  9.9999939838111658e+00 -4.9825031204684520e-06 0.0000000000000000e+00  1.0000007235764382e+01 5.9806563873189541e-06 0.0000000000000000e+00  9.9999919008319242e+00 -6.5960078977724104e-06 0.0000000000000000e+00  1.0000009362380055e+01 7.5778210158642135e-06 0.0000000000000000e+00  9.9999874343299791e+00 -1.0443016662573512e-05 0.0000000000000000e+00  1.0000018743715998e+01 1.6248117374987829e-05 0.0000000000000000e+00  9.9999733989259010e+00 -2.3739824890591110e-05 0.0000000000000000e+00  1.0000032016432769e+01 2.8913045731046319e-05 0.0000000000000000e+00  9.9999688848700501e+00 -2.7933660403211753e-05 0.0000000000000000e+00  1.0000025871691534e+01 2.2756613907142787e-05 0.0000000000000000e+00  9.9999727296504854e+00 -2.4144334265724737e-05 0.0000000000000000e+00  1.0000048785983006e+01 4.5452018555183321e-05 0.0000000000000000e+00  9.9999095691203550e+00 -8.6738294457767382e-05 0.0000000000000000e+00  1.0000125710848545e+01 1.2208569785200667e-04 0.0000000000000000e+00  9.9998869589633603e+00 -1.1043908255526684e-04 0.0000000000000000e+00  1.0000037728993940e+01 3.7273890502781649e-05 0.0000000000000000e+00  1.0000043403586140e+01 4.1832003201569396e-05 0.0000000000000000e+00  9.9999851761256320e+00 -1.2938019585227692e-05 0.0000000000000000e+00  9.9998045405309561e+00 -1.9485697420531972e-04 0.0000000000000000e+00  1.0000480538745457e+01 4.7693350284743570e-04 0.0000000000000000e+00  9.9994568651437987e+00 -5.3994043779736123e-04 0.0000000000000000e+00  1.0000125015384350e+01 1.2955467284219357e-04 0.0000000000000000e+00  1.0000618765020558e+01 6.0338551430277692e-04 0.0000000000000000e+00  9.9990123914934301e+00 -9.6702415159292119e-04 0.0000000000000000e+00  1.0000204177433854e+01 1.9627468669507016e-04 0.0000000000000000e+00  1.0001632113848968e+01 1.6158766608978681e-03 0.0000000000000000e+00  9.9969944374554309e+00 -2.9711538974239639e-03 0.0000000000000000e+00  1.0001840478759821e+01 1.8266765097906298e-03 0.0000000000000000e+00  1.0002245873411663e+01 2.2084017748022038e-03 0.0000000000000000e+00  9.9937322001658480e+00 -6.1788410535060616e-03 0.0000000000000000e+00  1.0005220018227341e+01 5.1581886030365991e-03 0.0000000000000000e+00  1.0002974673194901e+01 2.9333239145631442e-03 0.0000000000000000e+00  9.9869820952012720e+00 -1.2850577323899331e-02 0.0000000000000000e+00  1.0013922090822810e+01 1.3765683929360359e-02 0.0000000000000000e+00  1.0000871861372007e+01 8.3792143190530367e-04 0.0000000000000000e+00  9.9769882189209653e+00 -2.2722922156401697e-02 0.0000000000000000e+00  1.0030487432302790e+01 3.0123456890806026e-02 0.0000000000000000e+00  9.9931206622254880e+00 -6.8697580166495074e-03 0.0000000000000000e+00  9.9636777163669752e+00 -3.5888204234949241e-02 0.0000000000000000e+00  1.0058875628692284e+01 5.8118358503134911e-02 0.0000000000000000e+00  9.9740238625475008e+00 -2.5839598797607326e-02 0.0000000000000000e+00  9.9511099598344792e+00 -4.8308657604271464e-02 0.0000000000000000e+00  1.0098436802890912e+01 9.7136706506339557e-02 0.0000000000000000e+00  9.9407114029580015e+00 -5.8790628424808089e-02 0.0000000000000000e+00  9.9445053415817846e+00 -5.4348297537289397e-02 0.0000000000000000e+00  1.0141869104652137e+01 1.4082550917641293e-01 0.0000000000000000e+00  9.8965937268269553e+00 -1.0056280563190967e-01 0.0000000000000000e+00  9.9464967738633270e+00 -4.7870619681656741e-02 0.0000000000000000e+00  1.0170374883152450e+01 1.7727241350557979e-01 0.0000000000000000e+00  9.8533400909250357e+00 -1.2762722646290661e-01 0.0000000000000000e+00  9.9425048772693572e+00 -2.1973291217919636e-02 0.0000000000000000e+00  1.0148320641798962e+01 2.0798557285729741e-01 0.0000000000000000e+00  9.8058461248077684e+00 -8.4751467195260125e-02 0.0000000000000000e+00  9.8737091861675630e+00 5.9724254083603781e-02 0.0000000000000000e+00  9.9964709365319511e+00 2.9613823031111947e-01 0.0000000000000000e+00  9.6652575261512332e+00 1.4005738512230301e-01 0.0000000000000000e+00  9.6037620648735604e+00 3.2691990620739653e-01 0.0000000000000000e+00  9.5609351923940142e+00 6.1670939447623319e-01 0.0000000000000000e+00  9.2186951516412723e+00 7.1461749744275505e-01 0.0000000000000000e+00  8.9548873104248372e+00 1.0049154973318186e+00 0.0000000000000000e+00  8.6859002921986228e+00 1.4028120496893235e+00 0.0000000000000000e+00  8.2655933946071869e+00 1.7794211932157586e+00 0.0000000000000000e+00  7.8320890985642855e+00 2.2568745660598064e+00 0.0000000000000000e+00  7.3682740004238720e+00 2.8017145401715924e+00 0.0000000000000000e+00  6.8328215175723130e+00 3.3925426131728296e+00 0.0000000000000000e+00  6.2996790962602249e+00 4.0595798759620552e+00 0.0000000000000000e+00  5.7610604026931780e+00 4.7687552035335576e+00 0.0000000000000000e+00  5.1756229694656142e+00 5.5180784638345477e+00 0.0000000000000000e+00  4.6180967324170066e+00 6.2917800793477765e+00 0.0000000000000000e+00  3.9644970654337692e+00 7.2982386326917439e+00 0.0000000000000000e+00  3.4827314245745620e+00 8.0717097272874589e+00 0.0000000000000000e+00  3.3418620630037901e+00 8.3107122656803654e+00 0.0000000000000000e+00  3.7791979460076628e+00 7.5873287246603409e+00 0.0000000000000000e+00  3.9132539553067351e+00 7.3480608354426034e+00 0.0000000000000000e+00  3.8884919036816257e+00 7.3503836115826662e+00 0.0000000000000000e+00  3.8653435134352137e+00 7.2658545036410285e+00 0.0000000000000000e+00  3.7832983975479348e+00 7.0643253185995700e+00 0.0000000000000000e+00  3.5159188143217022e+00 6.6556768313490338e+00 0.0000000000000000e+00  3.0058018716311823e+00 5.6802946235783880e+00 0.0000000000000000e+00  2.2302144610117565e+00 3.8707428467617473e+00 0.0000000000000000e+00  1.3180904908043556e+00 1.0447351042769526e+00 0.0000000000000000e+00  9.8434933202539010e-01 -6.4441264923416758e-02 0.0000000000000000e+00  9.9942002813807940e-01 -1.0764357315317998e-02 0.0000000000000000e+00  9.9815626194941609e-01 4.9263138985185138e-03 0.0000000000000000e+00  1.0006157339282507e+00 -1.9831686251795709e-03 0.0000000000000000e+00  1.0002209792029089e+00 -6.9520823445665819e-04 0.0000000000000000e+00  9.9957753052075793e-01 1.3229278053143491e-03 0.0000000000000000e+00  1.0002530177211415e+00 -7.9225118439925758e-04 0.0000000000000000e+00  9.9994910420699423e-01 1.5940969519058189e-04 0.0000000000000000e+00  9.9995629504985917e-01 1.3686751014763672e-04 0.0000000000000000e+00  1.0000482484637472e+00 -1.5108965438829941e-04 0.0000000000000000e+00  9.9997786041187908e-01 6.9332203186267121e-05 0.0000000000000000e+00  1.0000019809137415e+00 -6.2031814221936299e-06 0.0000000000000000e+00  1.0000047899182822e+00 -1.4999847513167901e-05 0.0000000000000000e+00  9.9999611015592493e-01 1.2181274441307474e-05 0.0000000000000000e+00  1.0000014206594798e+00 -4.4488670471874817e-06 0.0000000000000000e+00  1.0000000347224753e+00 -1.0873595535467944e-07 0.0000000000000000e+00  9.9999961669900261e-01 1.2003293506171843e-06 0.0000000000000000e+00  1.0000002487410224e+00 -7.7894645757984555e-07 0.0000000000000000e+00  9.9999992774403323e-01 2.2627343692434842e-07 0.0000000000000000e+00  9.9999998821243807e-01 3.6913597391765129e-08 0.0000000000000000e+00  1.0000000247266152e+00 -7.7432851699740262e-08 0.0000000000000000e+00  9.9999998663868417e-01 4.1841691155893419e-08 0.0000000000000000e+00  1.0000000029931628e+00 -9.3732117478426380e-09 0.0000000000000000e+00  1.0000000010851249e+00 -3.3981534949544582e-09 0.0000000000000000e+00  9.9999999864218647e-01 4.2520747863742314e-09 0.0000000000000000e+00  1.0000000006238867e+00 -1.9537318588475596e-09 0.0000000000000000e+00  9.9999999990051236e-01 3.1154503369292340e-10 0.0000000000000000e+00  9.9999999992872213e-01 2.2321329435536180e-10 0.0000000000000000e+00  1.0000000000656535e+00 -2.0559615806827834e-10 0.0000000000000000e+00  9.9999999997412559e-01 8.1023662228767412e-11 0.0000000000000000e+00  1.0000000000023719e+00 -7.4245396276085266e-12 0.0000000000000000e+00  1.0000000000038674e+00 -1.2113507863005912e-11 0.0000000000000000e+00  9.9999999999714129e-01 8.9540640205430101e-12 0.0000000000000000e+00  1.0000000000009650e+00 -3.0244754623910871e-12 0.0000000000000000e+00  9.9999999999998657e-01 4.4448287840437043e-14 0.0000000000000000e+00  9.9999999999981604e-01 5.7538315201236556e-13 0.0000000000000000e+00  1.0000000000001144e+00 -3.5680446616286143e-13 0.0000000000000000e+00  9.9999999999996636e-01 1.0176452446289938e-13 0.0000000000000000e+00  9.9999999999999767e-01 9.0538218399443219e-15 0.0000000000000000e+00  1.0000000000000075e+00 -2.5862158571468958e-14 0.0000000000000000e+00  9.9999999999999656e-01 1.4520425783846445e-14 0.0000000000000000e+00  1.0000000000000002e+00 -3.4148886747791639e-15 0.0000000000000000e+00  1.0000000000000009e+00 3.5154498452302223e-16 0.0000000000000000e+00  9.9999999999999867e-01 7.3841642706981012e-16 0.0000000000000000e+00  1.0000000000000011e+00 -9.3076781551404241e-16 0.0000000000000000e+00  9.9999999999999944e-01 1.1178184455633033e-15 0.0000000000000000e+00  1.0000000000000009e+00 -7.6437909333956837e-16 0.0000000000000000e+00  9.9999999999999933e-01 1.5047784710945236e-17 0.0000000000000000e+00  1.0000000000000002e+00 2.3920383039274246e-16 0.0000000000000000e+00  9.9999999999999900e-01 -5.1045032331880960e-16 0.0000000000000000e+00  1.0000000000000004e+00 1.9721904818211200e-17 0.0000000000000000e+00  9.9999999999999911e-01 6.5261296501032550e-17 0.0000000000000000e+00  1.0000000000000007e+00 3.1468065192528559e-16 0.0000000000000000e+00  9.9999999999999956e-01 1.9402602832134799e-16 0.0000000000000000e+00  1.0000000000000004e+00 -4.4938172858587835e-17 0.0000000000000000e+00  9.9999999999999978e-01 7.8671719770428402e-16 0.0000000000000000e+00  1.0000000000000009e+00 -8.2831199721942365e-16 0.0000000000000000e+00  9.9999999999999900e-01 -1.8861231181055953e-16 0.0000000000000000e+00  1.0000000000000011e+00 -5.4311451798518960e-17 0.0000000000000000e+00  9.9999999999999933e-01 -7.4354447812188304e-17 0.0000000000000000e+00  1.0000000000000004e+00 -2.7467380636862145e-16 0.0000000000000000e+00  9.9999999999999900e-01 6.5151273657854934e-17 0.0000000000000000e+00  1.0000000000000007e+00 4.2768453779891823e-16 0.0000000000000000e+00  9.9999999999999978e-01 -3.9491635042719799e-16 0.0000000000000000e+00  1.0000000000000007e+00 1.5200305326204515e-16 0.0000000000000000e+00  9.9999999999999900e-01 1.7783289521410547e-16 0.0000000000000000e+00  1.0000000000000009e+00 1.2704084195811545e-15 0.0000000000000000e+00  9.9999999999999933e-01 -5.5523660652776477e-16 0.0000000000000000e+00  1.0000000000000009e+00 2.7384186554572849e-16 0.0000000000000000e+00  9.9999999999999967e-01 -5.8153058859029511e-16 0.0000000000000000e+00  1.0000000000000007e+00 -9.1723588235983504e-16 0.0000000000000000e+00  9.9999999999999900e-01 -1.0469663411372199e-15 0.0000000000000000e+00  1.0000000000000007e+00 1.6874699907518674e-16 0.0000000000000000e+00  9.9999999999999867e-01 3.9145911660312339e-16 0.0000000000000000e+00  1.0000000000000007e+00 5.7873533004820755e-16 0.0000000000000000e+00  9.9999999999999967e-01 -6.9398294626327401e-16 0.0000000000000000e+00  1.0000000000000009e+00 6.8628882381469021e-16 0.0000000000000000e+00  9.9999999999999911e-01 -4.6287335421371014e-16 0.0000000000000000e+00  1.0000000000000013e+00 1.0109819758768620e-15 0.0000000000000000e+00  9.9999999999999889e-01 -1.1468833635521294e-16 0.0000000000000000e+00  1.0000000000000009e+00 6.7504736445669993e-16 0.0000000000000000e+00  9.9999999999999944e-01 -2.8983723078825999e-16 0.0000000000000000e+00  1.0000000000000009e+00 -8.6215209371721951e-16 0.0000000000000000e+00  9.9999999999999933e-01 3.1064046567155366e-16 0.0000000000000000e+00  1.0000000000000011e+00 -7.4277694043804319e-16 0.0000000000000000e+00  9.9999999999999911e-01 8.5900236434927773e-16 0.0000000000000000e+00  1.0000000000000004e+00 -6.0877640690031441e-16 0.0000000000000000e+00  1.0000000000000007e+00 0.0000000000000000e+00 -9.4561443663501329e-17  9.9999999999999922e-01 0.0000000000000000e+00 9.6112305426845094e-17  1.0000000000000009e+00 0.0000000000000000e+00 7.7464845600705723e-16  9.9999999999999911e-01 0.0000000000000000e+00 -4.7338927012018120e-16  1.0000000000000007e+00 0.0000000000000000e+00 4.4339722919531989e-16  9.9999999999999944e-01 0.0000000000000000e+00 -1.3882137207273618e-16  1.0000000000000011e+00 0.0000000000000000e+00 7.1643988053545993e-16  9.9999999999999889e-01 0.0000000000000000e+00 -9.0284292132924597e-16  1.0000000000000007e+00 0.0000000000000000e+00 -9.7689582402270418e-17  9.9999999999999867e-01 0.0000000000000000e+00 3.2085600165165793e-16  1.0000000000000009e+00 0.0000000000000000e+00 -2.6005222272086690e-16  9.9999999999999900e-01 0.0000000000000000e+00 5.3497585438633057e-17  1.0000000000000009e+00 0.0000000000000000e+00 7.4165033201254152e-16  9.9999999999999922e-01 0.0000000000000000e+00 5.8422850111613977e-16  1.0000000000000009e+00 0.0000000000000000e+00 -1.1988163682922986e-15  9.9999999999999933e-01 0.0000000000000000e+00 -1.1755006140238670e-15  1.0000000000000007e+00 0.0000000000000000e+00 1.6185667163394328e-15  9.9999999999999900e-01 0.0000000000000000e+00 -5.5706832454927121e-16  1.0000000000000011e+00 0.0000000000000000e+00 -2.6368448049445171e-16  9.9999999999999922e-01 0.0000000000000000e+00 6.3469840674046878e-16  1.0000000000000011e+00 0.0000000000000000e+00 1.1939282219979441e-15  9.9999999999999944e-01 0.0000000000000000e+00 -1.1433470001767349e-15  1.0000000000000007e+00 0.0000000000000000e+00 -1.2967636511390635e-16  9.9999999999999967e-01 0.0000000000000000e+00 2.6800141981976013e-16  1.0000000000000004e+00 0.0000000000000000e+00 1.6578117260537376e-16  9.9999999999999944e-01 0.0000000000000000e+00 -2.3649781397464025e-15  1.0000000000000004e+00 0.0000000000000000e+00 2.5231396416939152e-16  9.9999999999999944e-01 0.0000000000000000e+00 -3.4186844540826072e-16  1.0000000000000007e+00 0.0000000000000000e+00 4.3604470460796095e-16  9.9999999999999944e-01 0.0000000000000000e+00 -2.8049241582452916e-16  1.0000000000000004e+00 0.0000000000000000e+00 2.2054456885952468e-16  9.9999999999999944e-01 0.0000000000000000e+00 1.3932691717984796e-15  1.0000000000000007e+00 0.0000000000000000e+00 6.2165104501353337e-16  9.9999999999999922e-01 0.0000000000000000e+00 3.9048432157274375e-17  1.0000000000000009e+00 0.0000000000000000e+00 3.5203025685278348e-16  9.9999999999999900e-01 0.0000000000000000e+00 1.9899906944103688e-16  1.0000000000000007e+00 0.0000000000000000e+00 -8.0023223703756883e-16  9.9999999999999900e-01 0.0000000000000000e+00 -1.3307444097958815e-16  1.0000000000000009e+00 0.0000000000000000e+00 -3.5350301822425932e-17  1.0000000000000007e+00 4.9641848686970483e-16 0.0000000000000000e+00  9.9999999999999956e-01 6.9274582415712384e-16 0.0000000000000000e+00  1.0000000000000009e+00 -7.7462488800905102e-16 0.0000000000000000e+00  9.9999999999999978e-01 -3.7031287851278338e-16 0.0000000000000000e+00  1.0000000000000009e+00 9.0981257277595658e-16 0.0000000000000000e+00  9.9999999999999922e-01 2.8103477002183555e-16 0.0000000000000000e+00  1.0000000000000004e+00 -1.0701452063415705e-15 0.0000000000000000e+00  9.9999999999999900e-01 6.3181404202024612e-16 0.0000000000000000e+00  1.0000000000000004e+00 -3.3109496198339927e-16 0.0000000000000000e+00  9.9999999999999922e-01 4.7356089180210066e-16 0.0000000000000000e+00  1.0000000000000007e+00 -2.6616721908294738e-16 0.0000000000000000e+00  9.9999999999999944e-01 7.5827070549424311e-16 0.0000000000000000e+00  1.0000000000000011e+00 -7.3825446702947612e-16 0.0000000000000000e+00  9.9999999999999944e-01 2.9920102550436372e-16 0.0000000000000000e+00  1.0000000000000007e+00 -1.1813768406479726e-15 0.0000000000000000e+00  9.9999999999999944e-01 6.4342333853368911e-16 0.0000000000000000e+00  1.0000000000000004e+00 -3.1479208872210159e-16 0.0000000000000000e+00  9.9999999999999967e-01 2.6699425523218321e-16 0.0000000000000000e+00  1.0000000000000011e+00 1.3575820804119146e-16 0.0000000000000000e+00  9.9999999999999933e-01 5.4611383006875012e-17 0.0000000000000000e+00  1.0000000000000009e+00 -9.5544484750346750e-17 0.0000000000000000e+00  9.9999999999999900e-01 9.9305196296773977e-16 0.0000000000000000e+00  1.0000000000000007e+00 -4.6947031394082462e-16 0.0000000000000000e+00  9.9999999999999911e-01 8.9769248620491240e-16 0.0000000000000000e+00  1.0000000000000007e+00 4.0654930050378419e-17 0.0000000000000000e+00  9.9999999999999978e-01 -4.4694742431265096e-16 0.0000000000000000e+00  1.0000000000000011e+00 9.6019627847638772e-16 0.0000000000000000e+00  9.9999999999999944e-01 -1.2037511940550108e-15 0.0000000000000000e+00  1.0000000000000009e+00 -9.5457256847020719e-16 0.0000000000000000e+00  9.9999999999999922e-01 7.4247461823763743e-17 0.0000000000000000e+00  1.0000000000000009e+00 -5.5205134649813691e-16 0.0000000000000000e+00  9.9999999999999933e-01 6.8599196103420520e-16 0.0000000000000000e+00  1.0000000000000009e+00 -4.3041038568411719e-16 0.0000000000000000e+00  9.9999999999999911e-01 8.7035932478070947e-17 0.0000000000000000e+00  1.0000000000000011e+00 2.0415295782504469e-15 0.0000000000000000e+00  9.9999999999999933e-01 -3.0211659848045322e-16 0.0000000000000000e+00  1.0000000000000002e+00 7.0954304773546269e-16 0.0000000000000000e+00  9.9999999999999944e-01 -1.0545420563873862e-15 0.0000000000000000e+00  1.0000000000000002e+00 -3.4170699786105457e-16 0.0000000000000000e+00  9.9999999999999933e-01 1.5681234636582575e-15 0.0000000000000000e+00  1.0000000000000009e+00 -1.6