<?xml version="1.0"?>
<VTKFile type="UnstructuredGrid"  version="0.1"  >
<UnstructuredGrid>
<Piece  NumberOfPoints="9509" NumberOfCells="18536">
<Points>
<DataArray  type="Float64"  NumberOfComponents="3"  format="ascii">-5 -1 0  5 -1 0  5 1 0  -5 1 0  -4.949999999999965 -1 0  -4.899999999999877 -1 0  -4.849999999999826 -1 0  -4.799999999999754 -1 0  -4.749999999999695 -1 0  -4.69999999999963 -1 0  -4.649999999999565 -1 0  -4.599999999999507 -1 0  -4.549999999999454 -1 0  -4.499999999999384 -1 0  -4.449999999999317 -1 0  -4.399999999999261 -1 0  -4.349999999999206 -1 0  -4.299999999999137 -1 0  -4.249999999999075 -1 0  -4.199999999999013 -1 0  -4.149999999998934 -1 0  -4.09999999999889 -1 0  -4.049999999998847 -1 0  -3.999999999998767 -1 0  -3.949999999998706 -1 0  -3.899999999998644 -1 0  -3.849999999998594 -1 0  -3.799999999998552 -1 0  -3.749999999998549 -1 0  -3.699999999998651 -1 0  -3.649999999998804 -1 0  -3.59999999999894 -1 0  -3.549999999999097 -1 0  -3.499999999999261 -1 0  -3.449999999999394 -1 0  -3.399999999999582 -1 0  -3.349999999999742 -1 0  -3.299999999999902 -1 0  -3.25000000000006 -1 0  -3.200000000000223 -1 0  -3.150000000000369 -1 0  -3.100000000000544 -1 0  -3.050000000000704 -1 0  -3.000000000000864 -1 0  -2.950000000001029 -1 0  -2.900000000001185 -1 0  -2.850000000001347 -1 0  -2.800000000001506 -1 0  -2.750000000001665 -1 0  -2.700000000001827 -1 0  -2.650000000001979 -1 0  -2.600000000002148 -1 0  -2.550000000002311 -1 0  -2.500000000002468 -1 0  -2.450000000002635 -1 0  -2.400000000002789 -1 0  -2.35000000000295 -1 0  -2.30000000000311 -1 0  -2.250000000003253 -1 0  -2.200000000003431 -1 0  -2.150000000003601 -1 0  -2.100000000003752 -1 0  -2.050000000003922 -1 0  -2.000000000004072 -1 0  -1.950000000004237 -1 0  -1.900000000004393 -1 0  -1.850000000004541 -1 0  -1.800000000004714 -1 0  -1.750000000004886 -1 0  -1.700000000005035 -1 0  -1.650000000005206 -1 0  -1.600000000005355 -1 0  -1.550000000005516 -1 0  -1.500000000005676 -1 0  -1.450000000005824 -1 0  -1.400000000005996 -1 0  -1.350000000006146 -1 0  -1.300000000006318 -1 0  -1.250000000006505 -1 0  -1.200000000006638 -1 0  -1.150000000006797 -1 0  -1.100000000006959 -1 0  -1.050000000007106 -1 0  -1.000000000007245 -1 0  -0.9500000000072193 -1 0  -0.9000000000072612 -1 0  -0.8500000000071966 -1 0  -0.8000000000071381 -1 0  -0.750000000007085 -1 0  -0.700000000007015 -1 0  -0.6500000000069521 -1 0  -0.6000000000068919 -1 0  -0.5500000000068104 -1 0  -0.5000000000067688 -1 0  -0.4500000000067104 -1 0  -0.4000000000066457 -1 0  -0.3500000000065757 -1 0  -0.3000000000065226 -1 0  -0.2500000000064961 -1 0  -0.2000000000063995 -1 0  -0.1500000000063775 -1 0  -0.1000000000062764 -1 0  -0.0500000000062597 -1 0  -6.153300091682468e-12 -1 0  0.04999999999390781 -1 0  0.09999999999396891 -1 0  0.14999999999403 -1 0  0.1999999999940929 -1 0  0.2499999999941318 -1 0  0.299999999994216 -1 0  0.349999999994254 -1 0  0.3999999999943391 -1 0  0.4499999999944038 -1 0  0.4999999999944613 -1 0  0.5499999999945429 -1 0  0.5999999999945853 -1 0  0.6499999999946606 -1 0  0.6999999999947084 -1 0  0.7499999999947651 -1 0  0.7999999999948315 -1 0  0.8499999999948926 -1 0  0.8999999999949537 -1 0  0.9499999999950148 -1 0  0.9999999999950768 -1 0  1.049999999995139 -1 0  1.0999999999952 -1 0  1.149999999995266 -1 0  1.199999999995324 -1 0  1.249999999995385 -1 0  1.299999999995446 -1 0  1.349999999995488 -1 0  1.399999999995569 -1 0  1.449999999995604 -1 0  1.499999999995692 -1 0  1.549999999995753 -1 0  1.599999999995816 -1 0  1.649999999995892 -1 0  1.699999999995939 -1 0  1.749999999996017 -1 0  1.799999999996063 -1 0  1.849999999996111 -1 0  1.899999999996185 -1 0  1.949999999996246 -1 0  1.999999999996308 -1 0  2.049999999996351 -1 0  2.099999999996431 -1 0  2.149999999996504 -1 0  2.199999999996555 -1 0  2.249999999996616 -1 0  2.299999999996677 -1 0  2.349999999996736 -1 0  2.3999999999968 -1 0  2.449999999996847 -1 0  2.499999999996923 -1 0  2.549999999997 -1 0  2.599999999997047 -1 0  2.649999999997093 -1 0  2.69999999999717 -1 0  2.749999999997245 -1 0  2.799999999997293 -1 0  2.849999999997344 -1 0  2.899999999997416 -1 0  2.949999999997469 -1 0  2.999999999997539 -1 0  3.049999999997576 -1 0  3.099999999997662 -1 0  3.149999999997725 -1 0  3.199999999997784 -1 0  3.249999999997829 -1 0  3.299999999997908 -1 0  3.349999999997921 -1 0  3.39999999999803 -1 0  3.4499999999981 -1 0  3.499999999998153 -1 0  3.549999999998214 -1 0  3.599999999998277 -1 0  3.649999999998409 -1 0  3.699999999998401 -1 0  3.749999999998444 -1 0  3.799999999998523 -1 0  3.849999999998602 -1 0  3.899999999998645 -1 0  3.949999999998658 -1 0  3.999999999998769 -1 0  4.049999999998814 -1 0  4.099999999998893 -1 0  4.149999999998883 -1 0  4.199999999999015 -1 0  4.249999999999064 -1 0  4.299999999999137 -1 0  4.349999999999152 -1 0  4.399999999999261 -1 0  4.44999999999933 -1 0  4.499999999999385 -1 0  4.549999999999446 -1 0  4.599999999999508 -1 0  4.649999999999633 -1 0  4.699999999999632 -1 0  4.749999999999723 -1 0  4.799999999999754 -1 0  4.849999999999801 -1 0  4.899999999999876 -1 0  4.949999999999925 -1 0  5 -0.950000000000111 0  5 -0.9000000000002774 0  5 -0.8500000000004283 0  5 -0.8000000000005548 0  5 -0.7500000000006787 0  5 -0.7000000000008322 0  5 -0.6500000000009709 0  5 -0.6000000000011096 0  5 -0.5500000000012484 0  5 -0.500000000001387 0  5 -0.4500000000015256 0  5 -0.4000000000016644 0  5 -0.3500000000018031 0  5 -0.3000000000019418 0  5 -0.2500000000020806 0  5 -0.2000000000022192 0  5 -0.1500000000023578 0  5 -0.1000000000024964 0  5 -0.05000000000262439 0  5 -2.752242878045763e-12 0  5 0.0499999999973757 0  5 0.09999999999750342 0  5 0.1499999999976422 0  5 0.1999999999977808 0  5 0.2499999999979194 0  5 0.2999999999980583 0  5 0.3499999999981969 0  5 0.3999999999983355 0  5 0.4499999999984743 0  5 0.4999999999986129 0  5 0.5499999999987515 0  5 0.5999999999988903 0  5 0.6499999999990291 0  5 0.699999999999168 0  5 0.7499999999993068 0  5 0.7999999999994454 0  5 0.849999999999584 0  5 0.8999999999997226 0  5 0.9499999999998612 0  4.949999999999965 1 0  4.899999999999877 1 0  4.849999999999826 1 0  4.799999999999754 1 0  4.749999999999695 1 0  4.69999999999963 1 0  4.649999999999565 1 0  4.599999999999507 1 0  4.549999999999454 1 0  4.499999999999384 1 0  4.449999999999317 1 0  4.399999999999261 1 0  4.349999999999206 1 0  4.299999999999137 1 0  4.249999999999075 1 0  4.199999999999013 1 0  4.149999999998934 1 0  4.09999999999889 1 0  4.049999999998847 1 0  3.999999999998767 1 0  3.949999999998706 1 0  3.899999999998644 1 0  3.849999999998594 1 0  3.799999999998552 1 0  3.749999999998549 1 0  3.699999999998651 1 0  3.649999999998804 1 0  3.59999999999894 1 0  3.549999999999097 1 0  3.499999999999261 1 0  3.449999999999394 1 0  3.399999999999582 1 0  3.349999999999742 1 0  3.299999999999902 1 0  3.25000000000006 1 0  3.200000000000223 1 0  3.150000000000369 1 0  3.100000000000544 1 0  3.050000000000704 1 0  3.000000000000864 1 0  2.950000000001029 1 0  2.900000000001185 1 0  2.850000000001347 1 0  2.800000000001506 1 0  2.750000000001665 1 0  2.700000000001827 1 0  2.650000000001979 1 0  2.600000000002148 1 0  2.550000000002311 1 0  2.500000000002468 1 0  2.450000000002635 1 0  2.400000000002789 1 0  2.35000000000295 1 0  2.30000000000311 1 0  2.250000000003253 1 0  2.200000000003431 1 0  2.150000000003601 1 0  2.100000000003752 1 0  2.050000000003922 1 0  2.000000000004072 1 0  1.950000000004237 1 0  1.900000000004393 1 0  1.850000000004541 1 0  1.800000000004714 1 0  1.750000000004886 1 0  1.700000000005035 1 0  1.650000000005206 1 0  1.600000000005355 1 0  1.550000000005516 1 0  1.500000000005676 1 0  1.450000000005824 1 0  1.400000000005996 1 0  1.350000000006146 1 0  1.300000000006318 1 0  1.250000000006505 1 0  1.200000000006638 1 0  1.150000000006797 1 0  1.100000000006959 1 0  1.050000000007106 1 0  1.000000000007245 1 0  0.9500000000072193 1 0  0.9000000000072612 1 0  0.8500000000071966 1 0  0.8000000000071381 1 0  0.750000000007085 1 0  0.700000000007015 1 0  0.6500000000069521 1 0  0.6000000000068919 1 0  0.5500000000068104 1 0  0.5000000000067688 1 0  0.4500000000067104 1 0  0.4000000000066457 1 0  0.3500000000065757 1 0  0.3000000000065226 1 0  0.2500000000064961 1 0  0.2000000000063995 1 0  0.1500000000063775 1 0  0.1000000000062764 1 0  0.0500000000062597 1 0  6.153300091682468e-12 1 0  -0.04999999999390781 1 0  -0.09999999999396891 1 0  -0.14999999999403 1 0  -0.1999999999940929 1 0  -0.2499999999941318 1 0  -0.299999999994216 1 0  -0.349999999994254 1 0  -0.3999999999943391 1 0  -0.4499999999944038 1 0  -0.4999999999944613 1 0  -0.5499999999945429 1 0  -0.5999999999945853 1 0  -0.6499999999946606 1 0  -0.6999999999947084 1 0  -0.7499999999947651 1 0  -0.7999999999948315 1 0  -0.8499999999948926 1 0  -0.8999999999949537 1 0  -0.9499999999950148 1 0  -0.9999999999950768 1 0  -1.049999999995139 1 0  -1.0999999999952 1 0  -1.149999999995266 1 0  -1.199999999995324 1 0  -1.249999999995385 1 0  -1.299999999995446 1 0  -1.349999999995488 1 0  -1.399999999995569 1 0  -1.449999999995604 1 0  -1.499999999995692 1 0  -1.549999999995753 1 0  -1.599999999995816 1 0  -1.649999999995892 1 0  -1.699999999995939 1 0  -1.749999999996017 1 0  -1.799999999996063 1 0  -1.849999999996111 1 0  -1.899999999996185 1 0  -1.949999999996246 1 0  -1.999999999996308 1 0  -2.049999999996351 1 0  -2.099999999996431 1 0  -2.149999999996504 1 0  -2.199999999996555 1 0  -2.249999999996616 1 0  -2.299999999996677 1 0  -2.349999999996736 1 0  -2.3999999999968 1 0  -2.449999999996847 1 0  -2.499999999996923 1 0  -2.549999999997 1 0  -2.599999999997047 1 0  -2.649999999997093 1 0  -2.69999999999717 1 0  -2.749999999997245 1 0  -2.799999999997293 1 0  -2.849999999997344 1 0  -2.899999999997416 1 0  -2.949999999997469 1 0  -2.999999999997539 1 0  -3.049999999997576 1 0  -3.099999999997662 1 0  -3.149999999997725 1 0  -3.199999999997784 1 0  -3.249999999997829 1 0  -3.29999
[...]
<PointData  Vectors="(h, u)"> 
<DataArray  type="Float64"  Name="(h, u)"  NumberOfComponents="3" format="ascii">9.9670649279648611e+00 0.0000000000000000e+00 0.0000000000000000e+00  9.9999942016122434e-01 0.0000000000000000e+00 0.0000000000000000e+00  9.9999998697797265e-01 0.0000000000000000e+00 0.0000000000000000e+00  9.9635722890806235e+00 0.0000000000000000e+00 0.0000000000000000e+00  1.0016785270764892e+01 4.1757914397903047e-03 0.0000000000000000e+00  9.9689394501549558e+00 1.4817263704166509e-02 0.0000000000000000e+00  1.0007885195969660e+01 4.4974612325839325e-03 0.0000000000000000e+00  9.9592725535252029e+00 -5.5771074210072703e-03 0.0000000000000000e+00  1.0020063527711882e+01 6.6808375104853452e-03 0.0000000000000000e+00  9.9606736205192306e+00 8.1419415981593933e-03 0.0000000000000000e+00  9.9962122712655859e+00 3.6970014130733244e-03 0.0000000000000000e+00  9.9642160102150683e+00 5.2353389438722406e-02 0.0000000000000000e+00  9.9907176599499756e+00 -3.3063184122830115e-03 0.0000000000000000e+00  9.9355586158286364e+00 1.5318444500099969e-02 0.0000000000000000e+00  1.0000238462480024e+01 5.7258165517876700e-02 0.0000000000000000e+00  9.9249470801791855e+00 2.4900859650950583e-02 0.0000000000000000e+00  9.9490343667833585e+00 3.7090300720221320e-02 0.0000000000000000e+00  9.9384677635335432e+00 7.3711695975754443e-02 0.0000000000000000e+00  9.9281058353998173e+00 6.2025423274065537e-02 0.0000000000000000e+00  9.8664293802108496e+00 7.5284456953583184e-02 0.0000000000000000e+00  9.9374568333351530e+00 1.0929065326043108e-01 0.0000000000000000e+00  9.8349711669524087e+00 1.1868801893710609e-01 0.0000000000000000e+00  9.8412692493653875e+00 1.3331822296904275e-01 0.0000000000000000e+00  9.8380887620482493e+00 1.7464052530813537e-01 0.0000000000000000e+00  9.7948630423941552e+00 1.9219635581095068e-01 0.0000000000000000e+00  9.7192331137248456e+00 2.2468195491170398e-01 0.0000000000000000e+00  9.7859779996813696e+00 2.6118379832943317e-01 0.0000000000000000e+00  9.6591900075826818e+00 2.9739741587437951e-01 0.0000000000000000e+00  9.6421213370853280e+00 3.3981173609430576e-01 0.0000000000000000e+00  9.6391553560286134e+00 3.7846567516656693e-01 0.0000000000000000e+00  9.5655184224440912e+00 4.2749742756004727e-01 0.0000000000000000e+00  9.4745649597992010e+00 4.8053048793421493e-01 0.0000000000000000e+00  9.5306997989772828e+00 5.2362970645529705e-01 0.0000000000000000e+00  9.3849862436176110e+00 5.7839543170015784e-01 0.0000000000000000e+00  9.3466236603622512e+00 6.4897867157983091e-01 0.0000000000000000e+00  9.3369400058092751e+00 6.8646531798452259e-01 0.0000000000000000e+00  9.2449504246996508e+00 7.5801396293704293e-01 0.0000000000000000e+00  9.1389848183827809e+00 8.2667953704359276e-01 0.0000000000000000e+00  9.1823818553969634e+00 8.8197641800101789e-01 0.0000000000000000e+00  9.0291841411131397e+00 9.4101736672280945e-01 0.0000000000000000e+00  8.9751555905135270e+00 1.0382146662296141e+00 0.0000000000000000e+00  8.9521642972968554e+00 1.0773748502765848e+00 0.0000000000000000e+00  8.8603062876176590e+00 1.1606418263229190e+00 0.0000000000000000e+00  8.7402340248337698e+00 1.2389302594195306e+00 0.0000000000000000e+00  8.7691075653494277e+00 1.3139059622560489e+00 0.0000000000000000e+00  8.6215491415389298e+00 1.3637786957861020e+00 0.0000000000000000e+00  8.5586324889263317e+00 1.4822716040927131e+00 0.0000000000000000e+00  8.5145613764121411e+00 1.5324913098738286e+00 0.0000000000000000e+00  8.4389010509469795e+00 1.6109044568944317e+00 0.0000000000000000e+00  8.3078408512093294e+00 1.7010915798127211e+00 0.0000000000000000e+00  8.3182255504176510e+00 1.7919194364379021e+00 0.0000000000000000e+00  8.1852714211629998e+00 1.8357878867197093e+00 0.0000000000000000e+00  8.1205087592194172e+00 1.9541161962853824e+00 0.0000000000000000e+00  8.0502383936552206e+00 2.0377920006992869e+00 0.0000000000000000e+00  7.9965770774329243e+00 2.0867226030447621e+00 0.0000000000000000e+00  7.8611833927607364e+00 2.2006509252677575e+00 0.0000000000000000e+00  7.8514284026266452e+00 2.2978938897757071e+00 0.0000000000000000e+00  7.7326739630726387e+00 2.3338697087139559e+00 0.0000000000000000e+00  7.6741323791987650e+00 2.4658223336379721e+00 0.0000000000000000e+00  7.5774954819195184e+00 2.5388358157990507e+00 0.0000000000000000e+00  7.5434356577499120e+00 2.6266773297901653e+00 0.0000000000000000e+00  7.4080253757191921e+00 2.6832337548829299e+00 0.0000000000000000e+00  7.3839907719091720e+00 2.8442331695859577e+00 0.0000000000000000e+00  7.2730728797294475e+00 2.8670511719705405e+00 0.0000000000000000e+00  7.2225180295265332e+00 2.9443645554114042e+00 0.0000000000000000e+00  7.1112050278587304e+00 3.1354388874865351e+00 0.0000000000000000e+00  7.0847301444388684e+00 3.1050233317778808e+00 0.0000000000000000e+00  6.9564177612332436e+00 3.2363794069945233e+00 0.0000000000000000e+00  6.9226651882834700e+00 3.3827247897349286e+00 0.0000000000000000e+00  6.8186579440845732e+00 3.4006207538147408e+00 0.0000000000000000e+00  6.7715797103371873e+00 3.4636572880018730e+00 0.0000000000000000e+00  6.6587315518000070e+00 3.7190770380935709e+00 0.0000000000000000e+00  6.6317772106164465e+00 3.5667990963327889e+00 0.0000000000000000e+00  6.5129265614029732e+00 3.8825755195332983e+00 0.0000000000000000e+00  6.4699789732800683e+00 3.8215543448965974e+00 0.0000000000000000e+00  6.3750715762327905e+00 4.0055458212465318e+00 0.0000000000000000e+00  6.3245539545655323e+00 4.0220465077438270e+00 0.0000000000000000e+00  6.2159296831602768e+00 4.1960326379422748e+00 0.0000000000000000e+00  6.1826576044333796e+00 4.2161895143516928e+00 0.0000000000000000e+00  6.0775938735209625e+00 4.3436923974294359e+00 0.0000000000000000e+00  6.0215940049384118e+00 4.4410555094160982e+00 0.0000000000000000e+00  5.9358314963245444e+00 4.5250305199591399e+00 0.0000000000000000e+00  5.8875456691760020e+00 4.6023079243040348e+00 0.0000000000000000e+00  5.7791669470640272e+00 4.7338975451915273e+00 0.0000000000000000e+00  5.7439374972426984e+00 4.7958886421730442e+00 0.0000000000000000e+00  5.6529452436152967e+00 4.8925225246999782e+00 0.0000000000000000e+00  5.5931128260616108e+00 4.9975661871507642e+00 0.0000000000000000e+00  5.5084268182977008e+00 5.0984572357026652e+00 0.0000000000000000e+00  5.4746822122375800e+00 5.1337296892907087e+00 0.0000000000000000e+00  5.3652600825997645e+00 5.3184184699055246e+00 0.0000000000000000e+00  5.3280915918005753e+00 5.3221390747964614e+00 0.0000000000000000e+00  5.2551227043568165e+00 5.4627258489419450e+00 0.0000000000000000e+00  5.1913541663246185e+00 5.5361748228914474e+00 0.0000000000000000e+00  5.1103243517493668e+00 5.6456271286735671e+00 0.0000000000000000e+00  5.0868348634006662e+00 5.6865305149396601e+00 0.0000000000000000e+00  4.9494661762717742e+00 5.8846663571706426e+00 0.0000000000000000e+00  4.9434961536074233e+00 5.8766300892744070e+00 0.0000000000000000e+00  4.8769612322046303e+00 5.9911042529280278e+00 0.0000000000000000e+00  4.7372084711899696e+00 6.1838695768125902e+00 0.0000000000000000e+00  4.7343256826255704e+00 6.1752553364671448e+00 0.0000000000000000e+00  4.7249834815123064e+00 6.2196116830727108e+00 0.0000000000000000e+00  4.4521475947690545e+00 6.5753508548176391e+00 0.0000000000000000e+00  4.5839982521013685e+00 6.4247676698507945e+00 0.0000000000000000e+00  4.5004872729078143e+00 6.5159806382582621e+00 0.0000000000000000e+00  4.4142793620343088e+00 6.6698595707050137e+00 0.0000000000000000e+00  4.3474605265674562e+00 6.7605483911964601e+00 0.0000000000000000e+00  4.2524769422933888e+00 6.8935927094685168e+00 0.0000000000000000e+00  4.2135258285151806e+00 6.9557405203048406e+00 0.0000000000000000e+00  4.1503587926191008e+00 7.0484518932043327e+00 0.0000000000000000e+00  4.1196448663182990e+00 7.1188014996141433e+00 0.0000000000000000e+00  3.9642072282367362e+00 7.3109691620387514e+00 0.0000000000000000e+00  4.0116214731061373e+00 7.3123082865868092e+00 0.0000000000000000e+00  3.8337136923638213e+00 7.5108191450758426e+00 0.0000000000000000e+00  3.9428171516452717e+00 7.4117399301505529e+00 0.0000000000000000e+00  3.8466795534113771e+00 7.5484553727643879e+00 0.0000000000000000e+00  3.7219588063436810e+00 7.6959202487339367e+00 0.0000000000000000e+00  3.6668944361977593e+00 7.8368856996676577e+00 0.0000000000000000e+00  3.6489664248326812e+00 7.7868899637734188e+00 0.0000000000000000e+00  3.9400402309859359e+00 7.3990743216102102e+00 0.0000000000000000e+00  3.8494837454582833e+00 7.4765824408616330e+00 0.0000000000000000e+00  3.9475982944860224e+00 7.3808415648356753e+00 0.0000000000000000e+00  3.8077234358807006e+00 7.5312033613797151e+00 0.0000000000000000e+00  3.9257102931976506e+00 7.3963518644012805e+00 0.0000000000000000e+00  3.8874223097180267e+00 7.4359032663830131e+00 0.0000000000000000e+00  3.8960401029504013e+00 7.4222410861326260e+00 0.0000000000000000e+00  3.9038441268329924e+00 7.4079494763305842e+00 0.0000000000000000e+00  3.9135945038214759e+00 7.3951061480714664e+00 0.0000000000000000e+00  3.9092843399637092e+00 7.4032824198378027e+00 0.0000000000000000e+00  3.9003616171574698e+00 7.4038786558878789e+00 0.0000000000000000e+00  3.8952788928639990e+00 7.4202261997898926e+00 0.0000000000000000e+00  3.8598532568104713e+00 7.4431794644899378e+00 0.0000000000000000e+00  3.8826983538655515e+00 7.4242551162007109e+00 0.0000000000000000e+00  3.9249924526916637e+00 7.3630031129984692e+00 0.0000000000000000e+00  4.0019669631101014e+00 7.2990751030475050e+00 0.0000000000000000e+00  4.0084971245015071e+00 7.2862694908303363e+00 0.0000000000000000e+00  4.0258303526985300e+00 7.2865731850877342e+00 0.0000000000000000e+00  4.0208971844018260e+00 7.2885161439947828e+00 0.0000000000000000e+00  4.0475828125187627e+00 7.2736134517494673e+00 0.0000000000000000e+00  4.0429513820257910e+00 7.2743338935897679e+00 0.0000000000000000e+00  4.0455308944975172e+00 7.2798626983385413e+00 0.0000000000000000e+00  4.0302472782326779e+00 7.2939777236361607e+00 0.0000000000000000e+00  4.0320466536145867e+00 7.2963597815674790e+00 0.0000000000000000e+00  4.0306784899040773e+00 7.2950091277888802e+00 0.0000000000000000e+00  4.0330496302940952e+00 7.2938085325707593e+00 0.0000000000000000e+00  4.0247179784477174e+00 7.3010124899239335e+00 0.0000000000000000e+00  4.0165535947455444e+00 7.3096183641971368e+00 0.0000000000000000e+00  4.0088525355212514e+00 7.3165153062861972e+00 0.0000000000000000e+00  4.0073249452351565e+00 7.3175584679686283e+00 0.0000000000000000e+00  4.0091676106767142e+00 7.3131324937332876e+00 0.0000000000000000e+00  4.0111103074856844e+00 7.3085621076158596e+00 0.0000000000000000e+00  4.0077619924948360e+00 7.3105379750183337e+00 0.0000000000000000e+00  4.0000337459797350e+00 7.3172701360789123e+00 0.0000000000000000e+00  3.9917626052296038e+00 7.3237680705323580e+00 0.0000000000000000e+00  3.9869829013305527e+00 7.3265888645793931e+00 0.0000000000000000e+00  3.9860012828729050e+00 7.3259338265380345e+00 0.0000000000000000e+00  3.9866041936331369e+00 7.3242804240071102e+00 0.0000000000000000e+00  3.9860298977041162e+00 7.3251095722725736e+00 0.0000000000000000e+00  3.9841889032375564e+00 7.3277320086742996e+00 0.0000000000000000e+00  3.9818600947374541e+00 7.3308252971146395e+00 0.0000000000000000e+00  3.9798187121314315e+00 7.3335304825566556e+00 0.0000000000000000e+00  3.9774172417509326e+00 7.3366650005105525e+00 0.0000000000000000e+00  3.9749143938454674e+00 7.3387437303502123e+00 0.0000000000000000e+00  3.9725978147227479e+00 7.3397047540041633e+00 0.0000000000000000e+00  3.9705481904528104e+00 7.3389589474191581e+00 0.0000000000000000e+00  3.9679517996971017e+00 7.3375931562303265e+00 0.0000000000000000e+00  3.9653879871375701e+00 7.3343397808193682e+00 0.0000000000000000e+00  3.9626293931155212e+00 7.3300953579287915e+00 0.0000000000000000e+00  3.9592549386017764e+00 7.3243341827922679e+00 0.0000000000000000e+00  3.9551686034720190e+00 7.3176021216238158e+00 0.0000000000000000e+00  3.9508115923477525e+00 7.3079648889717950e+00 0.0000000000000000e+00  3.9444609402334962e+00 7.2955165039454108e+00 0.0000000000000000e+00  3.9341813406224277e+00 7.2766972935333269e+00 0.0000000000000000e+00  3.9158672466469078e+00 7.2452005727006590e+00 0.0000000000000000e+00  3.8806451602208987e+00 7.1861126218809943e+00 0.0000000000000000e+00  3.8069667726095018e+00 7.0666442851715114e+00 0.0000000000000000e+00  3.6489341273495897e+00 6.8048036407490837e+00 0.0000000000000000e+00  3.3284391623082668e+00 6.2418331137583900e+00 0.0000000000000000e+00  2.7288512760777923e+00 5.0462694678257556e+00 0.0000000000000000e+00  1.8156287146838042e+00 2.6890703330826060e+00 0.0000000000000000e+00  1.0863702073401635e+00 2.1847555301538540e-01 0.0000000000000000e+00  9.9605317372154201e-01 5.2930892922766776e-03 0.0000000000000000e+00  1.0004002380295132e+00 -1.6446874928592241e-03 0.0000000000000000e+00  1.0000579395996916e+00 -2.8626393577241136e-04 0.0000000000000000e+00  9.9992666302670474e-01 2.9271037810275267e-04 0.0000000000000000e+00  1.0000269361579066e+00 -1.3828261996901329e-04 0.0000000000000000e+00  9.9999280514199873e-01 6.5048988630500251e-05 0.0000000000000000e+00  1.0000042254114379e+00 -4.5451982539194857e-05 0.0000000000000000e+00  9.9999403817823440e-01 4.2065578461432642e-05 0.0000000000000000e+00  1.0000078834852075e+00 -4.0913673874654448e-05 0.0000000000000000e+00  9.9999105549563894e-01 3.8672871154189779e-05 0.0000000000000000e+00  1.0000090340713410e+00 -3.4835333560077394e-05 0.0000000000000000e+00  9.9999166590535804e-01 2.9747898096507710e-05 0.0000000000000000e+00  1.0000071714607730e+00 -2.4187076700768594e-05 0.0000000000000000e+00  9.9999411748682832e-01 1.8959362037204255e-05 0.0000000000000000e+00  1.0000046873426955e+00 -1.4537189327183827e-05 0.0000000000000000e+00  9.9999631696207059e-01 1.1031389530427435e-05 0.0000000000000000e+00  1.0000028531794611e+00 -8.2633667638583012e-06 0.0000000000000000e+00  9.9999780043804942e-01 6.1367378827052990e-06 0.0000000000000000e+00  1.0000016341079210e+00 -4.3639764586892866e-06 0.0000000000000000e+00  9.9999878637440798e-01 3.2037632405327860e-06 0.0000000000000000e+00  1.0000007887174647e+00 -2.1013070002621360e-06 0.0000000000000000e+00  9.9999937401521821e-01 1.9041713445472063e-06 0.0000000000000000e+00  1.0000003513379228e+00 -8.4506916104214265e-07 0.0000000000000000e+00  1.0000000233842914e+00 0.0000000000000000e+00 -3.5848528909289584e-07  9.9999956352573527e-01 0.0000000000000000e+00 3.2227736467727295e-07  1.0000000162761120e+00 0.0000000000000000e+00 2.6698195007885332e-08  9.9999950171055774e-01 0.0000000000000000e+00 -5.5209390571362747e-07  9.9999995234604544e-01 0.0000000000000000e+00 -2.0552771726011653e-07  9.9999992768949564e-01 0.0000000000000000e+00 -2.8390980252074080e-07  1.0000000226361143e+00 0.0000000000000000e+00 5.0085673187533073e-07  9.9999955456275835e-01 0.0000000000000000e+00 -7.7776533209626309e-07  1.0000000171735595e+00 0.0000000000000000e+00 -2.0891282923334141e-07  1.0000003454368198e+00 0.0000000000000000e+00 -5.7262256446186466e-07  9.9999987915483723e-01 0.0000000000000000e+00 1.1317334804020390e-07  9.9999998124356870e-01 0.0000000000000000e+00 -7.3744476238802419e-07  1.0000005327549970e+00 0.0000000000000000e+00 6.1461339932270041e-07  1.0000001663261431e+00 0.0000000000000000e+00 -1.7466254552821962e-07  9.9999957757743396e-01 0.0000000000000000e+00 8.0081631515754328e-07  1.0000003064672716e+00 0.0000000000000000e+00 -8.4803015151737881e-07  1.0000001377699066e+00 0.0000000000000000e+00 5.2882739083526518e-07  9.9999980873168548e-01 0.0000000000000000e+00 -4.9822977481239699e-07  9.9999995715396028e-01 0.0000000000000000e+00 1.7254742437498847e-07  1.0000004156756790e+00 0.0000000000000000e+00 -8.8120981939358272e-07  9.9999993263731568e-01 0.0000000000000000e+00 9.3760112020000827e-07  9.9999988638692250e-01 0.0000000000000000e+00 -5.2424742818204283e-07  9.9999995676355213e-01 0.0000000000000000e+00 6.3095693350561151e-08  1.0000001953813447e+00 0.0000000000000000e+00 -3.9166600286810015e-07  9.9999993135766085e-01 0.0000000000000000e+00 3.6848057467585531e-07  9.9999996394999657e-01 0.0000000000000000e+00 -1.1103275181397681e-07  9.9999995732874847e-01 0.0000000000000000e+00 1.0422698421714775e-08  1.0000000227632064e+00 0.0000000000000000e+00 -6.4982451738433967e-08  9.9999994592902652e-01 0.0000000000000000e+00 1.1446747785226208e-07  9.9999996912225542e-01 0.0000000000000000e+00 -6.7878393924869588e-08  9.9999996578315631e-01 0.0000000000000000e+00 8.4026843977912337e-09  1.0000000061476391e+00 0.0000000000000000e+00 -7.0783064861829329e-08  9.9999998092701958e-01 0.0000000000000000e+00 4.7350964646126480e-08  9.9999999141235774e-01 0.0000000000000000e+00 4.9884099696842579e-09  9.9999997056345724e-01 0.0000000000000000e+00 1.1836310905136976e-08  9.9999997136120644e-01 0.0000000000000000e+00 -2.3582780781109739e-08  9.9999999694090336e-01 0.0000000000000000e+00 -3.3993160775789955e-09  9.9999998161057824e-01 0.0000000000000000e+00 -5.1407721502196021e-08  1.0000000051157798e+00 0.0000000000000000e+00 4.2960253310242394e-08  1.0000000225854135e+00 -4.9497798746035497e-08 0.0000000000000000e+00  9.9999995937994979e-01 1.3967284999681978e-07 0.0000000000000000e+00  1.0000000549405723e+00 -1.5912100838055749e-07 0.0000000000000000e+00  9.9999994289530880e-01 1.6305282133695199e-07 0.0000000000000000e+00  1.0000000761221546e+00 -2.1404706381871881e-07 0.0000000000000000e+00  9.9999993262784614e-01 1.4981552604632296e-07 0.0000000000000000e+00  1.0000000909475282e+00 1.9744620180218429e-07 0.0000000000000000e+00  9.9999986288483533e-01 -4.7813926479976189e-07 0.0000000000000000e+00  1.0000005872138367e+00 -1.0111757610140699e-06 0.0000000000000000e+00  9.9999816865823266e-01 3.4659999504658859e-06 0.0000000000000000e+00  1.0000029435042459e+00 -8.5227591942442063e-06 0.0000000000000000e+00  9.9999530214243115e-01 1.4074432169864673e-05 0.0000000000000000e+00  1.0000055004540254e+00 -1.8145375098170020e-05 0.0000000000000000e+00  9.9999352111004436e-01 2.2640789307665248e-05 0.0000000000000000e+00  1.0000073530757578e+00 -2.5640088202494603e-05 0.0000000000000000e+00  9.9999449801129126e-01 1.5755364259603899e-05 0.0000000000000000e+00  9.9999530674293169e-01 2.3968894114465983e-05 0.0000000000000000e+00  1.0000223649958080e+00 -8.2431326653798585e-05 0.0000000000000000e+00  9.9996346369020395e-01 1.3122934698055422e-04 0.0000000000000000e+00  1.0000320974178429e+00 -1.6427214473682103e-04 0.0000000000000000e+00  9.9994570820317796e-01 2.9764986262324501e-04 0.0000000000000000e+00  1.0004179003538012e+00 -2.0379070008828127e-03 0.0000000000000000e+00  9.9596378435149147e-01 1.3605708707824695e-03 0.0000000000000000e+00  1.1573512672691169e+00 4.6237875906590414e-01 0.0000000000000000e+00  1.9950269145078585e+00 3.2078373469139221e+00 0.0000000000000000e+00  2.8704575723627026e+00 5.3026141506320368e+00 0.0000000000000000e+00  3.4139578098731191e+00 6.3218741028316874e+00 0.0000000000000000e+00  3.6922035240041038e+00 6.7889988193750552e+00 0.0000000000000000e+00  3.8401172152275778e+00 7.0061579330636237e+00 0.0000000000000000e+00  3.8791802617461300e+00 7.0586918258734013e+00 0.0000000000000000e+00  3.9203780354991737e+00 7.0984261355312599e+00 0.0000000000000000e+00  3.9426133103383165e+00 7.0832419733206242e+00 0.0000000000000000e+00  3.9482235164402368e+00 7.1143761260615292e+00 0.0000000000000000e+00  3.9238338012893981e+00 7.0882518967625341e+00 0.0000000000000000e+00  3.9736317918715551e+00 7.0715948362883534e+00 0.0000000000000000e+00  3.9335952613481280e+00 7.0729554578399298e+00 0.0000000000000000e+00  3.9398942593218744e+00 6.9058949890597425e+00 0.0000000000000000e+00  3.9394450746090626e+00 7.0192304504678180e+00 0.0000000000000000e+00  3.9465253412793264e+00 7.1630210463859996e+00 0.0000000000000000e+00  3.9433533482674594e+00 7.0702826820512303e+00 0.0000000000000000e+00  3.9318415560591911e+00 7.0741842640961989e+00 0.0000000000000000e+00  3.9544286755520917e+00 7.1677472