<?xml version="1.0"?>
<VTKFile type="UnstructuredGrid"  version="0.1"  >
<UnstructuredGrid>
<Piece  NumberOfPoints="9509" NumberOfCells="18536">
<Points>
<DataArray  type="Float64"  NumberOfComponents="3"  format="ascii">-5 -1 0  5 -1 0  5 1 0  -5 1 0  -4.949999999999965 -1 0  -4.899999999999877 -1 0  -4.849999999999826 -1 0  -4.799999999999754 -1 0  -4.749999999999695 -1 0  -4.69999999999963 -1 0  -4.649999999999565 -1 0  -4.599999999999507 -1 0  -4.549999999999454 -1 0  -4.499999999999384 -1 0  -4.449999999999317 -1 0  -4.399999999999261 -1 0  -4.349999999999206 -1 0  -4.299999999999137 -1 0  -4.249999999999075 -1 0  -4.199999999999013 -1 0  -4.149999999998934 -1 0  -4.09999999999889 -1 0  -4.049999999998847 -1 0  -3.999999999998767 -1 0  -3.949999999998706 -1 0  -3.899999999998644 -1 0  -3.849999999998594 -1 0  -3.799999999998552 -1 0  -3.749999999998549 -1 0  -3.699999999998651 -1 0  -3.649999999998804 -1 0  -3.59999999999894 -1 0  -3.549999999999097 -1 0  -3.499999999999261 -1 0  -3.449999999999394 -1 0  -3.399999999999582 -1 0  -3.349999999999742 -1 0  -3.299999999999902 -1 0  -3.25000000000006 -1 0  -3.200000000000223 -1 0  -3.150000000000369 -1 0  -3.100000000000544 -1 0  -3.050000000000704 -1 0  -3.000000000000864 -1 0  -2.950000000001029 -1 0  -2.900000000001185 -1 0  -2.850000000001347 -1 0  -2.800000000001506 -1 0  -2.750000000001665 -1 0  -2.700000000001827 -1 0  -2.650000000001979 -1 0  -2.600000000002148 -1 0  -2.550000000002311 -1 0  -2.500000000002468 -1 0  -2.450000000002635 -1 0  -2.400000000002789 -1 0  -2.35000000000295 -1 0  -2.30000000000311 -1 0  -2.250000000003253 -1 0  -2.200000000003431 -1 0  -2.150000000003601 -1 0  -2.100000000003752 -1 0  -2.050000000003922 -1 0  -2.000000000004072 -1 0  -1.950000000004237 -1 0  -1.900000000004393 -1 0  -1.850000000004541 -1 0  -1.800000000004714 -1 0  -1.750000000004886 -1 0  -1.700000000005035 -1 0  -1.650000000005206 -1 0  -1.600000000005355 -1 0  -1.550000000005516 -1 0  -1.500000000005676 -1 0  -1.450000000005824 -1 0  -1.400000000005996 -1 0  -1.350000000006146 -1 0  -1.300000000006318 -1 0  -1.250000000006505 -1 0  -1.200000000006638 -1 0  -1.150000000006797 -1 0  -1.100000000006959 -1 0  -1.050000000007106 -1 0  -1.000000000007245 -1 0  -0.9500000000072193 -1 0  -0.9000000000072612 -1 0  -0.8500000000071966 -1 0  -0.8000000000071381 -1 0  -0.750000000007085 -1 0  -0.700000000007015 -1 0  -0.6500000000069521 -1 0  -0.6000000000068919 -1 0  -0.5500000000068104 -1 0  -0.5000000000067688 -1 0  -0.4500000000067104 -1 0  -0.4000000000066457 -1 0  -0.3500000000065757 -1 0  -0.3000000000065226 -1 0  -0.2500000000064961 -1 0  -0.2000000000063995 -1 0  -0.1500000000063775 -1 0  -0.1000000000062764 -1 0  -0.0500000000062597 -1 0  -6.153300091682468e-12 -1 0  0.04999999999390781 -1 0  0.09999999999396891 -1 0  0.14999999999403 -1 0  0.1999999999940929 -1 0  0.2499999999941318 -1 0  0.299999999994216 -1 0  0.349999999994254 -1 0  0.3999999999943391 -1 0  0.4499999999944038 -1 0  0.4999999999944613 -1 0  0.5499999999945429 -1 0  0.5999999999945853 -1 0  0.6499999999946606 -1 0  0.6999999999947084 -1 0  0.7499999999947651 -1 0  0.7999999999948315 -1 0  0.8499999999948926 -1 0  0.8999999999949537 -1 0  0.9499999999950148 -1 0  0.9999999999950768 -1 0  1.049999999995139 -1 0  1.0999999999952 -1 0  1.149999999995266 -1 0  1.199999999995324 -1 0  1.249999999995385 -1 0  1.299999999995446 -1 0  1.349999999995488 -1 0  1.399999999995569 -1 0  1.449999999995604 -1 0  1.499999999995692 -1 0  1.549999999995753 -1 0  1.599999999995816 -1 0  1.649999999995892 -1 0  1.699999999995939 -1 0  1.749999999996017 -1 0  1.799999999996063 -1 0  1.849999999996111 -1 0  1.899999999996185 -1 0  1.949999999996246 -1 0  1.999999999996308 -1 0  2.049999999996351 -1 0  2.099999999996431 -1 0  2.149999999996504 -1 0  2.199999999996555 -1 0  2.249999999996616 -1 0  2.299999999996677 -1 0  2.349999999996736 -1 0  2.3999999999968 -1 0  2.449999999996847 -1 0  2.499999999996923 -1 0  2.549999999997 -1 0  2.599999999997047 -1 0  2.649999999997093 -1 0  2.69999999999717 -1 0  2.749999999997245 -1 0  2.799999999997293 -1 0  2.849999999997344 -1 0  2.899999999997416 -1 0  2.949999999997469 -1 0  2.999999999997539 -1 0  3.049999999997576 -1 0  3.099999999997662 -1 0  3.149999999997725 -1 0  3.199999999997784 -1 0  3.249999999997829 -1 0  3.299999999997908 -1 0  3.349999999997921 -1 0  3.39999999999803 -1 0  3.4499999999981 -1 0  3.499999999998153 -1 0  3.549999999998214 -1 0  3.599999999998277 -1 0  3.649999999998409 -1 0  3.699999999998401 -1 0  3.749999999998444 -1 0  3.799999999998523 -1 0  3.849999999998602 -1 0  3.899999999998645 -1 0  3.949999999998658 -1 0  3.999999999998769 -1 0  4.049999999998814 -1 0  4.099999999998893 -1 0  4.149999999998883 -1 0  4.199999999999015 -1 0  4.249999999999064 -1 0  4.299999999999137 -1 0  4.349999999999152 -1 0  4.399999999999261 -1 0  4.44999999999933 -1 0  4.499999999999385 -1 0  4.549999999999446 -1 0  4.599999999999508 -1 0  4.649999999999633 -1 0  4.699999999999632 -1 0  4.749999999999723 -1 0  4.799999999999754 -1 0  4.849999999999801 -1 0  4.899999999999876 -1 0  4.949999999999925 -1 0  5 -0.950000000000111 0  5 -0.9000000000002774 0  5 -0.8500000000004283 0  5 -0.8000000000005548 0  5 -0.7500000000006787 0  5 -0.7000000000008322 0  5 -0.6500000000009709 0  5 -0.6000000000011096 0  5 -0.5500000000012484 0  5 -0.500000000001387 0  5 -0.4500000000015256 0  5 -0.4000000000016644 0  5 -0.3500000000018031 0  5 -0.3000000000019418 0  5 -0.2500000000020806 0  5 -0.2000000000022192 0  5 -0.1500000000023578 0  5 -0.1000000000024964 0  5 -0.05000000000262439 0  5 -2.752242878045763e-12 0  5 0.0499999999973757 0  5 0.09999999999750342 0  5 0.1499999999976422 0  5 0.1999999999977808 0  5 0.2499999999979194 0  5 0.2999999999980583 0  5 0.3499999999981969 0  5 0.3999999999983355 0  5 0.4499999999984743 0  5 0.4999999999986129 0  5 0.5499999999987515 0  5 0.5999999999988903 0  5 0.6499999999990291 0  5 0.699999999999168 0  5 0.7499999999993068 0  5 0.7999999999994454 0  5 0.849999999999584 0  5 0.8999999999997226 0  5 0.9499999999998612 0  4.949999999999965 1 0  4.899999999999877 1 0  4.849999999999826 1 0  4.799999999999754 1 0  4.749999999999695 1 0  4.69999999999963 1 0  4.649999999999565 1 0  4.599999999999507 1 0  4.549999999999454 1 0  4.499999999999384 1 0  4.449999999999317 1 0  4.399999999999261 1 0  4.349999999999206 1 0  4.299999999999137 1 0  4.249999999999075 1 0  4.199999999999013 1 0  4.149999999998934 1 0  4.09999999999889 1 0  4.049999999998847 1 0  3.999999999998767 1 0  3.949999999998706 1 0  3.899999999998644 1 0  3.849999999998594 1 0  3.799999999998552 1 0  3.749999999998549 1 0  3.699999999998651 1 0  3.649999999998804 1 0  3.59999999999894 1 0  3.549999999999097 1 0  3.499999999999261 1 0  3.449999999999394 1 0  3.399999999999582 1 0  3.349999999999742 1 0  3.299999999999902 1 0  3.25000000000006 1 0  3.200000000000223 1 0  3.150000000000369 1 0  3.100000000000544 1 0  3.050000000000704 1 0  3.000000000000864 1 0  2.950000000001029 1 0  2.900000000001185 1 0  2.850000000001347 1 0  2.800000000001506 1 0  2.750000000001665 1 0  2.700000000001827 1 0  2.650000000001979 1 0  2.600000000002148 1 0  2.550000000002311 1 0  2.500000000002468 1 0  2.450000000002635 1 0  2.400000000002789 1 0  2.35000000000295 1 0  2.30000000000311 1 0  2.250000000003253 1 0  2.200000000003431 1 0  2.150000000003601 1 0  2.100000000003752 1 0  2.050000000003922 1 0  2.000000000004072 1 0  1.950000000004237 1 0  1.900000000004393 1 0  1.850000000004541 1 0  1.800000000004714 1 0  1.750000000004886 1 0  1.700000000005035 1 0  1.650000000005206 1 0  1.600000000005355 1 0  1.550000000005516 1 0  1.500000000005676 1 0  1.450000000005824 1 0  1.400000000005996 1 0  1.350000000006146 1 0  1.300000000006318 1 0  1.250000000006505 1 0  1.200000000006638 1 0  1.150000000006797 1 0  1.100000000006959 1 0  1.050000000007106 1 0  1.000000000007245 1 0  0.9500000000072193 1 0  0.9000000000072612 1 0  0.8500000000071966 1 0  0.8000000000071381 1 0  0.750000000007085 1 0  0.700000000007015 1 0  0.6500000000069521 1 0  0.6000000000068919 1 0  0.5500000000068104 1 0  0.5000000000067688 1 0  0.4500000000067104 1 0  0.4000000000066457 1 0  0.3500000000065757 1 0  0.3000000000065226 1 0  0.2500000000064961 1 0  0.2000000000063995 1 0  0.1500000000063775 1 0  0.1000000000062764 1 0  0.0500000000062597 1 0  6.153300091682468e-12 1 0  -0.04999999999390781 1 0  -0.09999999999396891 1 0  -0.14999999999403 1 0  -0.1999999999940929 1 0  -0.2499999999941318 1 0  -0.299999999994216 1 0  -0.349999999994254 1 0  -0.3999999999943391 1 0  -0.4499999999944038 1 0  -0.4999999999944613 1 0  -0.5499999999945429 1 0  -0.5999999999945853 1 0  -0.6499999999946606 1 0  -0.6999999999947084 1 0  -0.7499999999947651 1 0  -0.7999999999948315 1 0  -0.8499999999948926 1 0  -0.8999999999949537 1 0  -0.9499999999950148 1 0  -0.9999999999950768 1 0  -1.049999999995139 1 0  -1.0999999999952 1 0  -1.149999999995266 1 0  -1.199999999995324 1 0  -1.249999999995385 1 0  -1.299999999995446 1 0  -1.349999999995488 1 0  -1.399999999995569 1 0  -1.449999999995604 1 0  -1.499999999995692 1 0  -1.549999999995753 1 0  -1.599999999995816 1 0  -1.649999999995892 1 0  -1.699999999995939 1 0  -1.749999999996017 1 0  -1.799999999996063 1 0  -1.849999999996111 1 0  -1.899999999996185 1 0  -1.949999999996246 1 0  -1.999999999996308 1 0  -2.049999999996351 1 0  -2.099999999996431 1 0  -2.149999999996504 1 0  -2.199999999996555 1 0  -2.249999999996616 1 0  -2.299999999996677 1 0  -2.349999999996736 1 0  -2.3999999999968 1 0  -2.449999999996847 1 0  -2.499999999996923 1 0  -2.549999999997 1 0  -2.599999999997047 1 0  -2.649999999997093 1 0  -2.69999999999717 1 0  -2.749999999997245 1 0  -2.799999999997293 1 0  -2.849999999997344 1 0  -2.899999999997416 1 0  -2.949999999997469 1 0  -2.999999999997539 1 0  -3.049999999997576 1 0  -3.099999999997662 1 0  -3.149999999997725 1 0  -3.199999999997784 1 0  -3.249999999997829 1 0  -3.29999
[...]
<PointData  Vectors="(h, u)"> 
<DataArray  type="Float64"  Name="(h, u)"  NumberOfComponents="3" format="ascii">9.9636150518101978e+00 0.0000000000000000e+00 0.0000000000000000e+00  9.9999999446755272e-01 0.0000000000000000e+00 0.0000000000000000e+00  9.9999999982983268e-01 0.0000000000000000e+00 0.0000000000000000e+00  9.9721967546768688e+00 0.0000000000000000e+00 0.0000000000000000e+00  1.0026503488006162e+01 -7.0926880363967664e-03 0.0000000000000000e+00  9.9648028468160295e+00 -1.1748029087513066e-02 0.0000000000000000e+00  1.0012545158033348e+01 -2.9047647008476783e-03 0.0000000000000000e+00  9.9518717020369944e+00 6.6199663702171943e-03 0.0000000000000000e+00  1.0035928270811651e+01 -5.9673811621384343e-04 0.0000000000000000e+00  9.9584836565388350e+00 3.0727521845354106e-03 0.0000000000000000e+00  1.0004193560375045e+01 4.4227175887920356e-03 0.0000000000000000e+00  9.9770579640529196e+00 -4.0171610570100783e-02 0.0000000000000000e+00  9.9967294507454252e+00 2.8467827286424212e-02 0.0000000000000000e+00  9.9483068950850821e+00 1.1799067394571245e-02 0.0000000000000000e+00  1.0035688145408338e+01 -3.2617306340285236e-02 0.0000000000000000e+00  9.9428746361598321e+00 2.2138530960553810e-02 0.0000000000000000e+00  9.9837435694285865e+00 1.0801662289420094e-02 0.0000000000000000e+00  1.0004010753578330e+01 -1.3494569594118244e-02 0.0000000000000000e+00  9.9733308681652399e+00 1.4377383872509156e-02 0.0000000000000000e+00  9.9417617251442429e+00 2.0102737277802391e-02 0.0000000000000000e+00  1.0038142930182323e+01 1.0220730369023647e-03 0.0000000000000000e+00  9.9334483459567604e+00 1.8070921027458338e-02 0.0000000000000000e+00  9.9610916346383593e+00 3.5003304445617882e-02 0.0000000000000000e+00  9.9962826055212251e+00 1.8240648781502482e-02 0.0000000000000000e+00  9.9495379290740118e+00 3.7736971259393626e-02 0.0000000000000000e+00  9.9065924387729325e+00 5.1248519448305219e-02 0.0000000000000000e+00  9.9990942609646396e+00 5.6370737451028018e-02 0.0000000000000000e+00  9.8897459988144725e+00 6.2918220238365297e-02 0.0000000000000000e+00  9.8946773703005544e+00 9.3135377878642858e-02 0.0000000000000000e+00  9.9200811434258309e+00 1.0468185320185655e-01 0.0000000000000000e+00  9.8663339036362903e+00 1.1858486956382006e-01 0.0000000000000000e+00  9.8018087019686888e+00 1.4944916249185625e-01 0.0000000000000000e+00  9.8708449357389636e+00 1.8856323792908722e-01 0.0000000000000000e+00  9.7580058290404601e+00 1.9240044321651115e-01 0.0000000000000000e+00  9.7389848926882348e+00 2.4561415945077480e-01 0.0000000000000000e+00  9.7336429608340218e+00 2.9279119234048323e-01 0.0000000000000000e+00  9.6766687777930720e+00 3.0823399371052329e-01 0.0000000000000000e+00  9.5888562048201216e+00 3.6265304471451437e-01 0.0000000000000000e+00  9.6235446139749996e+00 4.3959575247023619e-01 0.0000000000000000e+00  9.5059839394459491e+00 4.4531286615254478e-01 0.0000000000000000e+00  9.4682810696604989e+00 5.2375064778388025e-01 0.0000000000000000e+00  9.4261108515138474e+00 6.0435725124100115e-01 0.0000000000000000e+00  9.3652436771456831e+00 6.2529423864818212e-01 0.0000000000000000e+00  9.2624265251240328e+00 6.9983134167158800e-01 0.0000000000000000e+00  9.2623949722486536e+00 8.0842686594065905e-01 0.0000000000000000e+00  9.1411973424115871e+00 8.1947753211415741e-01 0.0000000000000000e+00  9.0915683422136819e+00 9.1522606777747473e-01 0.0000000000000000e+00  9.0215562888214240e+00 1.0228584303792991e+00 0.0000000000000000e+00  8.9529496169958662e+00 1.0488372844010760e+00 0.0000000000000000e+00  8.8470372669920039e+00 1.1390157101327352e+00 0.0000000000000000e+00  8.8187785981212965e+00 1.2658408019693888e+00 0.0000000000000000e+00  8.6967240951544298e+00 1.2874073149492082e+00 0.0000000000000000e+00  8.6386484560394248e+00 1.3902739689213237e+00 0.0000000000000000e+00  8.5554870826179545e+00 1.5171745252933730e+00 0.0000000000000000e+00  8.4764716221487504e+00 1.5489766669166443e+00 0.0000000000000000e+00  8.3737879908623558e+00 1.6475504575580378e+00 0.0000000000000000e+00  8.3277505187211922e+00 1.7882328171063075e+00 0.0000000000000000e+00  8.2060591189739771e+00 1.8112161098844297e+00 0.0000000000000000e+00  8.1422301943097040e+00 1.9315570054465454e+00 0.0000000000000000e+00  8.0546571997647991e+00 2.0515434585041743e+00 0.0000000000000000e+00  7.9692364444203676e+00 2.1086515892818860e+00 0.0000000000000000e+00  7.8681782849218020e+00 2.1951975350511312e+00 0.0000000000000000e+00  7.8137991043569412e+00 2.3565812557648265e+00 0.0000000000000000e+00  7.6940546763599409e+00 2.3791546344874064e+00 0.0000000000000000e+00  7.6257200408753478e+00 2.4970458560519000e+00 0.0000000000000000e+00  7.5368283719874336e+00 2.6492398957448540e+00 0.0000000000000000e+00  7.4508260242394737e+00 2.6656125275858020e+00 0.0000000000000000e+00  7.3499406765079645e+00 2.8111399722557029e+00 0.0000000000000000e+00  7.2905012294191289e+00 2.9241030508149044e+00 0.0000000000000000e+00  7.1767262611114200e+00 3.0038059660634788e+00 0.0000000000000000e+00  7.1060069410264255e+00 3.0566407132587377e+00 0.0000000000000000e+00  7.0150936892957958e+00 3.3025896855511863e+00 0.0000000000000000e+00  6.9338964342646134e+00 3.2139683881986465e+00 0.0000000000000000e+00  6.8366272431013257e+00 3.4722840970353577e+00 0.0000000000000000e+00  6.7697047515989164e+00 3.4797113386752594e+00 0.0000000000000000e+00  6.6668842880819996e+00 3.6567418052871403e+00 0.0000000000000000e+00  6.5971246202491249e+00 3.6572126687086359e+00 0.0000000000000000e+00  6.4999915027738231e+00 3.8858419813355183e+00 0.0000000000000000e+00  6.4290157702601025e+00 3.8926872456142956e+00 0.0000000000000000e+00  6.3317149360561249e+00 4.0286119130159310e+00 0.0000000000000000e+00  6.2603862567741446e+00 4.1535772588147699e+00 0.0000000000000000e+00  6.1624528462172083e+00 4.2483665449827495e+00 0.0000000000000000e+00  6.0991692949601237e+00 4.3119467791251687e+00 0.0000000000000000e+00  5.9892110394800824e+00 4.5044572672006780e+00 0.0000000000000000e+00  5.9331105924275453e+00 4.5440346675793277e+00 0.0000000000000000e+00  5.8338558231661661e+00 4.6528232380024983e+00 0.0000000000000000e+00  5.7575561172424052e+00 4.8040958156497409e+00 0.0000000000000000e+00  5.6737659812774668e+00 4.8834841137772225e+00 0.0000000000000000e+00  5.6113931040267060e+00 4.9486315757682240e+00 0.0000000000000000e+00  5.4928269725316943e+00 5.1532358085720098e+00 0.0000000000000000e+00  5.4637959583016480e+00 5.1539112453907103e+00 0.0000000000000000e+00  5.3567215016406902e+00 5.3118600705592769e+00 0.0000000000000000e+00  5.2723246416753922e+00 5.4205814424114767e+00 0.0000000000000000e+00  5.2238925344327827e+00 5.5085898815269578e+00 0.0000000000000000e+00  5.1580670364064805e+00 5.5613407285970773e+00 0.0000000000000000e+00  5.0126788176685935e+00 5.7978302248590969e+00 0.0000000000000000e+00  5.0180765177281215e+00 5.7727148408865858e+00 0.0000000000000000e+00  4.9307025548768557e+00 5.8983703713273075e+00 0.0000000000000000e+00  4.7603616750523230e+00 6.1323078026065554e+00 0.0000000000000000e+00  4.7988168235844988e+00 6.1020948761586524e+00 0.0000000000000000e+00  4.7213512576635930e+00 6.1742588277030848e+00 0.0000000000000000e+00  4.4909241018734622e+00 6.5422734132547573e+00 0.0000000000000000e+00  4.5725051241619195e+00 6.3999817754256112e+00 0.0000000000000000e+00  4.4909988646193169e+00 6.5394605656530160e+00 0.0000000000000000e+00  4.3716231143701716e+00 6.6855055786495665e+00 0.0000000000000000e+00  4.3514135676530108e+00 6.7639155392881349e+00 0.0000000000000000e+00  4.2266182987111725e+00 6.9043885340839974e+00 0.0000000000000000e+00  4.2020575408612126e+00 6.9727979344300008e+00 0.0000000000000000e+00  4.0797668657035953e+00 7.1233386265846965e+00 0.0000000000000000e+00  4.0413013109666407e+00 7.2045674585345738e+00 0.0000000000000000e+00  3.8982099102033465e+00 7.4123094784310819e+00 0.0000000000000000e+00  3.8671715875255215e+00 7.4622510898484684e+00 0.0000000000000000e+00  3.8600299860512552e+00 7.5199751117653344e+00 0.0000000000000000e+00  3.7931994933519486e+00 7.5623438800362823e+00 0.0000000000000000e+00  3.8049069754316736e+00 7.6237969648019686e+00 0.0000000000000000e+00  3.6083899828727257e+00 7.8459300338775808e+00 0.0000000000000000e+00  3.7977301947168063e+00 7.5830179060176262e+00 0.0000000000000000e+00  3.8051013093283408e+00 7.5176185552030903e+00 0.0000000000000000e+00  3.9194451250822451e+00 7.3838451022704072e+00 0.0000000000000000e+00  3.8804242083887712e+00 7.4243019181136676e+00 0.0000000000000000e+00  3.9035207375976824e+00 7.3910502046962598e+00 0.0000000000000000e+00  3.8483133942533390e+00 7.4633352867533933e+00 0.0000000000000000e+00  3.8697588209542806e+00 7.4161214007535365e+00 0.0000000000000000e+00  3.8993900394295773e+00 7.3941326816170907e+00 0.0000000000000000e+00  3.8773257362445719e+00 7.3960571067103738e+00 0.0000000000000000e+00  3.8849870989933843e+00 7.3983738532394554e+00 0.0000000000000000e+00  3.8770567126528688e+00 7.3915310952753162e+00 0.0000000000000000e+00  3.8946452120236268e+00 7.3843629236965622e+00 0.0000000000000000e+00  3.8833872247836916e+00 7.3788366669768894e+00 0.0000000000000000e+00  3.8919964498388682e+00 7.3742339154648455e+00 0.0000000000000000e+00  3.8655291085968946e+00 7.3907190039243620e+00 0.0000000000000000e+00  3.8534464951807399e+00 7.4057848150861574e+00 0.0000000000000000e+00  3.8471116431485668e+00 7.4017109739605420e+00 0.0000000000000000e+00  3.8762830200884131e+00 7.3686458089871198e+00 0.0000000000000000e+00  3.8979851088898765e+00 7.3402104038823710e+00 0.0000000000000000e+00  3.9082730633077447e+00 7.3314918498106874e+00 0.0000000000000000e+00  3.9064388357021023e+00 7.3334951926234115e+00 0.0000000000000000e+00  3.9149112919628544e+00 7.3258576920863767e+00 0.0000000000000000e+00  3.9282759050840705e+00 7.3130546424912932e+00 0.0000000000000000e+00  3.9388861092837257e+00 7.3055479552016349e+00 0.0000000000000000e+00  3.9418018749859836e+00 7.3061054077695546e+00 0.0000000000000000e+00  3.9424723182623054e+00 7.3078282710188756e+00 0.0000000000000000e+00  3.9457451728123507e+00 7.3056826694921284e+00 0.0000000000000000e+00  3.9511566316520530e+00 7.3012272543844849e+00 0.0000000000000000e+00  3.9547385648723301e+00 7.2988498727895044e+00 0.0000000000000000e+00  3.9542321274572569e+00 7.3006557320342482e+00 0.0000000000000000e+00  3.9507642371024292e+00 7.3053025777213261e+00 0.0000000000000000e+00  3.9479609719968849e+00 7.3081890142553414e+00 0.0000000000000000e+00  3.9485122541220448e+00 7.3068334378593516e+00 0.0000000000000000e+00  3.9511289774500065e+00 7.3042649517134439e+00 0.0000000000000000e+00  3.9527941757499012e+00 7.3039637085602696e+00 0.0000000000000000e+00  3.9526768550344946e+00 7.3058186961959510e+00 0.0000000000000000e+00  3.9505902725596456e+00 7.3099121989695046e+00 0.0000000000000000e+00  3.9472433517947119e+00 7.3148118113402774e+00 0.0000000000000000e+00  3.9439849479735387e+00 7.3183482373771405e+00 0.0000000000000000e+00  3.9417890879033770e+00 7.3195620118907749e+00 0.0000000000000000e+00  3.9396221248434329e+00 7.3197398531975084e+00 0.0000000000000000e+00  3.9374706065846321e+00 7.3179311389275377e+00 0.0000000000000000e+00  3.9353633102174310e+00 7.3145179069846442e+00 0.0000000000000000e+00  3.9331742289413385e+00 7.3090287469286803e+00 0.0000000000000000e+00  3.9298895270187915e+00 7.3021850877624610e+00 0.0000000000000000e+00  3.9256740369069587e+00 7.2920924710713351e+00 0.0000000000000000e+00  3.9188881400508526e+00 7.2772880433572480e+00 0.0000000000000000e+00  3.9062039839614551e+00 7.2517815275301905e+00 0.0000000000000000e+00  3.8808214227653997e+00 7.2070854247402512e+00 0.0000000000000000e+00  3.8288426308554420e+00 7.1173562749368191e+00 0.0000000000000000e+00  3.7179548985204760e+00 6.9301481344642708e+00 0.0000000000000000e+00  3.4831900555758804e+00 6.5239792341039049e+00 0.0000000000000000e+00  3.0147517099066468e+00 5.6437796164183540e+00 0.0000000000000000e+00  2.2387510319454900e+00 3.8774732800735081e+00 0.0000000000000000e+00  1.3015005759381231e+00 9.7435300758991783e-01 0.0000000000000000e+00  9.9866873454421834e-01 7.3957507205333142e-04 0.0000000000000000e+00  1.0007853244191538e+00 -3.4420843849332851e-03 0.0000000000000000e+00  9.9972370861586612e-01 8.5292816453442339e-04 0.0000000000000000e+00  9.9996343649197639e-01 4.9237448651208818e-05 0.0000000000000000e+00  1.0000898615484106e+00 -2.2041617480560152e-04 0.0000000000000000e+00  9.9992737521905417e-01 1.6914037051134347e-04 0.0000000000000000e+00  1.0000507828491099e+00 -1.0649472267202541e-04 0.0000000000000000e+00  9.9996354819548727e-01 6.8789065426207849e-05 0.0000000000000000e+00  1.0000274903516204e+00 -4.8350320285297893e-05 0.0000000000000000e+00  9.9997905385480190e-01 3.5260475902390823e-05 0.0000000000000000e+00  1.0000153960864360e+00 -2.4621201494207587e-05 0.0000000000000000e+00  9.9998941461993573e-01 1.5385029709357352e-05 0.0000000000000000e+00  1.0000067169400013e+00 -8.0778427821089602e-06 0.0000000000000000e+00  9.9999606008085506e-01 3.1736096639716391e-06 0.0000000000000000e+00  1.0000021652833773e+00 -4.8507819757374499e-07 0.0000000000000000e+00  9.9999886822908979e-01 -6.6308920762967241e-07 0.0000000000000000e+00  1.0000005542238304e+00 1.0032504202895378e-06 0.0000000000000000e+00  9.9999977548347219e-01 -1.0346220791195942e-06 0.0000000000000000e+00  1.0000000299830594e+00 9.8023674823507817e-07 0.0000000000000000e+00  1.0000000785773144e+00 -8.9201890154853965e-07 0.0000000000000000e+00  9.9999987487514130e-01 7.6886194894339183e-07 0.0000000000000000e+00  1.0000001294183951e+00 -6.1816484042714432e-07 0.0000000000000000e+00  9.9999988902180892e-01 4.6314594498946097e-07 0.0000000000000000e+00  1.0000000854131628e+00 -3.2734563235718693e-07 0.0000000000000000e+00  9.9999993796089148e-01 2.2310455949600767e-07 0.0000000000000000e+00  1.0000000438259378e+00 -1.4964908240477444e-07 0.0000000000000000e+00  9.9999996893101839e-01 1.0096709706673164e-07 0.0000000000000000e+00  1.0000000215344136e+00 -6.7177842492929623e-08 0.0000000000000000e+00  9.9999998489314013e-01 4.5862271626379032e-08 0.0000000000000000e+00  1.0000000093631500e+00 -2.8539352147729942e-08 0.0000000000000000e+00  9.9999999305232679e-01 2.2373614773664186e-08 0.0000000000000000e+00  1.0000000032609957e+00 -9.6391895821181207e-09 0.0000000000000000e+00  1.0000000005575562e+00 0.0000000000000000e+00 -4.1082226876336583e-09  9.9999999799345529e-01 0.0000000000000000e+00 3.2858371186828817e-10  1.0000000003828029e+00 0.0000000000000000e+00 3.4811206324965682e-09  9.9999999471599454e-01 0.0000000000000000e+00 -8.8320078917764104e-09  1.0000000005927037e+00 0.0000000000000000e+00 -4.4684344480529469e-09  1.0000000053334741e+00 0.0000000000000000e+00 -1.1603613426617565e-08  1.0000000013248902e+00 0.0000000000000000e+00 1.2509779289263187e-08  9.9999999583295540e-01 0.0000000000000000e+00 -1.4246189506595690e-08  1.0000000022086555e+00 0.0000000000000000e+00 -5.0659312134677834e-09  1.0000000157409681e+00 0.0000000000000000e+00 -1.9907684396250040e-08  9.9999999896429159e-01 0.0000000000000000e+00 2.4630842828886601e-09  1.0000000059949328e+00 0.0000000000000000e+00 -1.8501596480324756e-08  1.0000000183031408e+00 0.0000000000000000e+00 1.7007852993294208e-08  1.0000000118414876e+00 0.0000000000000000e+00 -6.4185868046632275e-09  9.9999998954885083e-01 0.0000000000000000e+00 2.4686012744560874e-08  1.0000000131273210e+00 0.0000000000000000e+00 -2.1798064236303447e-08  1.0000000054105489e+00 0.0000000000000000e+00 1.2983455100712390e-08  9.9999999795871519e-01 0.0000000000000000e+00 -1.0320451679636887e-08  9.9999999947663198e-01 0.0000000000000000e+00 7.8822257170654903e-09  1.0000000145904200e+00 0.0000000000000000e+00 -2.5636931022446553e-08  9.9999999823114616e-01 0.0000000000000000e+00 2.3535838126148029e-08  9.9999999961209607e-01 0.0000000000000000e+00 -1.0564680854119888e-08  9.9999999943579365e-01 0.0000000000000000e+00 3.1784002314917202e-09  1.0000000055310005e+00 0.0000000000000000e+00 -9.5149451134270573e-09  9.9999999855177046e-01 0.0000000000000000e+00 8.3614631144510008e-09  1.0000000000013376e+00 0.0000000000000000e+00 -2.3543538097295740e-09  9.9999999924111183e-01 0.0000000000000000e+00 1.0904034559336785e-09  1.0000000006455583e+00 0.0000000000000000e+00 -1.4642900414558870e-09  9.9999999896164604e-01 0.0000000000000000e+00 2.1627629464042486e-09  9.9999999966590969e-01 0.0000000000000000e+00 -1.3238294813038692e-09  9.9999999940100148e-01 0.0000000000000000e+00 3.0266291438400178e-10  1.0000000001859572e+00 0.0000000000000000e+00 -1.0026850164418509e-09  9.9999999973230480e-01 0.0000000000000000e+00 6.4744213279128269e-10  9.9999999987485344e-01 0.0000000000000000e+00 -1.3395462690103941e-11  9.9999999962242703e-01 0.0000000000000000e+00 9.2450977710912613e-11  9.9999999971624765e-01 0.0000000000000000e+00 -3.0262233501088130e-10  9.9999999997831679e-01 0.0000000000000000e+00 -9.8712717933253432e-11  9.9999999987441734e-01 0.0000000000000000e+00 -4.8656069461601616e-10  1.0000000001468843e+00 0.0000000000000000e+00 5.5699564874611610e-10  1.0000000003371594e+00 -7.7820743678864634e-10 0.0000000000000000e+00  9.9999999938389206e-01 2.2102199077348677e-09 0.0000000000000000e+00  1.0000000008009475e+00 -2.5055045836293073e-09 0.0000000000000000e+00  9.9999999952486474e-01 2.3814738032740198e-09 0.0000000000000000e+00  1.0000000000250953e+00 -5.0095019406174187e-11 0.0000000000000000e+00  1.0000000019846580e+00 -7.0605716598326391e-09 0.0000000000000000e+00  9.9999999744112322e-01 1.5881101641649729e-08 0.0000000000000000e+00  1.0000000013290649e+00 -1.9554450726129448e-08 0.0000000000000000e+00  1.0000000145600179e+00 -2.9183118087543868e-08 0.0000000000000000e+00  9.9999994216870558e-01 1.3203943505424494e-07 0.0000000000000000e+00  1.0000001028305889e+00 -3.2042162817738954e-07 0.0000000000000000e+00  9.9999984645013140e-01 4.8288158587192944e-07 0.0000000000000000e+00  1.0000001216863512e+00 -4.3874029793395313e-07 0.0000000000000000e+00  9.9999999584064514e-01 1.4113505264604066e-07 0.0000000000000000e+00  9.9999986508800787e-01 2.9892417205185035e-07 0.0000000000000000e+00  1.0000001385756754e+00 -7.6575238700440914e-07 0.0000000000000000e+00  1.0000000128525746e+00 1.2027412241060394e-06 0.0000000000000000e+00  9.9999972257953174e-01 6.0219280722643476e-07 0.0000000000000000e+00  1.0000016653648442e+00 -6.3067654879178332e-06 0.0000000000000000e+00  9.9999631580504722e-01 8.0890710916507445e-06 0.0000000000000000e+00  1.0000019278681984e+00 -3.0977503057638770e-06 0.0000000000000000e+00  1.0000009703559360e+00 -1.4248335181379547e-05 0.0000000000000000e+00  9.9999560102470220e-01 3.1427851482751253e-05 0.0000000000000000e+00  9.9999389203085887e-01 -1.4182957421081835e-05 0.0000000000000000e+00  1.0000379458979640e+00 -7.5601247961650721e-05 0.0000000000000000e+00  9.9990473338386976e-01 2.0934733241918745e-04 0.0000000000000000e+00  1.0001479823576167e+00 -3.8934618842975758e-04 0.0000000000000000e+00  9.9978336780100974e-01 5.3779937784009140e-04 0.0000000000000000e+00  1.0002896786312261e+00 -8.1774038909444456e-04 0.0000000000000000e+00  9.9945698855016230e-01 1.6376679065229004e-03 0.0000000000000000e+00  1.0007744355945105e+00 -2.6805883600640144e-03 0.0000000000000000e+00  1.0063718079107424e+00 8.9443810663144309e-03 0.0000000000000000e+00  1.3944102991540581e+00 1.3145164104200784e+00 0.0000000000000000e+00  2.3741870278825274e+00 4.1874140105660231e+00 0.0000000000000000e+00  3.1090502371004769e+00 5.7461124431644928e+00 0.0000000000000000e+00  3.5428084461296772e+00 6.5666739318861751e+00 0.0000000000000000e+00  3.7348625783925908e+00 6.7512702377030678e+00 0.0000000000000000e+00  3.8710424372129384e+00 6.9424838617353810e+00 0.0000000000000000e+00  3.9158358268859135e+00 7.0693420308684711e+00 0.0000000000000000e+00  3.9332934893592064e+00 7.0671679098577229e+00 0.0000000000000000e+00  3.9000062881474009e+00 7.0283591722755494e+00 0.0000000000000000e+00  3.96595778893359