<?xml version="1.0"?>
<VTKFile type="UnstructuredGrid"  version="0.1"  >
<UnstructuredGrid>
<Piece  NumberOfPoints="9509" NumberOfCells="18536">
<Points>
<DataArray  type="Float64"  NumberOfComponents="3"  format="ascii">-5 -1 0  5 -1 0  5 1 0  -5 1 0  -4.949999999999965 -1 0  -4.899999999999877 -1 0  -4.849999999999826 -1 0  -4.799999999999754 -1 0  -4.749999999999695 -1 0  -4.69999999999963 -1 0  -4.649999999999565 -1 0  -4.599999999999507 -1 0  -4.549999999999454 -1 0  -4.499999999999384 -1 0  -4.449999999999317 -1 0  -4.399999999999261 -1 0  -4.349999999999206 -1 0  -4.299999999999137 -1 0  -4.249999999999075 -1 0  -4.199999999999013 -1 0  -4.149999999998934 -1 0  -4.09999999999889 -1 0  -4.049999999998847 -1 0  -3.999999999998767 -1 0  -3.949999999998706 -1 0  -3.899999999998644 -1 0  -3.849999999998594 -1 0  -3.799999999998552 -1 0  -3.749999999998549 -1 0  -3.699999999998651 -1 0  -3.649999999998804 -1 0  -3.59999999999894 -1 0  -3.549999999999097 -1 0  -3.499999999999261 -1 0  -3.449999999999394 -1 0  -3.399999999999582 -1 0  -3.349999999999742 -1 0  -3.299999999999902 -1 0  -3.25000000000006 -1 0  -3.200000000000223 -1 0  -3.150000000000369 -1 0  -3.100000000000544 -1 0  -3.050000000000704 -1 0  -3.000000000000864 -1 0  -2.950000000001029 -1 0  -2.900000000001185 -1 0  -2.850000000001347 -1 0  -2.800000000001506 -1 0  -2.750000000001665 -1 0  -2.700000000001827 -1 0  -2.650000000001979 -1 0  -2.600000000002148 -1 0  -2.550000000002311 -1 0  -2.500000000002468 -1 0  -2.450000000002635 -1 0  -2.400000000002789 -1 0  -2.35000000000295 -1 0  -2.30000000000311 -1 0  -2.250000000003253 -1 0  -2.200000000003431 -1 0  -2.150000000003601 -1 0  -2.100000000003752 -1 0  -2.050000000003922 -1 0  -2.000000000004072 -1 0  -1.950000000004237 -1 0  -1.900000000004393 -1 0  -1.850000000004541 -1 0  -1.800000000004714 -1 0  -1.750000000004886 -1 0  -1.700000000005035 -1 0  -1.650000000005206 -1 0  -1.600000000005355 -1 0  -1.550000000005516 -1 0  -1.500000000005676 -1 0  -1.450000000005824 -1 0  -1.400000000005996 -1 0  -1.350000000006146 -1 0  -1.300000000006318 -1 0  -1.250000000006505 -1 0  -1.200000000006638 -1 0  -1.150000000006797 -1 0  -1.100000000006959 -1 0  -1.050000000007106 -1 0  -1.000000000007245 -1 0  -0.9500000000072193 -1 0  -0.9000000000072612 -1 0  -0.8500000000071966 -1 0  -0.8000000000071381 -1 0  -0.750000000007085 -1 0  -0.700000000007015 -1 0  -0.6500000000069521 -1 0  -0.6000000000068919 -1 0  -0.5500000000068104 -1 0  -0.5000000000067688 -1 0  -0.4500000000067104 -1 0  -0.4000000000066457 -1 0  -0.3500000000065757 -1 0  -0.3000000000065226 -1 0  -0.2500000000064961 -1 0  -0.2000000000063995 -1 0  -0.1500000000063775 -1 0  -0.1000000000062764 -1 0  -0.0500000000062597 -1 0  -6.153300091682468e-12 -1 0  0.04999999999390781 -1 0  0.09999999999396891 -1 0  0.14999999999403 -1 0  0.1999999999940929 -1 0  0.2499999999941318 -1 0  0.299999999994216 -1 0  0.349999999994254 -1 0  0.3999999999943391 -1 0  0.4499999999944038 -1 0  0.4999999999944613 -1 0  0.5499999999945429 -1 0  0.5999999999945853 -1 0  0.6499999999946606 -1 0  0.6999999999947084 -1 0  0.7499999999947651 -1 0  0.7999999999948315 -1 0  0.8499999999948926 -1 0  0.8999999999949537 -1 0  0.9499999999950148 -1 0  0.9999999999950768 -1 0  1.049999999995139 -1 0  1.0999999999952 -1 0  1.149999999995266 -1 0  1.199999999995324 -1 0  1.249999999995385 -1 0  1.299999999995446 -1 0  1.349999999995488 -1 0  1.399999999995569 -1 0  1.449999999995604 -1 0  1.499999999995692 -1 0  1.549999999995753 -1 0  1.599999999995816 -1 0  1.649999999995892 -1 0  1.699999999995939 -1 0  1.749999999996017 -1 0  1.799999999996063 -1 0  1.849999999996111 -1 0  1.899999999996185 -1 0  1.949999999996246 -1 0  1.999999999996308 -1 0  2.049999999996351 -1 0  2.099999999996431 -1 0  2.149999999996504 -1 0  2.199999999996555 -1 0  2.249999999996616 -1 0  2.299999999996677 -1 0  2.349999999996736 -1 0  2.3999999999968 -1 0  2.449999999996847 -1 0  2.499999999996923 -1 0  2.549999999997 -1 0  2.599999999997047 -1 0  2.649999999997093 -1 0  2.69999999999717 -1 0  2.749999999997245 -1 0  2.799999999997293 -1 0  2.849999999997344 -1 0  2.899999999997416 -1 0  2.949999999997469 -1 0  2.999999999997539 -1 0  3.049999999997576 -1 0  3.099999999997662 -1 0  3.149999999997725 -1 0  3.199999999997784 -1 0  3.249999999997829 -1 0  3.299999999997908 -1 0  3.349999999997921 -1 0  3.39999999999803 -1 0  3.4499999999981 -1 0  3.499999999998153 -1 0  3.549999999998214 -1 0  3.599999999998277 -1 0  3.649999999998409 -1 0  3.699999999998401 -1 0  3.749999999998444 -1 0  3.799999999998523 -1 0  3.849999999998602 -1 0  3.899999999998645 -1 0  3.949999999998658 -1 0  3.999999999998769 -1 0  4.049999999998814 -1 0  4.099999999998893 -1 0  4.149999999998883 -1 0  4.199999999999015 -1 0  4.249999999999064 -1 0  4.299999999999137 -1 0  4.349999999999152 -1 0  4.399999999999261 -1 0  4.44999999999933 -1 0  4.499999999999385 -1 0  4.549999999999446 -1 0  4.599999999999508 -1 0  4.649999999999633 -1 0  4.699999999999632 -1 0  4.749999999999723 -1 0  4.799999999999754 -1 0  4.849999999999801 -1 0  4.899999999999876 -1 0  4.949999999999925 -1 0  5 -0.950000000000111 0  5 -0.9000000000002774 0  5 -0.8500000000004283 0  5 -0.8000000000005548 0  5 -0.7500000000006787 0  5 -0.7000000000008322 0  5 -0.6500000000009709 0  5 -0.6000000000011096 0  5 -0.5500000000012484 0  5 -0.500000000001387 0  5 -0.4500000000015256 0  5 -0.4000000000016644 0  5 -0.3500000000018031 0  5 -0.3000000000019418 0  5 -0.2500000000020806 0  5 -0.2000000000022192 0  5 -0.1500000000023578 0  5 -0.1000000000024964 0  5 -0.05000000000262439 0  5 -2.752242878045763e-12 0  5 0.0499999999973757 0  5 0.09999999999750342 0  5 0.1499999999976422 0  5 0.1999999999977808 0  5 0.2499999999979194 0  5 0.2999999999980583 0  5 0.3499999999981969 0  5 0.3999999999983355 0  5 0.4499999999984743 0  5 0.4999999999986129 0  5 0.5499999999987515 0  5 0.5999999999988903 0  5 0.6499999999990291 0  5 0.699999999999168 0  5 0.7499999999993068 0  5 0.7999999999994454 0  5 0.849999999999584 0  5 0.8999999999997226 0  5 0.9499999999998612 0  4.949999999999965 1 0  4.899999999999877 1 0  4.849999999999826 1 0  4.799999999999754 1 0  4.749999999999695 1 0  4.69999999999963 1 0  4.649999999999565 1 0  4.599999999999507 1 0  4.549999999999454 1 0  4.499999999999384 1 0  4.449999999999317 1 0  4.399999999999261 1 0  4.349999999999206 1 0  4.299999999999137 1 0  4.249999999999075 1 0  4.199999999999013 1 0  4.149999999998934 1 0  4.09999999999889 1 0  4.049999999998847 1 0  3.999999999998767 1 0  3.949999999998706 1 0  3.899999999998644 1 0  3.849999999998594 1 0  3.799999999998552 1 0  3.749999999998549 1 0  3.699999999998651 1 0  3.649999999998804 1 0  3.59999999999894 1 0  3.549999999999097 1 0  3.499999999999261 1 0  3.449999999999394 1 0  3.399999999999582 1 0  3.349999999999742 1 0  3.299999999999902 1 0  3.25000000000006 1 0  3.200000000000223 1 0  3.150000000000369 1 0  3.100000000000544 1 0  3.050000000000704 1 0  3.000000000000864 1 0  2.950000000001029 1 0  2.900000000001185 1 0  2.850000000001347 1 0  2.800000000001506 1 0  2.750000000001665 1 0  2.700000000001827 1 0  2.650000000001979 1 0  2.600000000002148 1 0  2.550000000002311 1 0  2.500000000002468 1 0  2.450000000002635 1 0  2.400000000002789 1 0  2.35000000000295 1 0  2.30000000000311 1 0  2.250000000003253 1 0  2.200000000003431 1 0  2.150000000003601 1 0  2.100000000003752 1 0  2.050000000003922 1 0  2.000000000004072 1 0  1.950000000004237 1 0  1.900000000004393 1 0  1.850000000004541 1 0  1.800000000004714 1 0  1.750000000004886 1 0  1.700000000005035 1 0  1.650000000005206 1 0  1.600000000005355 1 0  1.550000000005516 1 0  1.500000000005676 1 0  1.450000000005824 1 0  1.400000000005996 1 0  1.350000000006146 1 0  1.300000000006318 1 0  1.250000000006505 1 0  1.200000000006638 1 0  1.150000000006797 1 0  1.100000000006959 1 0  1.050000000007106 1 0  1.000000000007245 1 0  0.9500000000072193 1 0  0.9000000000072612 1 0  0.8500000000071966 1 0  0.8000000000071381 1 0  0.750000000007085 1 0  0.700000000007015 1 0  0.6500000000069521 1 0  0.6000000000068919 1 0  0.5500000000068104 1 0  0.5000000000067688 1 0  0.4500000000067104 1 0  0.4000000000066457 1 0  0.3500000000065757 1 0  0.3000000000065226 1 0  0.2500000000064961 1 0  0.2000000000063995 1 0  0.1500000000063775 1 0  0.1000000000062764 1 0  0.0500000000062597 1 0  6.153300091682468e-12 1 0  -0.04999999999390781 1 0  -0.09999999999396891 1 0  -0.14999999999403 1 0  -0.1999999999940929 1 0  -0.2499999999941318 1 0  -0.299999999994216 1 0  -0.349999999994254 1 0  -0.3999999999943391 1 0  -0.4499999999944038 1 0  -0.4999999999944613 1 0  -0.5499999999945429 1 0  -0.5999999999945853 1 0  -0.6499999999946606 1 0  -0.6999999999947084 1 0  -0.7499999999947651 1 0  -0.7999999999948315 1 0  -0.8499999999948926 1 0  -0.8999999999949537 1 0  -0.9499999999950148 1 0  -0.9999999999950768 1 0  -1.049999999995139 1 0  -1.0999999999952 1 0  -1.149999999995266 1 0  -1.199999999995324 1 0  -1.249999999995385 1 0  -1.299999999995446 1 0  -1.349999999995488 1 0  -1.399999999995569 1 0  -1.449999999995604 1 0  -1.499999999995692 1 0  -1.549999999995753 1 0  -1.599999999995816 1 0  -1.649999999995892 1 0  -1.699999999995939 1 0  -1.749999999996017 1 0  -1.799999999996063 1 0  -1.849999999996111 1 0  -1.899999999996185 1 0  -1.949999999996246 1 0  -1.999999999996308 1 0  -2.049999999996351 1 0  -2.099999999996431 1 0  -2.149999999996504 1 0  -2.199999999996555 1 0  -2.249999999996616 1 0  -2.299999999996677 1 0  -2.349999999996736 1 0  -2.3999999999968 1 0  -2.449999999996847 1 0  -2.499999999996923 1 0  -2.549999999997 1 0  -2.599999999997047 1 0  -2.649999999997093 1 0  -2.69999999999717 1 0  -2.749999999997245 1 0  -2.799999999997293 1 0  -2.849999999997344 1 0  -2.899999999997416 1 0  -2.949999999997469 1 0  -2.999999999997539 1 0  -3.049999999997576 1 0  -3.099999999997662 1 0  -3.149999999997725 1 0  -3.199999999997784 1 0  -3.249999999997829 1 0  -3.29999
[...]
<PointData  Vectors="(h, u)"> 
<DataArray  type="Float64"  Name="(h, u)"  NumberOfComponents="3" format="ascii">9.9929232689623841e+00 0.0000000000000000e+00 0.0000000000000000e+00  9.9999999999999978e-01 0.0000000000000000e+00 0.0000000000000000e+00  9.9999999999999944e-01 0.0000000000000000e+00 0.0000000000000000e+00  9.9979342003962497e+00 0.0000000000000000e+00 0.0000000000000000e+00  1.0003623406361427e+01 2.0457185915829443e-03 0.0000000000000000e+00  9.9936871779832455e+00 -3.5015340539472643e-03 0.0000000000000000e+00  1.0002503139228857e+01 2.7325238611284109e-03 0.0000000000000000e+00  9.9926640898383159e+00 -1.9577128655138406e-03 0.0000000000000000e+00  1.0005144552932492e+01 2.1484321014069146e-03 0.0000000000000000e+00  9.9945344607543873e+00 -9.8157458889123919e-04 0.0000000000000000e+00  1.0000380681724396e+01 -5.3131143061940769e-03 0.0000000000000000e+00  9.9983349806176598e+00 2.3089527943277186e-03 0.0000000000000000e+00  1.0005541955685386e+01 9.8235531489959445e-03 0.0000000000000000e+00  9.9854677321266418e+00 -1.8635876829397602e-02 0.0000000000000000e+00  1.0013648483165303e+01 1.4076100597616948e-02 0.0000000000000000e+00  9.9946271939694071e+00 -2.1870527709925954e-03 0.0000000000000000e+00  9.9924271268394040e+00 -1.1906117015035911e-02 0.0000000000000000e+00  1.0008408311607575e+01 1.1264937296982216e-02 0.0000000000000000e+00  1.0005111103348142e+01 4.4190042738664961e-03 0.0000000000000000e+00  9.9753167186347262e+00 -2.4969815826548915e-02 0.0000000000000000e+00  1.0029557537808309e+01 2.9608907009698704e-02 0.0000000000000000e+00  9.9875954222968737e+00 -1.1037038996119330e-02 0.0000000000000000e+00  9.9849613008853506e+00 -1.7089797942079994e-02 0.0000000000000000e+00  1.0025411105516808e+01 2.7614127987283153e-02 0.0000000000000000e+00  9.9944423791727779e+00 -5.8062525337460287e-03 0.0000000000000000e+00  9.9689218435685696e+00 -3.2280480602791345e-02 0.0000000000000000e+00  1.0048967573299198e+01 5.1267647313807223e-02 0.0000000000000000e+00  9.9714531826203832e+00 -2.8542814494307921e-02 0.0000000000000000e+00  9.9833761522847251e+00 -1.8462681350898624e-02 0.0000000000000000e+00  1.0042513905658151e+01 4.6248000040001701e-02 0.0000000000000000e+00  9.9769132341088351e+00 -2.3331612628527117e-02 0.0000000000000000e+00  9.9707826361529968e+00 -3.2270579748530870e-02 0.0000000000000000e+00  1.0062778595300765e+01 6.9283485447119389e-02 0.0000000000000000e+00  9.9532011415649624e+00 -4.8675433185601170e-02 0.0000000000000000e+00  9.9912688287768425e+00 -1.0914584754467894e-02 0.0000000000000000e+00  1.0046657396473632e+01 5.4258110156302046e-02 0.0000000000000000e+00  9.9649308283865565e+00 -3.5706199174083235e-02 0.0000000000000000e+00  9.9807584202347588e+00 -2.4831336310139847e-02 0.0000000000000000e+00  1.0056589174759017e+01 7.0852045368203748e-02 0.0000000000000000e+00  9.9496964527703682e+00 -5.4895028560568430e-02 0.0000000000000000e+00  1.0002755858245004e+01 4.6710965728625375e-04 0.0000000000000000e+00  1.0027305614744551e+01 4.2591224167607342e-02 0.0000000000000000e+00  9.9736740437002105e+00 -2.7759836298064285e-02 0.0000000000000000e+00  9.9911908266861147e+00 -1.6627495419999104e-02 0.0000000000000000e+00  1.0024172091642424e+01 5.0528882993882272e-02 0.0000000000000000e+00  9.9719659809527048e+00 -3.5352953689487904e-02 0.0000000000000000e+00  1.0009172223772790e+01 7.1081869379282210e-03 0.0000000000000000e+00  9.9865980312470803e+00 1.4525908436486842e-02 0.0000000000000000e+00  1.0003199089228119e+01 9.8841349529695411e-04 0.0000000000000000e+00  9.9974349555357094e+00 -1.0637782817526507e-02 0.0000000000000000e+00  9.9749610669933251e+00 1.7983716025683855e-02 0.0000000000000000e+00  1.0006267867721412e+01 -1.8040797489016357e-04 0.0000000000000000e+00  1.0011739326876155e+01 1.3029579241235113e-02 0.0000000000000000e+00  9.9372313108694268e+00 -1.2674768648039457e-02 0.0000000000000000e+00  1.0027718953363129e+01 3.3127027545272664e-02 0.0000000000000000e+00  1.0000106444889385e+01 5.3461832451988638e-03 0.0000000000000000e+00  9.9221754390422028e+00 2.8695894091229922e-04 0.0000000000000000e+00  1.0012648019663303e+01 3.4315953572803266e-02 0.0000000000000000e+00  1.0002740904102128e+01 4.1852246827178252e-02 0.0000000000000000e+00  9.8790061980768371e+00 9.7880755692960307e-04 0.0000000000000000e+00  9.9945992965868324e+00 7.4465515178276279e-02 0.0000000000000000e+00  9.9621385039631711e+00 7.0123497127748624e-02 0.0000000000000000e+00  9.8364848157681539e+00 6.4827328728961894e-02 0.0000000000000000e+00  9.9159862937770225e+00 1.1725501626366486e-01 0.0000000000000000e+00  9.8973403155934960e+00 1.6457513279060113e-01 0.0000000000000000e+00  9.7315604886106168e+00 1.5956432949130928e-01 0.0000000000000000e+00  9.7979726433200263e+00 2.3795877014653927e-01 0.0000000000000000e+00  9.7452395670000485e+00 2.9558157265953150e-01 0.0000000000000000e+00  9.5796880570700509e+00 3.5190875349440032e-01 0.0000000000000000e+00  9.5867103026527758e+00 4.1492050989715878e-01 0.0000000000000000e+00  9.5296906374243608e+00 5.2618421467676246e-01 0.0000000000000000e+00  9.3278870708282824e+00 6.0917113434149184e-01 0.0000000000000000e+00  9.3149569979699276e+00 6.9921593398247561e-01 0.0000000000000000e+00  9.2138505912195967e+00 8.2213393209868857e-01 0.0000000000000000e+00  9.0132211191107832e+00 9.6880515476280205e-01 0.0000000000000000e+00  8.9521979160196725e+00 1.0502547991127844e+00 0.0000000000000000e+00  8.8456324138524600e+00 1.2159041737575769e+00 0.0000000000000000e+00  8.6125581639364324e+00 1.3869295241043846e+00 0.0000000000000000e+00  8.5471134436289109e+00 1.4891554831689731e+00 0.0000000000000000e+00  8.4066093551885963e+00 1.6606862999004601e+00 0.0000000000000000e+00  8.1780406308571045e+00 1.8835877827850944e+00 0.0000000000000000e+00  8.0824038594499967e+00 1.9695461758850541e+00 0.0000000000000000e+00  7.9470942947069307e+00 2.1737675767807216e+00 0.0000000000000000e+00  7.6928987674609592e+00 2.4144931157708212e+00 0.0000000000000000e+00  7.6079073772546311e+00 2.5108458950621437e+00 0.0000000000000000e+00  7.4484079833160104e+00 2.7092352566948428e+00 0.0000000000000000e+00  7.2051257315415365e+00 3.0016359733612701e+00 0.0000000000000000e+00  7.1016670669431541e+00 3.0689790776353991e+00 0.0000000000000000e+00  6.9581937633015540e+00 3.2948490756848949e+00 0.0000000000000000e+00  6.6892158672868955e+00 3.5958209463495283e+00 0.0000000000000000e+00  6.6109154591831798e+00 3.6802214639264696e+00 0.0000000000000000e+00  6.4460355105949372e+00 3.8805865912672037e+00 0.0000000000000000e+00  6.1948093907031865e+00 4.2285060127221792e+00 0.0000000000000000e+00  6.1000926569420511e+00 4.2940847639424957e+00 0.0000000000000000e+00  5.9618303994051844e+00 4.5101186011664813e+00 0.0000000000000000e+00  5.6835510006068093e+00 4.8543509224987984e+00 0.0000000000000000e+00  5.6262822820389635e+00 4.9349221485456054e+00 0.0000000000000000e+00  5.4551537334941917e+00 5.1496836461837692e+00 0.0000000000000000e+00  5.2167688628675819e+00 5.4986705544049332e+00 0.0000000000000000e+00  5.1413655944603009e+00 5.5716221225471827e+00 0.0000000000000000e+00  4.9823149878504731e+00 5.8193171662220733e+00 0.0000000000000000e+00  4.7521660550731806e+00 6.1278827078917493e+00 0.0000000000000000e+00  4.6819998408458430e+00 6.2442333964673020e+00 0.0000000000000000e+00  4.4889054454339927e+00 6.5179711657764550e+00 0.0000000000000000e+00  4.3215590293749750e+00 6.7693243290436866e+00 0.0000000000000000e+00  4.2072238007662710e+00 6.9351753812103016e+00 0.0000000000000000e+00  4.0423029495931004e+00 7.1965082918519592e+00 0.0000000000000000e+00  3.8353674272766320e+00 7.4983295336649523e+00 0.0000000000000000e+00  3.6770311627677099e+00 7.7497114035600463e+00 0.0000000000000000e+00  3.5839746035197813e+00 7.9354604315194752e+00 0.0000000000000000e+00  3.7535580388159708e+00 7.7230433399539562e+00 0.0000000000000000e+00  4.0759060931812483e+00 7.2240123518955146e+00 0.0000000000000000e+00  4.0520501848581683e+00 7.2321318134075652e+00 0.0000000000000000e+00  3.9776262205122022e+00 7.3115688227954578e+00 0.0000000000000000e+00  3.9333844753820943e+00 7.3557727172305754e+00 0.0000000000000000e+00  3.9029642983349948e+00 7.3878772111284814e+00 0.0000000000000000e+00  3.8912717289331096e+00 7.3944099508362555e+00 0.0000000000000000e+00  3.8886117432591010e+00 7.3910661988924495e+00 0.0000000000000000e+00  3.8884605341906604e+00 7.3875990322039398e+00 0.0000000000000000e+00  3.8950555234127391e+00 7.3750072116638998e+00 0.0000000000000000e+00  3.8998900662168619e+00 7.3668587148612179e+00 0.0000000000000000e+00  3.9000296992145604e+00 7.3659368356118220e+00 0.0000000000000000e+00  3.9035152966479520e+00 7.3586975637419210e+00 0.0000000000000000e+00  3.9075860388783026e+00 7.3522620593545973e+00 0.0000000000000000e+00  3.9111489502845211e+00 7.3481263058536488e+00 0.0000000000000000e+00  3.9178414881453940e+00 7.3395133857686634e+00 0.0000000000000000e+00  3.9238995754773671e+00 7.3342506831416285e+00 0.0000000000000000e+00  3.9283064302733535e+00 7.3331083585956591e+00 0.0000000000000000e+00  3.9329600623192116e+00 7.3312179382707514e+00 0.0000000000000000e+00  3.9353627072142343e+00 7.3327477688215250e+00 0.0000000000000000e+00  3.9348790899408872e+00 7.3343019711635087e+00 0.0000000000000000e+00  3.9298313016424902e+00 7.3266519334784581e+00 0.0000000000000000e+00  3.9105451317828934e+00 7.2990699952797948e+00 0.0000000000000000e+00  3.8592646299598585e+00 7.2178641993457013e+00 0.0000000000000000e+00  3.7443502242464852e+00 7.0242357368307990e+00 0.0000000000000000e+00  3.5049839020974836e+00 6.6091103873037085e+00 0.0000000000000000e+00  3.0306085827002565e+00 5.7110575591472168e+00 0.0000000000000000e+00  2.2342302585893852e+00 3.8834335712020418e+00 0.0000000000000000e+00  1.2886097424801035e+00 9.3364293909707707e-01 0.0000000000000000e+00  1.0011544775363537e+00 1.2470475487059571e-02 0.0000000000000000e+00  1.0014810730820558e+00 -3.8194186278500066e-03 0.0000000000000000e+00  9.9954431133331578e-01 1.4750288792975132e-03 0.0000000000000000e+00  1.0000240861214698e+00 -7.3047140043917090e-05 0.0000000000000000e+00  1.0000809656142948e+00 -2.5358873784355509e-04 0.0000000000000000e+00  9.9994514906123133e-01 1.7185408000309547e-04 0.0000000000000000e+00  1.0000088012906974e+00 -2.7560752299865277e-05 0.0000000000000000e+00  1.0000159299355840e+00 -4.9918575570965914e-05 0.0000000000000000e+00  9.9998297966162142e-01 5.3317462517106352e-05 0.0000000000000000e+00  1.0000073996133161e+00 -2.3157563164737509e-05 0.0000000000000000e+00  1.0000011360828587e+00 -3.5892571986683772e-06 0.0000000000000000e+00  9.9999578474209871e-01 1.3228894114510730e-05 0.0000000000000000e+00  1.0000032259523597e+00 -1.0119087945705689e-05 0.0000000000000000e+00  9.9999885920728671e-01 3.5809305249917016e-06 0.0000000000000000e+00  9.9999981041893726e-01 5.8656352632240664e-07 0.0000000000000000e+00  1.0000004689888025e+00 -1.4591940934104976e-06 0.0000000000000000e+00  9.9999980667085830e-01 5.9462574548476309e-07 0.0000000000000000e+00  9.9999987486821063e-01 4.0081650185196112e-07 0.0000000000000000e+00  1.0000002680841595e+00 -8.4427715898800258e-07 0.0000000000000000e+00  9.9999974498493771e-01 7.9874948795563074e-07 0.0000000000000000e+00  1.0000001820533231e+00 -5.6671858905684533e-07 0.0000000000000000e+00  9.9999988214129476e-01 3.6356592792192142e-07 0.0000000000000000e+00  1.0000000820918045e+00 -2.5049650706724654e-07 0.0000000000000000e+00  9.9999993375330820e-01 2.0037288223138424e-07 0.0000000000000000e+00  1.0000000571941363e+00 -1.7179671510971762e-07 0.0000000000000000e+00  9.9999995213067394e-01 1.4260701796872748e-07 0.0000000000000000e+00  1.0000000373143769e+00 -1.0986877380410354e-07 0.0000000000000000e+00  9.9999997289299647e-01 7.8548795421475953e-08 0.0000000000000000e+00  1.0000000186691920e+00 -5.3034650039215712e-08 0.0000000000000000e+00  9.9999998756275277e-01 3.4561266991892475e-08 0.0000000000000000e+00  1.0000000081319242e+00 -2.2112448316402262e-08 0.0000000000000000e+00  9.9999999475652046e-01 1.3984404739570530e-08 0.0000000000000000e+00  1.0000000033224645e+00 -8.7137621479152705e-09 0.0000000000000000e+00  9.9999999794491845e-01 5.3080595583618408e-09 0.0000000000000000e+00  1.0000000012351002e+00 -3.1414752461569589e-09 0.0000000000000000e+00  9.9999999927894667e-01 1.8040421558428041e-09 0.0000000000000000e+00  1.0000000004104701e+00 -1.0090740130514347e-09 0.0000000000000000e+00  9.9999999977085141e-01 5.5336789603623154e-10 0.0000000000000000e+00  1.0000000001260305e+00 -2.9924740964891530e-10 0.0000000000000000e+00  9.9999999993162503e-01 1.5987734785322320e-10 0.0000000000000000e+00  1.0000000000365086e+00 -8.4156499749950932e-11 0.0000000000000000e+00  9.9999999998089240e-01 4.3418859473612255e-11 0.0000000000000000e+00  1.0000000000097768e+00 -2.1873992723690322e-11 0.0000000000000000e+00  9.9999999999510547e-01 1.0772391285404493e-11 0.0000000000000000e+00  1.0000000000024116e+00 -5.2231752296020509e-12 0.0000000000000000e+00  9.9999999999882094e-01 2.5255817030855683e-12 0.0000000000000000e+00  1.0000000000005778e+00 -1.2337951431362292e-12 0.0000000000000000e+00  9.9999999999971501e-01 6.1213960590494283e-13 0.0000000000000000e+00  1.0000000000001410e+00 -3.0718320304157026e-13 0.0000000000000000e+00  9.9999999999993028e-01 1.5399462256218428e-13 0.0000000000000000e+00  1.0000000000000340e+00 -7.6837253578201192e-14 0.0000000000000000e+00  9.9999999999998390e-01 3.7341776913024889e-14 0.0000000000000000e+00  1.0000000000000073e+00 -1.8600422823773829e-14 0.0000000000000000e+00  9.9999999999999656e-01 8.5041400420433905e-15 0.0000000000000000e+00  1.0000000000000011e+00 -4.4932499333900558e-15 0.0000000000000000e+00  1.0000000000000000e+00 1.9105025034949592e-15 0.0000000000000000e+00  9.9999999999999967e-01 -1.0220655235620644e-15 0.0000000000000000e+00  1.0000000000000002e+00 1.6584161798776943e-15 0.0000000000000000e+00  9.9999999999999944e-01 -5.4081266397418127e-16 0.0000000000000000e+00  1.0000000000000004e+00 1.0168414666861455e-15 0.0000000000000000e+00  9.9999999999999956e-01 6.9511344714813997e-16 0.0000000000000000e+00  1.0000000000000004e+00 2.5549228194450394e-16 0.0000000000000000e+00  9.9999999999999967e-01 -6.6219368994180775e-16 0.0000000000000000e+00  1.0000000000000007e+00 1.0242369627963080e-15 0.0000000000000000e+00  1.0000000000000007e+00 0.0000000000000000e+00 -4.7475484961823381e-16  9.9999999999999978e-01 0.0000000000000000e+00 -2.5200045958934457e-16  1.0000000000000007e+00 0.0000000000000000e+00 -1.1749870954669498e-16  9.9999999999999967e-01 0.0000000000000000e+00 -1.0687639943476943e-16  1.0000000000000009e+00 0.0000000000000000e+00 4.1417360207469015e-16  9.9999999999999956e-01 0.0000000000000000e+00 -3.2525171480109952e-16  1.0000000000000007e+00 0.0000000000000000e+00 5.4629128162161188e-16  9.9999999999999956e-01 0.0000000000000000e+00 4.4363748557676141e-16  1.0000000000000004e+00 0.0000000000000000e+00 -4.1609011238929659e-16  9.9999999999999944e-01 0.0000000000000000e+00 -9.0137156477466130e-16  1.0000000000000007e+00 0.0000000000000000e+00 4.3689433304426388e-16  9.9999999999999944e-01 0.0000000000000000e+00 -6.7302798262555703e-17  1.0000000000000007e+00 0.0000000000000000e+00 5.8347268714717319e-16  9.9999999999999944e-01 0.0000000000000000e+00 3.4526978971099240e-16  1.0000000000000007e+00 0.0000000000000000e+00 7.7668724125715291e-16  9.9999999999999944e-01 0.0000000000000000e+00 -7.0891568567817137e-16  1.0000000000000007e+00 0.0000000000000000e+00 4.9822391988585757e-16  9.9999999999999933e-01 0.0000000000000000e+00 6.5074763512548490e-16  1.0000000000000004e+00 0.0000000000000000e+00 -6.9786315386844745e-16  9.9999999999999933e-01 0.0000000000000000e+00 -3.1238888178875161e-16  1.0000000000000004e+00 0.0000000000000000e+00 -4.8617582340057407e-16  9.9999999999999922e-01 0.0000000000000000e+00 1.4297588919567987e-16  1.0000000000000007e+00 0.0000000000000000e+00 -1.1204965276399532e-15  9.9999999999999922e-01 0.0000000000000000e+00 -1.1042659511255935e-15  1.0000000000000007e+00 0.0000000000000000e+00 3.9496826286420683e-16  9.9999999999999944e-01 0.0000000000000000e+00 5.1502488925203921e-16  1.0000000000000007e+00 0.0000000000000000e+00 -1.2642142957240135e-16  9.9999999999999933e-01 0.0000000000000000e+00 4.2171250414937552e-16  1.0000000000000007e+00 0.0000000000000000e+00 -2.4871645739942622e-16  9.9999999999999944e-01 0.0000000000000000e+00 2.0522736263088077e-16  1.0000000000000007e+00 0.0000000000000000e+00 -4.1504123423551249e-16  9.9999999999999944e-01 0.0000000000000000e+00 -4.9482944784471703e-16  1.0000000000000009e+00 0.0000000000000000e+00 -5.3457431902247023e-16  9.9999999999999944e-01 0.0000000000000000e+00 -1.4992367898728325e-16  1.0000000000000007e+00 0.0000000000000000e+00 -2.9549021929225377e-16  9.9999999999999944e-01 0.0000000000000000e+00 6.3748000914535624e-16  1.0000000000000007e+00 0.0000000000000000e+00 6.4815367579091541e-16  9.9999999999999933e-01 0.0000000000000000e+00 3.6404961194318957e-16  1.0000000000000007e+00 0.0000000000000000e+00 6.7817757421801634e-16  1.0000000000000007e+00 1.9448603796917537e-16 0.0000000000000000e+00  9.9999999999999933e-01 -4.0574933023054269e-16 0.0000000000000000e+00  1.0000000000000007e+00 7.3297109906168866e-16 0.0000000000000000e+00  9.9999999999999944e-01 8.4696490193480371e-16 0.0000000000000000e+00  1.0000000000000007e+00 -1.6908008406616696e-16 0.0000000000000000e+00  9.9999999999999944e-01 4.7467735772978792e-16 0.0000000000000000e+00  1.0000000000000009e+00 3.6999077804470740e-16 0.0000000000000000e+00  9.9999999999999944e-01 5.1144468914102014e-16 0.0000000000000000e+00  1.0000000000000009e+00 -1.1691274442744117e-16 0.0000000000000000e+00  9.9999999999999933e-01 -6.6836643838399359e-16 0.0000000000000000e+00  1.0000000000000011e+00 -5.4433162646160968e-16 0.0000000000000000e+00  9.9999999999999944e-01 4.9474433343907098e-17 0.0000000000000000e+00  1.0000000000000007e+00 -1.3710461401526878e-16 0.0000000000000000e+00  9.9999999999999989e-01 -1.5649245123706299e-15 0.0000000000000000e+00  9.9999999999999989e-01 1.6393898581378739e-15 0.0000000000000000e+00  9.9999999999999967e-01 -1.3464755061091335e-15 0.0000000000000000e+00  1.0000000000000016e+00 -1.1749664082412669e-15 0.0000000000000000e+00  9.9999999999999678e-01 9.2474098263722300e-15 0.0000000000000000e+00  1.0000000000000056e+00 -2.0243466526822651e-14 0.0000000000000000e+00  9.9999999999999634e-01 5.8822256123642415e-15 0.0000000000000000e+00  9.9999999999997935e-01 5.5531815652243531e-14 0.0000000000000000e+00  1.0000000000000548e+00 -1.6087960531325278e-13 0.0000000000000000e+00  9.9999999999992362e-01 2.2221824216433201e-13 0.0000000000000000e+00  1.0000000000000167e+00 1.3352980862362272e-14 0.0000000000000000e+00  1.0000000000001805e+00 -7.3962083987456474e-13 0.0000000000000000e+00  9.9999999999963340e-01 1.1890983034220832e-12 0.0000000000000000e+00  9.9999999999976152e-01 6.4638012464713456e-13 0.0000000000000000e+00  1.0000000000021105e+00 -9.3979262804138733e-12 0.0000000000000000e+00  9.9999999999353828e-01 1.8216097062418640e-11 0.0000000000000000e+00  1.0000000000020823e+00 -2.2281733769502202e-11 0.0000000000000000e+00  1.0000000000071834e+00 -6.5435419173419095e-12 0.0000000000000000e+00  9.9999999995773547e-01 1.0726648675325605e-10 0.0000000000000000e+00  1.0000000000897575e+00 -2.2244489453258133e-10 0.0000000000000000e+00  9.9999999988780319e-01 2.4090118846040093e-10 0.0000000000000000e+00  1.0000000000504581e+00 -2.1519180075823375e-10 0.0000000000000000e+00  9.9999999987474109e-01 6.7849491545893301e-10 0.0000000000000000e+00  1.0000000004995533e+00 -1.2618407999832468e-09 0.0000000000000000e+00  9.9999999978596199e-01 -9.4342572379605516e-10 0.0000000000000000e+00  9.9999999871582523e-01 1.9458547850290659e-09 0.0000000000000000e+00  9.9999999992222333e-01 -3.1639088655024240e-09 0.0000000000000000e+00  1.0000000011519716e+00 6.8225412911400022e-10 0.0