<?xml version="1.0"?>
<VTKFile type="UnstructuredGrid"  version="0.1"  >
<UnstructuredGrid>
<Piece  NumberOfPoints="9509" NumberOfCells="18536">
<Points>
<DataArray  type="Float64"  NumberOfComponents="3"  format="ascii">-5 -1 0  5 -1 0  5 1 0  -5 1 0  -4.949999999999965 -1 0  -4.899999999999877 -1 0  -4.849999999999826 -1 0  -4.799999999999754 -1 0  -4.749999999999695 -1 0  -4.69999999999963 -1 0  -4.649999999999565 -1 0  -4.599999999999507 -1 0  -4.549999999999454 -1 0  -4.499999999999384 -1 0  -4.449999999999317 -1 0  -4.399999999999261 -1 0  -4.349999999999206 -1 0  -4.299999999999137 -1 0  -4.249999999999075 -1 0  -4.199999999999013 -1 0  -4.149999999998934 -1 0  -4.09999999999889 -1 0  -4.049999999998847 -1 0  -3.999999999998767 -1 0  -3.949999999998706 -1 0  -3.899999999998644 -1 0  -3.849999999998594 -1 0  -3.799999999998552 -1 0  -3.749999999998549 -1 0  -3.699999999998651 -1 0  -3.649999999998804 -1 0  -3.59999999999894 -1 0  -3.549999999999097 -1 0  -3.499999999999261 -1 0  -3.449999999999394 -1 0  -3.399999999999582 -1 0  -3.349999999999742 -1 0  -3.299999999999902 -1 0  -3.25000000000006 -1 0  -3.200000000000223 -1 0  -3.150000000000369 -1 0  -3.100000000000544 -1 0  -3.050000000000704 -1 0  -3.000000000000864 -1 0  -2.950000000001029 -1 0  -2.900000000001185 -1 0  -2.850000000001347 -1 0  -2.800000000001506 -1 0  -2.750000000001665 -1 0  -2.700000000001827 -1 0  -2.650000000001979 -1 0  -2.600000000002148 -1 0  -2.550000000002311 -1 0  -2.500000000002468 -1 0  -2.450000000002635 -1 0  -2.400000000002789 -1 0  -2.35000000000295 -1 0  -2.30000000000311 -1 0  -2.250000000003253 -1 0  -2.200000000003431 -1 0  -2.150000000003601 -1 0  -2.100000000003752 -1 0  -2.050000000003922 -1 0  -2.000000000004072 -1 0  -1.950000000004237 -1 0  -1.900000000004393 -1 0  -1.850000000004541 -1 0  -1.800000000004714 -1 0  -1.750000000004886 -1 0  -1.700000000005035 -1 0  -1.650000000005206 -1 0  -1.600000000005355 -1 0  -1.550000000005516 -1 0  -1.500000000005676 -1 0  -1.450000000005824 -1 0  -1.400000000005996 -1 0  -1.350000000006146 -1 0  -1.300000000006318 -1 0  -1.250000000006505 -1 0  -1.200000000006638 -1 0  -1.150000000006797 -1 0  -1.100000000006959 -1 0  -1.050000000007106 -1 0  -1.000000000007245 -1 0  -0.9500000000072193 -1 0  -0.9000000000072612 -1 0  -0.8500000000071966 -1 0  -0.8000000000071381 -1 0  -0.750000000007085 -1 0  -0.700000000007015 -1 0  -0.6500000000069521 -1 0  -0.6000000000068919 -1 0  -0.5500000000068104 -1 0  -0.5000000000067688 -1 0  -0.4500000000067104 -1 0  -0.4000000000066457 -1 0  -0.3500000000065757 -1 0  -0.3000000000065226 -1 0  -0.2500000000064961 -1 0  -0.2000000000063995 -1 0  -0.1500000000063775 -1 0  -0.1000000000062764 -1 0  -0.0500000000062597 -1 0  -6.153300091682468e-12 -1 0  0.04999999999390781 -1 0  0.09999999999396891 -1 0  0.14999999999403 -1 0  0.1999999999940929 -1 0  0.2499999999941318 -1 0  0.299999999994216 -1 0  0.349999999994254 -1 0  0.3999999999943391 -1 0  0.4499999999944038 -1 0  0.4999999999944613 -1 0  0.5499999999945429 -1 0  0.5999999999945853 -1 0  0.6499999999946606 -1 0  0.6999999999947084 -1 0  0.7499999999947651 -1 0  0.7999999999948315 -1 0  0.8499999999948926 -1 0  0.8999999999949537 -1 0  0.9499999999950148 -1 0  0.9999999999950768 -1 0  1.049999999995139 -1 0  1.0999999999952 -1 0  1.149999999995266 -1 0  1.199999999995324 -1 0  1.249999999995385 -1 0  1.299999999995446 -1 0  1.349999999995488 -1 0  1.399999999995569 -1 0  1.449999999995604 -1 0  1.499999999995692 -1 0  1.549999999995753 -1 0  1.599999999995816 -1 0  1.649999999995892 -1 0  1.699999999995939 -1 0  1.749999999996017 -1 0  1.799999999996063 -1 0  1.849999999996111 -1 0  1.899999999996185 -1 0  1.949999999996246 -1 0  1.999999999996308 -1 0  2.049999999996351 -1 0  2.099999999996431 -1 0  2.149999999996504 -1 0  2.199999999996555 -1 0  2.249999999996616 -1 0  2.299999999996677 -1 0  2.349999999996736 -1 0  2.3999999999968 -1 0  2.449999999996847 -1 0  2.499999999996923 -1 0  2.549999999997 -1 0  2.599999999997047 -1 0  2.649999999997093 -1 0  2.69999999999717 -1 0  2.749999999997245 -1 0  2.799999999997293 -1 0  2.849999999997344 -1 0  2.899999999997416 -1 0  2.949999999997469 -1 0  2.999999999997539 -1 0  3.049999999997576 -1 0  3.099999999997662 -1 0  3.149999999997725 -1 0  3.199999999997784 -1 0  3.249999999997829 -1 0  3.299999999997908 -1 0  3.349999999997921 -1 0  3.39999999999803 -1 0  3.4499999999981 -1 0  3.499999999998153 -1 0  3.549999999998214 -1 0  3.599999999998277 -1 0  3.649999999998409 -1 0  3.699999999998401 -1 0  3.749999999998444 -1 0  3.799999999998523 -1 0  3.849999999998602 -1 0  3.899999999998645 -1 0  3.949999999998658 -1 0  3.999999999998769 -1 0  4.049999999998814 -1 0  4.099999999998893 -1 0  4.149999999998883 -1 0  4.199999999999015 -1 0  4.249999999999064 -1 0  4.299999999999137 -1 0  4.349999999999152 -1 0  4.399999999999261 -1 0  4.44999999999933 -1 0  4.499999999999385 -1 0  4.549999999999446 -1 0  4.599999999999508 -1 0  4.649999999999633 -1 0  4.699999999999632 -1 0  4.749999999999723 -1 0  4.799999999999754 -1 0  4.849999999999801 -1 0  4.899999999999876 -1 0  4.949999999999925 -1 0  5 -0.950000000000111 0  5 -0.9000000000002774 0  5 -0.8500000000004283 0  5 -0.8000000000005548 0  5 -0.7500000000006787 0  5 -0.7000000000008322 0  5 -0.6500000000009709 0  5 -0.6000000000011096 0  5 -0.5500000000012484 0  5 -0.500000000001387 0  5 -0.4500000000015256 0  5 -0.4000000000016644 0  5 -0.3500000000018031 0  5 -0.3000000000019418 0  5 -0.2500000000020806 0  5 -0.2000000000022192 0  5 -0.1500000000023578 0  5 -0.1000000000024964 0  5 -0.05000000000262439 0  5 -2.752242878045763e-12 0  5 0.0499999999973757 0  5 0.09999999999750342 0  5 0.1499999999976422 0  5 0.1999999999977808 0  5 0.2499999999979194 0  5 0.2999999999980583 0  5 0.3499999999981969 0  5 0.3999999999983355 0  5 0.4499999999984743 0  5 0.4999999999986129 0  5 0.5499999999987515 0  5 0.5999999999988903 0  5 0.6499999999990291 0  5 0.699999999999168 0  5 0.7499999999993068 0  5 0.7999999999994454 0  5 0.849999999999584 0  5 0.8999999999997226 0  5 0.9499999999998612 0  4.949999999999965 1 0  4.899999999999877 1 0  4.849999999999826 1 0  4.799999999999754 1 0  4.749999999999695 1 0  4.69999999999963 1 0  4.649999999999565 1 0  4.599999999999507 1 0  4.549999999999454 1 0  4.499999999999384 1 0  4.449999999999317 1 0  4.399999999999261 1 0  4.349999999999206 1 0  4.299999999999137 1 0  4.249999999999075 1 0  4.199999999999013 1 0  4.149999999998934 1 0  4.09999999999889 1 0  4.049999999998847 1 0  3.999999999998767 1 0  3.949999999998706 1 0  3.899999999998644 1 0  3.849999999998594 1 0  3.799999999998552 1 0  3.749999999998549 1 0  3.699999999998651 1 0  3.649999999998804 1 0  3.59999999999894 1 0  3.549999999999097 1 0  3.499999999999261 1 0  3.449999999999394 1 0  3.399999999999582 1 0  3.349999999999742 1 0  3.299999999999902 1 0  3.25000000000006 1 0  3.200000000000223 1 0  3.150000000000369 1 0  3.100000000000544 1 0  3.050000000000704 1 0  3.000000000000864 1 0  2.950000000001029 1 0  2.900000000001185 1 0  2.850000000001347 1 0  2.800000000001506 1 0  2.750000000001665 1 0  2.700000000001827 1 0  2.650000000001979 1 0  2.600000000002148 1 0  2.550000000002311 1 0  2.500000000002468 1 0  2.450000000002635 1 0  2.400000000002789 1 0  2.35000000000295 1 0  2.30000000000311 1 0  2.250000000003253 1 0  2.200000000003431 1 0  2.150000000003601 1 0  2.100000000003752 1 0  2.050000000003922 1 0  2.000000000004072 1 0  1.950000000004237 1 0  1.900000000004393 1 0  1.850000000004541 1 0  1.800000000004714 1 0  1.750000000004886 1 0  1.700000000005035 1 0  1.650000000005206 1 0  1.600000000005355 1 0  1.550000000005516 1 0  1.500000000005676 1 0  1.450000000005824 1 0  1.400000000005996 1 0  1.350000000006146 1 0  1.300000000006318 1 0  1.250000000006505 1 0  1.200000000006638 1 0  1.150000000006797 1 0  1.100000000006959 1 0  1.050000000007106 1 0  1.000000000007245 1 0  0.9500000000072193 1 0  0.9000000000072612 1 0  0.8500000000071966 1 0  0.8000000000071381 1 0  0.750000000007085 1 0  0.700000000007015 1 0  0.6500000000069521 1 0  0.6000000000068919 1 0  0.5500000000068104 1 0  0.5000000000067688 1 0  0.4500000000067104 1 0  0.4000000000066457 1 0  0.3500000000065757 1 0  0.3000000000065226 1 0  0.2500000000064961 1 0  0.2000000000063995 1 0  0.1500000000063775 1 0  0.1000000000062764 1 0  0.0500000000062597 1 0  6.153300091682468e-12 1 0  -0.04999999999390781 1 0  -0.09999999999396891 1 0  -0.14999999999403 1 0  -0.1999999999940929 1 0  -0.2499999999941318 1 0  -0.299999999994216 1 0  -0.349999999994254 1 0  -0.3999999999943391 1 0  -0.4499999999944038 1 0  -0.4999999999944613 1 0  -0.5499999999945429 1 0  -0.5999999999945853 1 0  -0.6499999999946606 1 0  -0.6999999999947084 1 0  -0.7499999999947651 1 0  -0.7999999999948315 1 0  -0.8499999999948926 1 0  -0.8999999999949537 1 0  -0.9499999999950148 1 0  -0.9999999999950768 1 0  -1.049999999995139 1 0  -1.0999999999952 1 0  -1.149999999995266 1 0  -1.199999999995324 1 0  -1.249999999995385 1 0  -1.299999999995446 1 0  -1.349999999995488 1 0  -1.399999999995569 1 0  -1.449999999995604 1 0  -1.499999999995692 1 0  -1.549999999995753 1 0  -1.599999999995816 1 0  -1.649999999995892 1 0  -1.699999999995939 1 0  -1.749999999996017 1 0  -1.799999999996063 1 0  -1.849999999996111 1 0  -1.899999999996185 1 0  -1.949999999996246 1 0  -1.999999999996308 1 0  -2.049999999996351 1 0  -2.099999999996431 1 0  -2.149999999996504 1 0  -2.199999999996555 1 0  -2.249999999996616 1 0  -2.299999999996677 1 0  -2.349999999996736 1 0  -2.3999999999968 1 0  -2.449999999996847 1 0  -2.499999999996923 1 0  -2.549999999997 1 0  -2.599999999997047 1 0  -2.649999999997093 1 0  -2.69999999999717 1 0  -2.749999999997245 1 0  -2.799999999997293 1 0  -2.849999999997344 1 0  -2.899999999997416 1 0  -2.949999999997469 1 0  -2.999999999997539 1 0  -3.049999999997576 1 0  -3.099999999997662 1 0  -3.149999999997725 1 0  -3.199999999997784 1 0  -3.249999999997829 1 0  -3.29999
[...]
<PointData  Vectors="(h, u)"> 
<DataArray  type="Float64"  Name="(h, u)"  NumberOfComponents="3" format="ascii">9.9999999999326974e+00 0.0000000000000000e+00 0.0000000000000000e+00  9.9999999999999922e-01 0.0000000000000000e+00 0.0000000000000000e+00  9.9999999999999956e-01 0.0000000000000000e+00 0.0000000000000000e+00  9.9999999999984368e+00 0.0000000000000000e+00 0.0000000000000000e+00  1.0000000000077174e+01 5.2230236754420711e-11 0.0000000000000000e+00  9.9999999998944347e+00 -8.6849046249978331e-11 0.0000000000000000e+00  1.0000000000092182e+01 7.3851328351798854e-11 0.0000000000000000e+00  9.9999999998554507e+00 -2.4351549102113900e-11 0.0000000000000000e+00  1.0000000000221817e+01 1.4615401386908014e-10 0.0000000000000000e+00  9.9999999995791775e+00 -3.1845779765945133e-10 0.0000000000000000e+00  1.0000000000500531e+01 3.8024281833737004e-10 0.0000000000000000e+00  9.9999999991706918e+00 -4.7852713497200124e-10 0.0000000000000000e+00  1.0000000001147969e+01 7.9778942540356975e-10 0.0000000000000000e+00  9.9999999982227372e+00 -1.2517330086965959e-09 0.0000000000000000e+00  1.0000000002603603e+01 1.8324928097856126e-09 0.0000000000000000e+00  9.9999999961169443e+00 -2.7270276375849214e-09 0.0000000000000000e+00  1.0000000005549641e+01 3.8626273954321448e-09 0.0000000000000000e+00  9.9999999921598324e+00 -5.4457192039640632e-09 0.0000000000000000e+00  1.0000000011100511e+01 7.7488387398356422e-09 0.0000000000000000e+00  9.9999999840073261e+00 -1.1338005327031790e-08 0.0000000000000000e+00  1.0000000023267587e+01 1.6839734288403127e-08 0.0000000000000000e+00  9.9999999665426262e+00 -2.4634343953093835e-08 0.0000000000000000e+00  1.0000000046696590e+01 3.4667255206409092e-08 0.0000000000000000e+00  9.9999999367478534e+00 -4.6946911462499218e-08 0.0000000000000000e+00  1.0000000084865750e+01 6.2860991450023380e-08 0.0000000000000000e+00  9.9999998839681741e+00 -8.6416334213098036e-08 0.0000000000000000e+00  1.0000000163332221e+01 1.2360664262486751e-07 0.0000000000000000e+00  9.9999997682116035e+00 -1.7875085984591529e-07 0.0000000000000000e+00  1.0000000320251216e+01 2.4994603584069577e-07 0.0000000000000000e+00  9.9999995779585298e+00 -3.2947833936415378e-07 0.0000000000000000e+00  1.0000000536029253e+01 4.1483950217765581e-07 0.0000000000000000e+00  9.9999993151363231e+00 -5.2649179172190705e-07 0.0000000000000000e+00  1.0000000921443062e+01 7.1495023810530837e-07 0.0000000000000000e+00  9.9999986972927140e+00 -1.0346485159234509e-06 0.0000000000000000e+00  1.0000001830775133e+01 1.4871444949674094e-06 0.0000000000000000e+00  9.9999975853109433e+00 -1.9814752173444563e-06 0.0000000000000000e+00  1.0000002927099091e+01 2.3918925689601356e-06 0.0000000000000000e+00  9.9999966131020788e+00 -2.7340121901805933e-06 0.0000000000000000e+00  1.0000004129966269e+01 3.3400378930247464e-06 0.0000000000000000e+00  9.9999942746236457e+00 -4.7711985613677388e-06 0.0000000000000000e+00  1.0000008455868405e+01 7.3202315926194852e-06 0.0000000000000000e+00  9.9999883222799077e+00 -1.0364035271278426e-05 0.0000000000000000e+00  1.0000013795322509e+01 1.2353869618662880e-05 0.0000000000000000e+00  9.9999863948703815e+00 -1.2103565106104719e-05 0.0000000000000000e+00  1.0000012426130702e+01 1.0920140322368956e-05 0.0000000000000000e+00  9.9999850800772681e+00 -1.3377332963233356e-05 0.0000000000000000e+00  1.0000025926700300e+01 2.4269433639322893e-05 0.0000000000000000e+00  9.9999560799841021e+00 -4.2106085290372305e-05 0.0000000000000000e+00  1.0000056651264188e+01 5.4887344460697506e-05 0.0000000000000000e+00  9.9999524080970374e+00 -4.6312942291807475e-05 0.0000000000000000e+00  1.0000014458712942e+01 1.4139941206862665e-05 0.0000000000000000e+00  1.0000013754068283e+01 1.3192691669583601e-05 0.0000000000000000e+00  1.0000013023492560e+01 1.3665124445749669e-05 0.0000000000000000e+00  9.9998826153574054e+00 -1.1689142151134532e-04 0.0000000000000000e+00  1.0000237416085490e+01 2.3564096970415027e-04 0.0000000000000000e+00  9.9997669553197301e+00 -2.3170068596236834e-04 0.0000000000000000e+00  1.0000003578690796e+01 6.0243176251943042e-06 0.0000000000000000e+00  1.0000340822796192e+01 3.3327646438157743e-04 0.0000000000000000e+00  9.9995578994587007e+00 -4.3256801182248015e-04 0.0000000000000000e+00  9.9999547810866094e+00 -4.8074813289826653e-05 0.0000000000000000e+00  1.0000982483136259e+01 9.7326262780883554e-04 0.0000000000000000e+00  9.9984714478621068e+00 -1.5112449637482272e-03 0.0000000000000000e+00  1.0000660692006479e+01 6.5526387876775919e-04 0.0000000000000000e+00  1.0001628346601317e+01 1.6062125763833140e-03 0.0000000000000000e+00  9.9964654199523846e+00 -3.4869329103341421e-03 0.0000000000000000e+00  1.0002357335838724e+01 2.3274835113176575e-03 0.0000000000000000e+00  1.0002684515173097e+01 2.6550207113349295e-03 0.0000000000000000e+00  9.9919099495591297e+00 -7.9917734719340949e-03 0.0000000000000000e+00  1.0007407609012787e+01 7.3228625976113825e-03 0.0000000000000000e+00  1.0002613815063844e+01 2.5814806963207668e-03 0.0000000000000000e+00  9.9840963972700525e+00 -1.5717992698088233e-02 0.0000000000000000e+00  1.0018445799285265e+01 1.8229524151368269e-02 0.0000000000000000e+00  9.9992547351060264e+00 -7.5698619140645749e-04 0.0000000000000000e+00  9.9720437232742611e+00 -2.7651589899357752e-02 0.0000000000000000e+00  1.0039936598829053e+01 3.9443290274097834e-02 0.0000000000000000e+00  9.9875172625603188e+00 -1.2412735086436614e-02 0.0000000000000000e+00  9.9576462119185045e+00 -4.1930685855479120e-02 0.0000000000000000e+00  1.0074605087179403e+01 7.3634846024594580e-02 0.0000000000000000e+00  9.9619828188584183e+00 -3.7734115784466601e-02 0.0000000000000000e+00  9.9456109019850505e+00 -5.3729252316663687e-02 0.0000000000000000e+00  1.0120122234344379e+01 1.1881106848656517e-01 0.0000000000000000e+00  9.9205900926900590e+00 -7.8001253932339240e-02 0.0000000000000000e+00  9.9419503083014753e+00 -5.5414785069391161e-02 0.0000000000000000e+00  1.0162892416689441e+01 1.6483564433374229e-01 0.0000000000000000e+00  9.8707831511047353e+00 -1.1954921583280274e-01 0.0000000000000000e+00  9.9426956570886311e+00 -3.8943740567369420e-02 0.0000000000000000e+00  1.0172011066582074e+01 2.0300723363795159e-01 0.0000000000000000e+00  9.8192292377994974e+00 -1.1774591968392417e-01 0.0000000000000000e+00  9.9070262465617542e+00 1.9068047980382294e-02 0.0000000000000000e+00  1.0078513343626303e+01 2.6763901399207218e-01 0.0000000000000000e+00  9.7140251355304876e+00 3.1725786571513266e-02 0.0000000000000000e+00  9.7110163870916253e+00 2.1887434581123602e-01 0.0000000000000000e+00  9.7318807767219244e+00 5.0934156490831117e-01 0.0000000000000000e+00  9.3607914235214587e+00 5.1369188305041691e-01 0.0000000000000000e+00  9.1473380023573050e+00 7.9304458821468515e-01 0.0000000000000000e+00  8.9286534205339301e+00 1.1935542069234544e+00 0.0000000000000000e+00  8.4907499084721874e+00 1.5210775110164863e+00 0.0000000000000000e+00  8.0593630736931097e+00 1.9892064151072399e+00 0.0000000000000000e+00  7.5952463323065320e+00 2.5492420072660513e+00 0.0000000000000000e+00  7.0305221256010313e+00 3.1541715901811438e+00 0.0000000000000000e+00  6.4662200384309365e+00 3.8578993115881950e+00 0.0000000000000000e+00  5.8814086220140274e+00 4.6099316529361420e+00 0.0000000000000000e+00  5.2392943379713355e+00 5.4127325655375520e+00 0.0000000000000000e+00  4.6343201342294611e+00 6.2596412204152259e+00 0.0000000000000000e+00  3.9163627033478097e+00 7.3694623084862032e+00 0.0000000000000000e+00  3.4028475569893102e+00 8.2026217642123918e+00 0.0000000000000000e+00  3.3932335674469627e+00 8.2197084919984515e+00 0.0000000000000000e+00  3.8100479886001382e+00 7.5257741383932935e+00 0.0000000000000000e+00  3.9054754791084094e+00 7.3268217327969296e+00 0.0000000000000000e+00  3.8640055092365655e+00 7.3115648451754005e+00 0.0000000000000000e+00  3.7971443429203826e+00 7.1584759611764479e+00 0.0000000000000000e+00  3.6009284790969716e+00 6.7604781985997038e+00 0.0000000000000000e+00  3.1347427823876912e+00 5.9611540847264770e+00 0.0000000000000000e+00  2.4032902176693525e+00 4.3481887575324318e+00 0.0000000000000000e+00  1.4888351312676498e+00 1.6066307562363211e+00 0.0000000000000000e+00  9.9653310026918751e-01 -4.8560242724433260e-02 0.0000000000000000e+00  9.9416942018458021e-01 -3.3867009802232319e-03 0.0000000000000000e+00  1.0016655647980559e+00 -6.6849581368580938e-03 0.0000000000000000e+00  9.9859827988191074e-01 4.2959869685173999e-03 0.0000000000000000e+00  1.0005084595848897e+00 -1.5974807663201684e-03 0.0000000000000000e+00  1.0001167191441067e+00 -3.6569630894622314e-04 0.0000000000000000e+00  9.9971794127982183e-01 8.8334892325576530e-04 0.0000000000000000e+00  1.0001807277772867e+00 -5.6591036108379923e-04 0.0000000000000000e+00  9.9995334109737699e-01 1.4612476422986632e-04 0.0000000000000000e+00  9.9997950948232217e-01 6.4169627540854772e-05 0.0000000000000000e+00  1.0000284045042307e+00 -8.8949498787111540e-05 0.0000000000000000e+00  9.9998559275565690e-01 4.5117388241956354e-05 0.0000000000000000e+00  1.0000023348744187e+00 -7.3116899459863708e-06 0.0000000000000000e+00  1.0000022099973560e+00 -6.9207342720624876e-06 0.0000000000000000e+00  9.9999788505990472e-01 6.6230617414522438e-06 0.0000000000000000e+00  1.0000008722263019e+00 -2.7314239964630018e-06 0.0000000000000000e+00  9.9999993857178071e-01 1.9236534177064803e-07 0.0000000000000000e+00  9.9999982948280763e-01 5.3398474835535609e-07 0.0000000000000000e+00  1.0000001268288587e+00 -3.9717184050439235e-07 0.0000000000000000e+00  9.9999995701481037e-01 1.3461050109329880e-07 0.0000000000000000e+00  9.9999999872070233e-01 4.0062607689802175e-09 0.0000000000000000e+00  1.0000000105461941e+00 -3.3026028871883838e-08 0.0000000000000000e+00  9.9999999354369717e-01 2.0218269262067801e-08 0.0000000000000000e+00  1.0000000017823913e+00 -5.5816386294596063e-09 0.0000000000000000e+00  1.0000000002757308e+00 -8.6347570926110408e-10 0.0000000000000000e+00  9.9999999944477369e-01 1.7387254867743672e-09 0.0000000000000000e+00  1.0000000002883211e+00 -9.0289435455145959e-10 0.0000000000000000e+00  9.9999999993720834e-01 1.9663498100593541e-10 0.0000000000000000e+00  9.9999999997903921e-01 6.5640378892991067e-11 0.0000000000000000e+00  1.0000000000257905e+00 -8.0763585200188315e-11 0.0000000000000000e+00  9.9999999998845990e-01 3.6136151594106234e-11 0.0000000000000000e+00  1.0000000000018447e+00 -5.7749777954276913e-12 0.0000000000000000e+00  1.0000000000011835e+00 -3.7087648993397310e-12 0.0000000000000000e+00  9.9999999999891864e-01 3.3887807303690997e-12 0.0000000000000000e+00  1.0000000000004190e+00 -1.3149747168232295e-12 0.0000000000000000e+00  9.9999999999995981e-01 1.2910822194478882e-13 0.0000000000000000e+00  9.9999999999994327e-01 1.7695788367180192e-13 0.0000000000000000e+00  1.0000000000000422e+00 -1.3077072290689678e-13 0.0000000000000000e+00  9.9999999999998490e-01 4.3510037060182913e-14 0.0000000000000000e+00  1.0000000000000009e+00 -3.9676477809755542e-16 0.0000000000000000e+00  1.0000000000000020e+00 -8.0606547442028534e-15 0.0000000000000000e+00  9.9999999999999956e-01 5.4361122503621829e-15 0.0000000000000000e+00  9.9999999999999989e-01 -1.3902669230081059e-15 0.0000000000000000e+00  1.0000000000000007e+00 6.6117137861918576e-16 0.0000000000000000e+00  9.9999999999999889e-01 3.1432874506698879e-16 0.0000000000000000e+00  1.0000000000000011e+00 -6.1862814073573358e-16 0.0000000000000000e+00  9.9999999999999944e-01 1.2484393791304579e-15 0.0000000000000000e+00  1.0000000000000009e+00 -1.0330134118612264e-15 0.0000000000000000e+00  9.9999999999999944e-01 -2.0648957922144626e-16 0.0000000000000000e+00  1.0000000000000002e+00 1.8687423850267322e-16 0.0000000000000000e+00  9.9999999999999900e-01 -5.3023323946182149e-16 0.0000000000000000e+00  1.0000000000000004e+00 6.2630777241708391e-17 0.0000000000000000e+00  9.9999999999999922e-01 3.1793829764625502e-16 0.0000000000000000e+00  1.0000000000000007e+00 2.8457796150409955e-16 0.0000000000000000e+00  9.9999999999999956e-01 2.6375268388003569e-16 0.0000000000000000e+00  1.0000000000000004e+00 3.1610082217754117e-17 0.0000000000000000e+00  9.9999999999999978e-01 8.7464045810091082e-16 0.0000000000000000e+00  1.0000000000000007e+00 -1.0841141203674716e-15 0.0000000000000000e+00  9.9999999999999900e-01 -1.1949832416535513e-17 0.0000000000000000e+00  1.0000000000000011e+00 -1.9530551745998767e-16 0.0000000000000000e+00  9.9999999999999933e-01 -1.8093963503739963e-17 0.0000000000000000e+00  1.0000000000000007e+00 -5.4312697323548210e-16 0.0000000000000000e+00  9.9999999999999900e-01 1.3698246743877291e-16 0.0000000000000000e+00  1.0000000000000007e+00 6.9696804811638102e-16 0.0000000000000000e+00  9.9999999999999978e-01 -3.0931364010636047e-16 0.0000000000000000e+00  1.0000000000000009e+00 -2.0089403692017625e-16 0.0000000000000000e+00  9.9999999999999900e-01 2.9027463526596257e-16 0.0000000000000000e+00  1.0000000000000009e+00 1.3876400448773830e-15 0.0000000000000000e+00  9.9999999999999911e-01 -6.2887406519067898e-16 0.0000000000000000e+00  1.0000000000000009e+00 6.1310993132644272e-16 0.0000000000000000e+00  9.9999999999999956e-01 -9.6403062606518773e-16 0.0000000000000000e+00  1.0000000000000007e+00 -7.9648267926226891e-16 0.0000000000000000e+00  9.9999999999999922e-01 -1.3952208888237242e-15 0.0000000000000000e+00  1.0000000000000007e+00 1.0209581355166953e-16 0.0000000000000000e+00  9.9999999999999889e-01 5.3288474196569822e-16 0.0000000000000000e+00  1.0000000000000007e+00 8.2019118590738342e-16 0.0000000000000000e+00  9.9999999999999967e-01 -5.0266004441967739e-16 0.0000000000000000e+00  1.0000000000000009e+00 3.9319374175973347e-16 0.0000000000000000e+00  9.9999999999999922e-01 -2.5263136398627417e-16 0.0000000000000000e+00  1.0000000000000013e+00 8.3660330203503673e-16 0.0000000000000000e+00  9.9999999999999889e-01 -1.6876167432997145e-16 0.0000000000000000e+00  1.0000000000000009e+00 8.3761016159204317e-16 0.0000000000000000e+00  9.9999999999999933e-01 -2.7930833797028101e-16 0.0000000000000000e+00  1.0000000000000011e+00 -7.6257218343667656e-16 0.0000000000000000e+00  9.9999999999999933e-01 1.9739282029485069e-16 0.0000000000000000e+00  1.0000000000000013e+00 -6.5572178886613581e-16 0.0000000000000000e+00  9.9999999999999922e-01 5.8312405103641774e-16 0.0000000000000000e+00  1.0000000000000007e+00 -7.8091789830519423e-16 0.0000000000000000e+00  1.0000000000000007e+00 0.0000000000000000e+00 -1.1573342185572286e-16  9.9999999999999944e-01 0.0000000000000000e+00 4.2514902577343255e-16  1.0000000000000009e+00 0.0000000000000000e+00 5.0800531409315479e-16  9.9999999999999922e-01 0.0000000000000000e+00 -5.1593855725703707e-16  1.0000000000000009e+00 0.0000000000000000e+00 5.4814101641437030e-16  9.9999999999999933e-01 0.0000000000000000e+00 6.2792427259260150e-17  1.0000000000000011e+00 0.0000000000000000e+00 6.3224407927643336e-16  9.9999999999999889e-01 0.0000000000000000e+00 -1.1015213535193392e-15  1.0000000000000007e+00 0.0000000000000000e+00 -2.9605539104523499e-16  9.9999999999999867e-01 0.0000000000000000e+00 6.1531859935883985e-16  1.0000000000000009e+00 0.0000000000000000e+00 -2.3773191026910902e-16  9.9999999999999900e-01 0.0000000000000000e+00 1.5590085019703591e-16  1.0000000000000009e+00 0.0000000000000000e+00 6.6111583773185208e-16  9.9999999999999911e-01 0.0000000000000000e+00 8.0021610468702784e-16  1.0000000000000009e+00 0.0000000000000000e+00 -1.3090542110581095e-15  9.9999999999999944e-01 0.0000000000000000e+00 -1.1823289357356743e-15  1.0000000000000007e+00 0.0000000000000000e+00 1.5047132156555739e-15  9.9999999999999900e-01 0.0000000000000000e+00 -5.7718900028553826e-16  1.0000000000000011e+00 0.0000000000000000e+00 5.7342721930989836e-17  9.9999999999999922e-01 0.0000000000000000e+00 4.3586409296455718e-16  1.0000000000000009e+00 0.0000000000000000e+00 1.4110026334904551e-15  9.9999999999999933e-01 0.0000000000000000e+00 -1.2516477001225771e-15  1.0000000000000007e+00 0.0000000000000000e+00 -2.4242738265936406e-16  9.9999999999999967e-01 0.0000000000000000e+00 4.0016676330188297e-16  1.0000000000000004e+00 0.0000000000000000e+00 -3.8914286259355427e-17  9.9999999999999944e-01 0.0000000000000000e+00 -2.2600002919182884e-15  1.0000000000000004e+00 0.0000000000000000e+00 9.3573362412812759e-17  9.9999999999999956e-01 0.0000000000000000e+00 -9.2166149735760826e-17  1.0000000000000007e+00 0.0000000000000000e+00 3.5537498124894193e-16  9.9999999999999944e-01 0.0000000000000000e+00 -3.4019377395580111e-16  1.0000000000000007e+00 0.0000000000000000e+00 2.5244812388890005e-16  9.9999999999999944e-01 0.0000000000000000e+00 1.3845912791569412e-15  1.0000000000000007e+00 0.0000000000000000e+00 6.9208356502719928e-16  9.9999999999999911e-01 0.0000000000000000e+00 -7.2641068217987843e-17  1.0000000000000009e+00 0.0000000000000000e+00 4.6095745263224875e-16  9.9999999999999889e-01 0.0000000000000000e+00 -3.0707350161635757e-17  1.0000000000000007e+00 0.0000000000000000e+00 -6.8589472733299709e-16  9.9999999999999900e-01 0.0000000000000000e+00 -1.6337997990795301e-16  1.0000000000000009e+00 0.0000000000000000e+00 2.1088806153443727e-16  1.0000000000000007e+00 3.7988415503858774e-16 0.0000000000000000e+00  9.9999999999999956e-01 6.8015859410447795e-16 0.0000000000000000e+00  1.0000000000000009e+00 -9.3545237473936727e-16 0.0000000000000000e+00  9.9999999999999967e-01 -2.2912792839116701e-16 0.0000000000000000e+00  1.0000000000000009e+00 1.0403298252340058e-15 0.0000000000000000e+00  9.9999999999999911e-01 4.6019234294523059e-16 0.0000000000000000e+00  1.0000000000000004e+00 -9.1633549008447501e-16 0.0000000000000000e+00  9.9999999999999900e-01 5.7881859599756921e-16 0.0000000000000000e+00  1.0000000000000007e+00 -4.3824994848408059e-16 0.0000000000000000e+00  9.9999999999999933e-01 4.0223429828113135e-16 0.0000000000000000e+00  1.0000000000000007e+00 -3.5036096862351854e-16 0.0000000000000000e+00  9.9999999999999944e-01 6.1575756087990296e-16 0.0000000000000000e+00  1.0000000000000013e+00 -7.7931001935213825e-16 0.0000000000000000e+00  9.9999999999999944e-01 4.1738304963385779e-16 0.0000000000000000e+00  1.0000000000000007e+00 -1.0847865528680289e-15 0.0000000000000000e+00  9.9999999999999944e-01 7.4078295299821658e-16 0.0000000000000000e+00  1.0000000000000002e+00 -4.7961718522102720e-16 0.0000000000000000e+00  9.9999999999999967e-01 2.5948202312921425e-16 0.0000000000000000e+00  1.0000000000000011e+00 -1.8368683517011244e-16 0.0000000000000000e+00  9.9999999999999933e-01 4.6648822174792855e-16 0.0000000000000000e+00  1.0000000000000009e+00 -1.4596111931513404e-16 0.0000000000000000e+00  9.9999999999999900e-01 1.2275119967827585e-15 0.0000000000000000e+00  1.0000000000000007e+00 -5.7384535278866826e-16 0.0000000000000000e+00  9.9999999999999911e-01 9.6494475926086552e-16 0.0000000000000000e+00  1.0000000000000007e+00 -2.2767980769199141e-16 0.0000000000000000e+00  9.9999999999999967e-01 -6.9803144188932479e-16 0.0000000000000000e+00  1.0000000000000013e+00 1.1711040831777010e-15 0.0000000000000000e+00  9.9999999999999933e-01 -1.3021002370819404e-15 0.0000000000000000e+00  1.0000000000000009e+00 -5.6978983425028796e-16 0.0000000000000000e+00  9.9999999999999900e-01 -2.9395404985343609e-16 0.0000000000000000e+00  1.0000000000000009e+00 -2.6651070741141495e-16 0.0000000000000000e+00  9.9999999999999922e-01 4.6651028887024006e-16 0.0000000000000000e+00  1.0000000000000009e+00 -2.0438003274814354e-16 0.0000000000000000e+00  9.9999999999999911e-01 -1.2097445375273913e-16 0.0000000000000000e+00  1.0000000000000011e+00 2.1332284445383326e-15 0.0000000000000000e+00  9.9999999999999944e-01 -2.3778156213658687e-16 0.0000000000000000e+00  1.0000000000000004e+00 8.6845085080036948e-16 0.0000000000000000e+00  9.9999999999999933e-01 -9.5705737019338994e-16 0.0000000000000000e+00  1.0000000000000002e+00 -5.4564362423395095e-16 0.0000000000000000e+00  9.9999999999999933e-01 1.5961977020367742e-15 0.0000000000000000e+00  1.0000000000000009e+0