<?xml version="1.0"?>
<VTKFile type="UnstructuredGrid"  version="0.1"  >
<UnstructuredGrid>
<Piece  NumberOfPoints="9509" NumberOfCells="18536">
<Points>
<DataArray  type="Float64"  NumberOfComponents="3"  format="ascii">-5 -1 0  5 -1 0  5 1 0  -5 1 0  -4.949999999999965 -1 0  -4.899999999999877 -1 0  -4.849999999999826 -1 0  -4.799999999999754 -1 0  -4.749999999999695 -1 0  -4.69999999999963 -1 0  -4.649999999999565 -1 0  -4.599999999999507 -1 0  -4.549999999999454 -1 0  -4.499999999999384 -1 0  -4.449999999999317 -1 0  -4.399999999999261 -1 0  -4.349999999999206 -1 0  -4.299999999999137 -1 0  -4.249999999999075 -1 0  -4.199999999999013 -1 0  -4.149999999998934 -1 0  -4.09999999999889 -1 0  -4.049999999998847 -1 0  -3.999999999998767 -1 0  -3.949999999998706 -1 0  -3.899999999998644 -1 0  -3.849999999998594 -1 0  -3.799999999998552 -1 0  -3.749999999998549 -1 0  -3.699999999998651 -1 0  -3.649999999998804 -1 0  -3.59999999999894 -1 0  -3.549999999999097 -1 0  -3.499999999999261 -1 0  -3.449999999999394 -1 0  -3.399999999999582 -1 0  -3.349999999999742 -1 0  -3.299999999999902 -1 0  -3.25000000000006 -1 0  -3.200000000000223 -1 0  -3.150000000000369 -1 0  -3.100000000000544 -1 0  -3.050000000000704 -1 0  -3.000000000000864 -1 0  -2.950000000001029 -1 0  -2.900000000001185 -1 0  -2.850000000001347 -1 0  -2.800000000001506 -1 0  -2.750000000001665 -1 0  -2.700000000001827 -1 0  -2.650000000001979 -1 0  -2.600000000002148 -1 0  -2.550000000002311 -1 0  -2.500000000002468 -1 0  -2.450000000002635 -1 0  -2.400000000002789 -1 0  -2.35000000000295 -1 0  -2.30000000000311 -1 0  -2.250000000003253 -1 0  -2.200000000003431 -1 0  -2.150000000003601 -1 0  -2.100000000003752 -1 0  -2.050000000003922 -1 0  -2.000000000004072 -1 0  -1.950000000004237 -1 0  -1.900000000004393 -1 0  -1.850000000004541 -1 0  -1.800000000004714 -1 0  -1.750000000004886 -1 0  -1.700000000005035 -1 0  -1.650000000005206 -1 0  -1.600000000005355 -1 0  -1.550000000005516 -1 0  -1.500000000005676 -1 0  -1.450000000005824 -1 0  -1.400000000005996 -1 0  -1.350000000006146 -1 0  -1.300000000006318 -1 0  -1.250000000006505 -1 0  -1.200000000006638 -1 0  -1.150000000006797 -1 0  -1.100000000006959 -1 0  -1.050000000007106 -1 0  -1.000000000007245 -1 0  -0.9500000000072193 -1 0  -0.9000000000072612 -1 0  -0.8500000000071966 -1 0  -0.8000000000071381 -1 0  -0.750000000007085 -1 0  -0.700000000007015 -1 0  -0.6500000000069521 -1 0  -0.6000000000068919 -1 0  -0.5500000000068104 -1 0  -0.5000000000067688 -1 0  -0.4500000000067104 -1 0  -0.4000000000066457 -1 0  -0.3500000000065757 -1 0  -0.3000000000065226 -1 0  -0.2500000000064961 -1 0  -0.2000000000063995 -1 0  -0.1500000000063775 -1 0  -0.1000000000062764 -1 0  -0.0500000000062597 -1 0  -6.153300091682468e-12 -1 0  0.04999999999390781 -1 0  0.09999999999396891 -1 0  0.14999999999403 -1 0  0.1999999999940929 -1 0  0.2499999999941318 -1 0  0.299999999994216 -1 0  0.349999999994254 -1 0  0.3999999999943391 -1 0  0.4499999999944038 -1 0  0.4999999999944613 -1 0  0.5499999999945429 -1 0  0.5999999999945853 -1 0  0.6499999999946606 -1 0  0.6999999999947084 -1 0  0.7499999999947651 -1 0  0.7999999999948315 -1 0  0.8499999999948926 -1 0  0.8999999999949537 -1 0  0.9499999999950148 -1 0  0.9999999999950768 -1 0  1.049999999995139 -1 0  1.0999999999952 -1 0  1.149999999995266 -1 0  1.199999999995324 -1 0  1.249999999995385 -1 0  1.299999999995446 -1 0  1.349999999995488 -1 0  1.399999999995569 -1 0  1.449999999995604 -1 0  1.499999999995692 -1 0  1.549999999995753 -1 0  1.599999999995816 -1 0  1.649999999995892 -1 0  1.699999999995939 -1 0  1.749999999996017 -1 0  1.799999999996063 -1 0  1.849999999996111 -1 0  1.899999999996185 -1 0  1.949999999996246 -1 0  1.999999999996308 -1 0  2.049999999996351 -1 0  2.099999999996431 -1 0  2.149999999996504 -1 0  2.199999999996555 -1 0  2.249999999996616 -1 0  2.299999999996677 -1 0  2.349999999996736 -1 0  2.3999999999968 -1 0  2.449999999996847 -1 0  2.499999999996923 -1 0  2.549999999997 -1 0  2.599999999997047 -1 0  2.649999999997093 -1 0  2.69999999999717 -1 0  2.749999999997245 -1 0  2.799999999997293 -1 0  2.849999999997344 -1 0  2.899999999997416 -1 0  2.949999999997469 -1 0  2.999999999997539 -1 0  3.049999999997576 -1 0  3.099999999997662 -1 0  3.149999999997725 -1 0  3.199999999997784 -1 0  3.249999999997829 -1 0  3.299999999997908 -1 0  3.349999999997921 -1 0  3.39999999999803 -1 0  3.4499999999981 -1 0  3.499999999998153 -1 0  3.549999999998214 -1 0  3.599999999998277 -1 0  3.649999999998409 -1 0  3.699999999998401 -1 0  3.749999999998444 -1 0  3.799999999998523 -1 0  3.849999999998602 -1 0  3.899999999998645 -1 0  3.949999999998658 -1 0  3.999999999998769 -1 0  4.049999999998814 -1 0  4.099999999998893 -1 0  4.149999999998883 -1 0  4.199999999999015 -1 0  4.249999999999064 -1 0  4.299999999999137 -1 0  4.349999999999152 -1 0  4.399999999999261 -1 0  4.44999999999933 -1 0  4.499999999999385 -1 0  4.549999999999446 -1 0  4.599999999999508 -1 0  4.649999999999633 -1 0  4.699999999999632 -1 0  4.749999999999723 -1 0  4.799999999999754 -1 0  4.849999999999801 -1 0  4.899999999999876 -1 0  4.949999999999925 -1 0  5 -0.950000000000111 0  5 -0.9000000000002774 0  5 -0.8500000000004283 0  5 -0.8000000000005548 0  5 -0.7500000000006787 0  5 -0.7000000000008322 0  5 -0.6500000000009709 0  5 -0.6000000000011096 0  5 -0.5500000000012484 0  5 -0.500000000001387 0  5 -0.4500000000015256 0  5 -0.4000000000016644 0  5 -0.3500000000018031 0  5 -0.3000000000019418 0  5 -0.2500000000020806 0  5 -0.2000000000022192 0  5 -0.1500000000023578 0  5 -0.1000000000024964 0  5 -0.05000000000262439 0  5 -2.752242878045763e-12 0  5 0.0499999999973757 0  5 0.09999999999750342 0  5 0.1499999999976422 0  5 0.1999999999977808 0  5 0.2499999999979194 0  5 0.2999999999980583 0  5 0.3499999999981969 0  5 0.3999999999983355 0  5 0.4499999999984743 0  5 0.4999999999986129 0  5 0.5499999999987515 0  5 0.5999999999988903 0  5 0.6499999999990291 0  5 0.699999999999168 0  5 0.7499999999993068 0  5 0.7999999999994454 0  5 0.849999999999584 0  5 0.8999999999997226 0  5 0.9499999999998612 0  4.949999999999965 1 0  4.899999999999877 1 0  4.849999999999826 1 0  4.799999999999754 1 0  4.749999999999695 1 0  4.69999999999963 1 0  4.649999999999565 1 0  4.599999999999507 1 0  4.549999999999454 1 0  4.499999999999384 1 0  4.449999999999317 1 0  4.399999999999261 1 0  4.349999999999206 1 0  4.299999999999137 1 0  4.249999999999075 1 0  4.199999999999013 1 0  4.149999999998934 1 0  4.09999999999889 1 0  4.049999999998847 1 0  3.999999999998767 1 0  3.949999999998706 1 0  3.899999999998644 1 0  3.849999999998594 1 0  3.799999999998552 1 0  3.749999999998549 1 0  3.699999999998651 1 0  3.649999999998804 1 0  3.59999999999894 1 0  3.549999999999097 1 0  3.499999999999261 1 0  3.449999999999394 1 0  3.399999999999582 1 0  3.349999999999742 1 0  3.299999999999902 1 0  3.25000000000006 1 0  3.200000000000223 1 0  3.150000000000369 1 0  3.100000000000544 1 0  3.050000000000704 1 0  3.000000000000864 1 0  2.950000000001029 1 0  2.900000000001185 1 0  2.850000000001347 1 0  2.800000000001506 1 0  2.750000000001665 1 0  2.700000000001827 1 0  2.650000000001979 1 0  2.600000000002148 1 0  2.550000000002311 1 0  2.500000000002468 1 0  2.450000000002635 1 0  2.400000000002789 1 0  2.35000000000295 1 0  2.30000000000311 1 0  2.250000000003253 1 0  2.200000000003431 1 0  2.150000000003601 1 0  2.100000000003752 1 0  2.050000000003922 1 0  2.000000000004072 1 0  1.950000000004237 1 0  1.900000000004393 1 0  1.850000000004541 1 0  1.800000000004714 1 0  1.750000000004886 1 0  1.700000000005035 1 0  1.650000000005206 1 0  1.600000000005355 1 0  1.550000000005516 1 0  1.500000000005676 1 0  1.450000000005824 1 0  1.400000000005996 1 0  1.350000000006146 1 0  1.300000000006318 1 0  1.250000000006505 1 0  1.200000000006638 1 0  1.150000000006797 1 0  1.100000000006959 1 0  1.050000000007106 1 0  1.000000000007245 1 0  0.9500000000072193 1 0  0.9000000000072612 1 0  0.8500000000071966 1 0  0.8000000000071381 1 0  0.750000000007085 1 0  0.700000000007015 1 0  0.6500000000069521 1 0  0.6000000000068919 1 0  0.5500000000068104 1 0  0.5000000000067688 1 0  0.4500000000067104 1 0  0.4000000000066457 1 0  0.3500000000065757 1 0  0.3000000000065226 1 0  0.2500000000064961 1 0  0.2000000000063995 1 0  0.1500000000063775 1 0  0.1000000000062764 1 0  0.0500000000062597 1 0  6.153300091682468e-12 1 0  -0.04999999999390781 1 0  -0.09999999999396891 1 0  -0.14999999999403 1 0  -0.1999999999940929 1 0  -0.2499999999941318 1 0  -0.299999999994216 1 0  -0.349999999994254 1 0  -0.3999999999943391 1 0  -0.4499999999944038 1 0  -0.4999999999944613 1 0  -0.5499999999945429 1 0  -0.5999999999945853 1 0  -0.6499999999946606 1 0  -0.6999999999947084 1 0  -0.7499999999947651 1 0  -0.7999999999948315 1 0  -0.8499999999948926 1 0  -0.8999999999949537 1 0  -0.9499999999950148 1 0  -0.9999999999950768 1 0  -1.049999999995139 1 0  -1.0999999999952 1 0  -1.149999999995266 1 0  -1.199999999995324 1 0  -1.249999999995385 1 0  -1.299999999995446 1 0  -1.349999999995488 1 0  -1.399999999995569 1 0  -1.449999999995604 1 0  -1.499999999995692 1 0  -1.549999999995753 1 0  -1.599999999995816 1 0  -1.649999999995892 1 0  -1.699999999995939 1 0  -1.749999999996017 1 0  -1.799999999996063 1 0  -1.849999999996111 1 0  -1.899999999996185 1 0  -1.949999999996246 1 0  -1.999999999996308 1 0  -2.049999999996351 1 0  -2.099999999996431 1 0  -2.149999999996504 1 0  -2.199999999996555 1 0  -2.249999999996616 1 0  -2.299999999996677 1 0  -2.349999999996736 1 0  -2.3999999999968 1 0  -2.449999999996847 1 0  -2.499999999996923 1 0  -2.549999999997 1 0  -2.599999999997047 1 0  -2.649999999997093 1 0  -2.69999999999717 1 0  -2.749999999997245 1 0  -2.799999999997293 1 0  -2.849999999997344 1 0  -2.899999999997416 1 0  -2.949999999997469 1 0  -2.999999999997539 1 0  -3.049999999997576 1 0  -3.099999999997662 1 0  -3.149999999997725 1 0  -3.199999999997784 1 0  -3.249999999997829 1 0  -3.29999
[...]
<PointData  Vectors="(h, u)"> 
<DataArray  type="Float64"  Name="(h, u)"  NumberOfComponents="3" format="ascii">9.0805448347632698e+00 0.0000000000000000e+00 0.0000000000000000e+00  7.7726997067764749e+00 0.0000000000000000e+00 0.0000000000000000e+00  7.6690078845246026e+00 0.0000000000000000e+00 0.0000000000000000e+00  9.0939062805813808e+00 0.0000000000000000e+00 0.0000000000000000e+00  9.0923943658264328e+00 7.5134308960476834e-02 0.0000000000000000e+00  9.0751632374692122e+00 1.5010268725253448e-01 0.0000000000000000e+00  9.0810033720976389e+00 2.2440401680763808e-01 0.0000000000000000e+00  9.0581151500471311e+00 3.0642950599116092e-01 0.0000000000000000e+00  9.0578116300790388e+00 3.7425315946140825e-01 0.0000000000000000e+00  9.0293771583257705e+00 4.5194490679849014e-01 0.0000000000000000e+00  9.0232432578446620e+00 5.2492300605070707e-01 0.0000000000000000e+00  8.9900327877766166e+00 5.9192315923547223e-01 0.0000000000000000e+00  8.9795587293256318e+00 6.6934089877616310e-01 0.0000000000000000e+00  8.9385614696992022e+00 7.4805849817445658e-01 0.0000000000000000e+00  8.9248982747564174e+00 8.0074012860372556e-01 0.0000000000000000e+00  8.8820385459152646e+00 8.8348945251639444e-01 0.0000000000000000e+00  8.8572813154266505e+00 9.5317312558901346e-01 0.0000000000000000e+00  8.8126364358169624e+00 1.0146358467739025e+00 0.0000000000000000e+00  8.7879067187113247e+00 1.0814240442475727e+00 0.0000000000000000e+00  8.7326708523666827e+00 1.1581557245712815e+00 0.0000000000000000e+00  8.7028689828881198e+00 1.2120279008826196e+00 0.0000000000000000e+00  8.6548239739038060e+00 1.2787692939300770e+00 0.0000000000000000e+00  8.6113109189457262e+00 1.3490726942318498e+00 0.0000000000000000e+00  8.5585273502995562e+00 1.4095294250481070e+00 0.0000000000000000e+00  8.5239577333519403e+00 1.4654752517362541e+00 0.0000000000000000e+00  8.4630892131928821e+00 1.5376651046885483e+00 0.0000000000000000e+00  8.4137412394728308e+00 1.6018034329426143e+00 0.0000000000000000e+00  8.3724537536719659e+00 1.6481370965881799e+00 0.0000000000000000e+00  8.3148583312450288e+00 1.7241168076394795e+00 0.0000000000000000e+00  8.2527993696171933e+00 1.7883989848351793e+00 0.0000000000000000e+00  8.2194163803144349e+00 1.8364903886052566e+00 0.0000000000000000e+00  8.1575291632923097e+00 1.8974106881722288e+00 0.0000000000000000e+00  8.0880873866624707e+00 1.9925209101675021e+00 0.0000000000000000e+00  8.0610148563923669e+00 2.0030409567982814e+00 0.0000000000000000e+00  7.9972986090326890e+00 2.0957781756509068e+00 0.0000000000000000e+00  7.9205937883131341e+00 2.1692892658197067e+00 0.0000000000000000e+00  7.8981392500336751e+00 2.1984300920227242e+00 0.0000000000000000e+00  7.8380431689819199e+00 2.2708856848569323e+00 0.0000000000000000e+00  7.7483484757843106e+00 2.3612170336374536e+00 0.0000000000000000e+00  7.7364819394811706e+00 2.3991801130768291e+00 0.0000000000000000e+00  7.6746461528570320e+00 2.4210998122843366e+00 0.0000000000000000e+00  7.5785837815162003e+00 2.6002806838909249e+00 0.0000000000000000e+00  7.5703209132098710e+00 2.5428056899313307e+00 0.0000000000000000e+00  7.5120549105096508e+00 2.6275199072734172e+00 0.0000000000000000e+00  7.4096094869011457e+00 2.8115006118412778e+00 0.0000000000000000e+00  7.4004727019739427e+00 2.6746105448067641e+00 0.0000000000000000e+00  7.3529122799561479e+00 2.8955208845059142e+00 0.0000000000000000e+00  7.2348811321151070e+00 2.9270107898301623e+00 0.0000000000000000e+00  7.2390262512604782e+00 2.9162612502399430e+00 0.0000000000000000e+00  7.1800609914993263e+00 3.0817225107116331e+00 0.0000000000000000e+00  7.0790407983925654e+00 3.0703402758211884e+00 0.0000000000000000e+00  7.0587954849389671e+00 3.2043926903256952e+00 0.0000000000000000e+00  7.0288885961417744e+00 3.1511118997867618e+00 0.0000000000000000e+00  6.9031539427594453e+00 3.3855027185775608e+00 0.0000000000000000e+00  6.9080931584566780e+00 3.2863919275153322e+00 0.0000000000000000e+00  6.8472075737799774e+00 3.4392819214510530e+00 0.0000000000000000e+00  6.7679436082646927e+00 3.4934209984505737e+00 0.0000000000000000e+00  6.7209119781346462e+00 3.5469294893663501e+00 0.0000000000000000e+00  6.7068505664456453e+00 3.5888022368948285e+00 0.0000000000000000e+00  6.5917500839646248e+00 3.7106087553842939e+00 0.0000000000000000e+00  6.5826281125804131e+00 3.7171508186997611e+00 0.0000000000000000e+00  6.5154060715647111e+00 3.8351342708506757e+00 0.0000000000000000e+00  6.4708295704545256e+00 3.8276205536312631e+00 0.0000000000000000e+00  6.3912728533742156e+00 4.0097807538763028e+00 0.0000000000000000e+00  6.3797608118609661e+00 3.9407364328892402e+00 0.0000000000000000e+00  6.2924386349271906e+00 4.0993515526175823e+00 0.0000000000000000e+00  6.2631039137750468e+00 4.1515084706354282e+00 0.0000000000000000e+00  6.1824011065943472e+00 4.1734591645754708e+00 0.0000000000000000e+00  6.1759496909425087e+00 4.2885072900854331e+00 0.0000000000000000e+00  6.0744093931213783e+00 4.3403950580686255e+00 0.0000000000000000e+00  6.0528205489608773e+00 4.3740786476948665e+00 0.0000000000000000e+00  5.9893195560211065e+00 4.5154082267550564e+00 0.0000000000000000e+00  5.9581947455585018e+00 4.4830024974323353e+00 0.0000000000000000e+00  5.8599235457235999e+00 4.6325064592303873e+00 0.0000000000000000e+00  5.8689097008121074e+00 4.6591682098731821e+00 0.0000000000000000e+00  5.7769706207833478e+00 4.7315196844051242e+00 0.0000000000000000e+00  5.7456361634378963e+00 4.7624547115241151e+00 0.0000000000000000e+00  5.6771208717712724e+00 4.9343234761909196e+00 0.0000000000000000e+00  5.6698813893071662e+00 4.8362071690390946e+00 0.0000000000000000e+00  5.5663779003104796e+00 5.0384466540901762e+00 0.0000000000000000e+00  5.5586389519872261e+00 5.0554026931860516e+00 0.0000000000000000e+00  5.4919512150497454e+00 5.0916189980566022e+00 0.0000000000000000e+00  5.4582214468491506e+00 5.1783221814230664e+00 0.0000000000000000e+00  5.3747562896012369e+00 5.3016579822959935e+00 0.0000000000000000e+00  5.3842183388505305e+00 5.2242617068579582e+00 0.0000000000000000e+00  5.2767194120068517e+00 5.4540655314839936e+00 0.0000000000000000e+00  5.2609778442669972e+00 5.4108314420966765e+00 0.0000000000000000e+00  5.2105491565357145e+00 5.5019697327545503e+00 0.0000000000000000e+00  5.1670347371644372e+00 5.5763148969168075e+00 0.0000000000000000e+00  5.0806526713831852e+00 5.6648210499227583e+00 0.0000000000000000e+00  5.0975722376278805e+00 5.6578112856593092e+00 0.0000000000000000e+00  4.9919383535433317e+00 5.8224986965897889e+00 0.0000000000000000e+00  4.9589148792846807e+00 5.8105234767628096e+00 0.0000000000000000e+00  4.9161523721522151e+00 5.9545585449889993e+00 0.0000000000000000e+00  4.8884780693740755e+00 5.9087706153987281e+00 0.0000000000000000e+00  4.7780324367847520e+00 6.1294411048160216e+00 0.0000000000000000e+00  4.8134536232513794e+00 6.0425915550721454e+00 0.0000000000000000e+00  4.7009390105621467e+00 6.2289028452785695e+00 0.0000000000000000e+00  4.6900442969548815e+00 6.2098487251153758e+00 0.0000000000000000e+00  4.6442981083500827e+00 6.3397738675963229e+00 0.0000000000000000e+00  4.6194153044433808e+00 6.2972658980023040e+00 0.0000000000000000e+00  4.4800789086861830e+00 6.5727784926991166e+00 0.0000000000000000e+00  4.5696398751834595e+00 6.4082310902675088e+00 0.0000000000000000e+00  4.5048868472461905e+00 6.5051123849895500e+00 0.0000000000000000e+00  4.4044203371147539e+00 6.6682996321610863e+00 0.0000000000000000e+00  4.3150366862790648e+00 6.7850296189301398e+00 0.0000000000000000e+00  4.3399836449417091e+00 6.7519244675452788e+00 0.0000000000000000e+00  4.2928959472969561e+00 6.8460811014943594e+00 0.0000000000000000e+00  4.2680553052600425e+00 6.8592877251983611e+00 0.0000000000000000e+00  4.1756906873640052e+00 7.0187066713555586e+00 0.0000000000000000e+00  4.1553363238280649e+00 7.0261459060916724e+00 0.0000000000000000e+00  4.0836604749721186e+00 7.1628079955635107e+00 0.0000000000000000e+00  4.0596587080376683e+00 7.1833806025469720e+00 0.0000000000000000e+00  3.9990627746690666e+00 7.2635788019927370e+00 0.0000000000000000e+00  4.0133645287819002e+00 7.2818873895432814e+00 0.0000000000000000e+00  3.8955178740180996e+00 7.4212797198785863e+00 0.0000000000000000e+00  3.8774982546526249e+00 7.4635089543633901e+00 0.0000000000000000e+00  3.7962947948173240e+00 7.6015483164037256e+00 0.0000000000000000e+00  3.9489116210897031e+00 7.3978613399717279e+00 0.0000000000000000e+00  3.7295965090632701e+00 7.7225210177875407e+00 0.0000000000000000e+00  3.8591408659212849e+00 7.5504536607378245e+00 0.0000000000000000e+00  3.7116259813263990e+00 7.7744017136267498e+00 0.0000000000000000e+00  3.7854258753715087e+00 7.5981358302635424e+00 0.0000000000000000e+00  3.9172708291395413e+00 7.4367878864337102e+00 0.0000000000000000e+00  3.8517681062999585e+00 7.5032311652956958e+00 0.0000000000000000e+00  3.9221982637326360e+00 7.4205816242505280e+00 0.0000000000000000e+00  3.9775513992646903e+00 7.3465396334894058e+00 0.0000000000000000e+00  3.9787234034499730e+00 7.3338402478526321e+00 0.0000000000000000e+00  3.7766230347013607e+00 7.6030999599340214e+00 0.0000000000000000e+00  4.0635382065646803e+00 7.2533853986928873e+00 0.0000000000000000e+00  4.1892922241008463e+00 7.0779676712795929e+00 0.0000000000000000e+00  4.0671006884266907e+00 7.2354660434241618e+00 0.0000000000000000e+00  4.0564022722894366e+00 7.2535250496486947e+00 0.0000000000000000e+00  3.9862110164309588e+00 7.3197188662158315e+00 0.0000000000000000e+00  4.0279488174081184e+00 7.2860462650430913e+00 0.0000000000000000e+00  4.0401272959933721e+00 7.2614250441081296e+00 0.0000000000000000e+00  3.9853754362375757e+00 7.3430832204613417e+00 0.0000000000000000e+00  3.9799738118299550e+00 7.3294795824787702e+00 0.0000000000000000e+00  3.9864138572341599e+00 7.3453884971142278e+00 0.0000000000000000e+00  3.9740647958192072e+00 7.3366112264432957e+00 0.0000000000000000e+00  3.9679904461478936e+00 7.3594218684272450e+00 0.0000000000000000e+00  3.9563867638564800e+00 7.3658296774662189e+00 0.0000000000000000e+00  3.9747145272939877e+00 7.3461562636690241e+00 0.0000000000000000e+00  3.9727377122669703e+00 7.3483640888523327e+00 0.0000000000000000e+00  3.9611697658288074e+00 7.3640853044552594e+00 0.0000000000000000e+00  3.9708188810771099e+00 7.3474064496968250e+00 0.0000000000000000e+00  3.9684635863770388e+00 7.3521324255130995e+00 0.0000000000000000e+00  3.9557960618709060e+00 7.3724921024068433e+00 0.0000000000000000e+00  3.9440847298009745e+00 7.3820142862833462e+00 0.0000000000000000e+00  3.9820737699111670e+00 7.3377546576014252e+00 0.0000000000000000e+00  3.9848098873966702e+00 7.3356391077948642e+00 0.0000000000000000e+00  3.9631849162031076e+00 7.3607772057632896e+00 0.0000000000000000e+00  3.9602563510649422e+00 7.3628324639073952e+00 0.0000000000000000e+00  3.9792121250026251e+00 7.3444272222896805e+00 0.0000000000000000e+00  3.9687128221233223e+00 7.3527639420937572e+00 0.0000000000000000e+00  3.9702825622327840e+00 7.3531557526718032e+00 0.0000000000000000e+00  3.9727334289974805e+00 7.3485368520861876e+00 0.0000000000000000e+00  3.9843265492860991e+00 7.3386035229655686e+00 0.0000000000000000e+00  3.9770109713207833e+00 7.3433616438256166e+00 0.0000000000000000e+00  3.9855856939259282e+00 7.3351194025059341e+00 0.0000000000000000e+00  3.9750114398952383e+00 7.3473859991753470e+00 0.0000000000000000e+00  3.9746034933740169e+00 7.3478290524702379e+00 0.0000000000000000e+00  3.9712517229684390e+00 7.3505626264132458e+00 0.0000000000000000e+00  3.9837962979083592e+00 7.3336138017032457e+00 0.0000000000000000e+00  3.9804647961189517e+00 7.3387879195138899e+00 0.0000000000000000e+00  3.9743201954723313e+00 7.3421256747443620e+00 0.0000000000000000e+00  3.9661706023103571e+00 7.3573596621649582e+00 0.0000000000000000e+00  3.9682702473919567e+00 7.3452093971828480e+00 0.0000000000000000e+00  3.9746608015094917e+00 7.3440156545417929e+00 0.0000000000000000e+00  3.9764455294571266e+00 7.3349573424094796e+00 0.0000000000000000e+00  3.9720121352849724e+00 7.3416642673805574e+00 0.0000000000000000e+00  3.9686016429364441e+00 7.3430278920997205e+00 0.0000000000000000e+00  3.9689234487962781e+00 7.3412328711435553e+00 0.0000000000000000e+00  3.9703276077323784e+00 7.3357456239331977e+00 0.0000000000000000e+00  3.9732155726310618e+00 7.3362466787629677e+00 0.0000000000000000e+00  3.9702481260326787e+00 7.3340930713229975e+00 0.0000000000000000e+00  3.9613643375068963e+00 7.3437593999544859e+00 0.0000000000000000e+00  3.9689617428372812e+00 7.3500418804599565e+00 0.0000000000000000e+00  3.9535102650222962e+00 7.3304653211629844e+00 0.0000000000000000e+00  3.9758865769805882e+00 7.3582013546135645e+00 0.0000000000000000e+00  3.9624287726735408e+00 7.3206673441251935e+00 0.0000000000000000e+00  3.9711985290953913e+00 7.3514071990290724e+00 0.0000000000000000e+00  3.9636477548427385e+00 7.3275875405646760e+00 0.0000000000000000e+00  3.9808749970138018e+00 7.3642163053688874e+00 0.0000000000000000e+00  3.9342255251496598e+00 7.3055071598795314e+00 0.0000000000000000e+00  3.9988491475126167e+00 7.3866013438145712e+00 0.0000000000000000e+00  3.9361154799387514e+00 7.3178031802354937e+00 0.0000000000000000e+00  3.9718227109907045e+00 7.3290768072548129e+00 0.0000000000000000e+00  3.9636022779219879e+00 7.3516264705961083e+00 0.0000000000000000e+00  3.9904934837651020e+00 7.3528904017755572e+00 0.0000000000000000e+00  3.9102382302174079e+00 7.2322158791987787e+00 0.0000000000000000e+00  4.0305600037384810e+00 7.4521643083183218e+00 0.0000000000000000e+00  3.9408876373826467e+00 7.2376006778249415e+00 0.0000000000000000e+00  3.9483857162033820e+00 7.3172380270485631e+00 0.0000000000000000e+00  3.9904185504206509e+00 7.3434353682815336e+00 0.0000000000000000e+00  3.9730660633248780e+00 7.3528295613163754e+00 0.0000000000000000e+00  3.9892132254080210e+00 7.2356950854178539e+00 0.0000000000000000e+00  3.8222408798230072e+00 7.2756593821511686e+00 0.0000000000000000e+00  4.2148381293453259e+00 7.5475842640766100e+00 0.0000000000000000e+00  3.7768853980861352e+00 7.0372126181885015e+00 0.0000000000000000e+00  3.8703892255295429e+00 7.5210826079578439e+00 0.0000000000000000e+00  5.1635757974931815e+00 5.3820162651452250e+00 0.0000000000000000e+00  1.0355000777333498e+01 -8.9671497870596284e-01 0.0000000000000000e+00  9.3306993592861236e+00 0.0000000000000000e+00 -4.1931760272204227e-01  8.3811183391783608e+00 0.0000000000000000e+00 5.7982888964501955e-01  7.8392144152666559e+00 0.0000000000000000e+00 1.9914752783418855e-02  8.7994719869599010e+00 0.0000000000000000e+00 -7.6592589021881641e-01  9.0933556075745514e+00 0.0000000000000000e+00 6.6354070545402488e-02  8.9069104273573707e+00 0.0000000000000000e+00 5.4099508035885702e-01  7.7592089279220291e+00 0.0000000000000000e+00 -6.0922821209521666e-02  8.8709891663794451e+00 0.0000000000000000e+00 -6.1931492449597847e-01  9.0778662599270952e+00 0.0000000000000000e+00 -5.9914847765349007e-02  8.3553401582644131e+00 0.0000000000000000e+00 4.0331201300036168e-01  7.7708525135068776e+00 0.0000000000000000e+00 1.7586539263824436e-01  7.8066128533789945e+00 0.0000000000000000e+00 -2.7575935715468153e-01  7.6124324622704531e+00 0.0000000000000000e+00 1.2694702455224718e-01  7.9723822629746932e+00 0.0000000000000000e+00 -9.1381009274998051e-02  7.6225663599248641e+00 0.0000000000000000e+00 -2.4610897113157523e-01  7.8697474987723854e+00 0.0000000000000000e+00 1.5404462071522548e-01  7.8186075448046877e+00 0.0000000000000000e+00 -4.1870980661487983e-01  8.4835639950667385e+00 0.0000000000000000e+00 -6.1091861419758120e-01  9.3353513470090785e+00 0.0000000000000000e+00 -7.7766870947596989e-02  8.9482758190784786e+00 0.0000000000000000e+00 5.4070468816431372e-01  7.8447388334736754e+00 0.0000000000000000e+00 -5.8963347834110252e-02  8.9226467629965782e+00 0.0000000000000000e+00 -6.4370449321469336e-01  9.2449788558878332e+00 0.0000000000000000e+00 -8.4333685645753526e-02  8.4461808979480697e+00 0.0000000000000000e+00 5.3477434296155035e-01  7.7380252327269687e+00 0.0000000000000000e+00 2.3455662169190811e-01  7.7754925771795191e+00 0.0000000000000000e+00 -2.9722018557689606e-01  7.7248228925415257e+00 0.0000000000000000e+00 1.1092608165234250e-01  8.2079652849679459e+00 0.0000000000000000e+00 -1.3437198385746496e-01  8.0033226678889235e+00 0.0000000000000000e+00 -2.1608667619623999e-02  8.0639674124503689e+00 0.0000000000000000e+00 6.4188042476807598e-03  8.0832839051870788e+00 0.0000000000000000e+00 -6.1994775711827543e-02  8.1297777106905009e+00 0.0000000000000000e+00 -1.4388157621360679e-02  8.0245808513705690e+00 0.0000000000000000e+00 -2.7841171657514815e-02  8.2598017641232619e+00 0.0000000000000000e+00 9.6244015540096779e-03  8.0507335083667524e+00 0.0000000000000000e+00 -1.6051474077327424e-01  8.4276125878686958e+00 0.0000000000000000e+00 1.4853373359737682e-01  8.3297086749268967e+00 0.0000000000000000e+00 -3.5885891013996091e-01  8.4721979685169941e+00 0.0000000000000000e+00 -5.2418876064247522e-01  9.7804279706529460e+00 0.0000000000000000e+00 4.7543841383249258e-01  1.0419292384591172e+01 -8.5687809152408756e-01 0.0000000000000000e+00  5.4262005249601195e+00 4.6997355059986452e+00 0.0000000000000000e+00  3.8942707470842177e+00 7.5123049977211407e+00 0.0000000000000000e+00  3.7465371846251170e+00 6.9893447745182700e+00 0.0000000000000000e+00  4.1504962419485283e+00 7.2885171540020108e+00 0.0000000000000000e+00  3.9147649837911289e+00 7.1310060947167866e+00 0.0000000000000000e+00  3.9496801600046432e+00 7.3819833789389548e+00 0.0000000000000000e+00  3.9469619333472403e+00 7.0316875738911460e+00 0.0000000000000000e+00  3.9912794653629007e+00 7.1906111800606860e+00 0.0000000000000000e+00  3.9807831553456929e+00 7.1794132657804806e+00 0.0000000000000000e+00  3.9106768004517112e+00 7.0223382198038644e+00 0.0000000000000000e+00  4.0055826761059530e+00 7.2433231825178996e+00 0.0000000000000000e+00  3.9047642301585967e+00 6.9658774537294912e+00 0.0000000000000000e+00  3.9880957160028796e+00 7.2154861118071221e+00 0.0000000000000000e+00  3.8996863233024923e+00 6.9812626849266470e+00 0.0000000000000000e+00  4.0158909950259307e+00 7.1606496815083869e+00 0.0000000000000000e+00  3.9024920187200403e+00 7.0680106684656190e+00 0.0000000000000000e+00  3.9560430910435871e+00 7.1689604444975350e+00 0.0000000000000000e+00  3.9335424808770658e+00 7.0869126654339079e+00 0.0000000000000000e+00  3.9602789759189707e+00 7.2249614026681819e+00 0.0000000000000000e+00  3.9058480646006180e+00 7.1694797933714129e+00 0.0000000000000000e+00  3.9514438091820692e+00 7.2632080190263055e+00 0.0000000000000000e+00  3.9414107095682471e+00 7.1872583293940897e+00 0.0000000000000000e+00  3.9509706981943240e+00 7.2783661724186199e+00 0.0000000000000000e+00  3.9452623462379233e+00 7.2963511505730008e+00 0.0000000000000000e+00  3.9485748525232012e+00 7.2638050158292069e+00 0.0000000000000000e+00  3.9443480310648003e+00 7.3149143115060093e+00 0.0000000000000000e+00  3.9710194578583446e+00 7.3468584863327697e+00 0.0000000000000000e+00  3.9174942776665649e+00 7.3412328182586339e+00 0.0000000000000000e+00  3.9721741523942069e+00 7.3302342623676209e+00 0.0000000000000000e+00  3.9620979575975244e+00 7.3250418327927864e+00 0.0000000000000000e+00  3.9467796791254259e+00 7.3092199324801514e+00 0.0000000000000000e+00  3.9677393069994213e+00 7.3512800440020891e+00 0.0000000000000000e+00  3.9509838611071721e+00 7.3240347950008919e+00 0.0000000000000000e+00  3.9471741748954892e+00 7.3396642534707031e+00 0.0000000000000000e+00  3.9609600512805438e+00 7.3366958811141494e+00 0.0000000000000000e+00  3.9805956921416841e+00 7.2297911451021992e+00 0.0000000000000000e+00  3.9585897585113763e+00 7.3145268506688907e+00 0.0000000000000000e+00  3.9577846805781012e+00 7.3535428363186153e+00 0.0000000000000000e+00  3.9562902866692284e+00 7.2744383215308908e+00 0.0000000000000000e+00  3.9752028342426531e+00 7.3136063012225270e+00 0.0000000000000000e+00  3.9503466598247194e+00 7.3219028009821221e+00 0.00000