<?xml version="1.0"?>
<VTKFile type="UnstructuredGrid"  version="0.1"  >
<UnstructuredGrid>
<Piece  NumberOfPoints="9509" NumberOfCells="18536">
<Points>
<DataArray  type="Float64"  NumberOfComponents="3"  format="ascii">-5 -1 0  5 -1 0  5 1 0  -5 1 0  -4.949999999999965 -1 0  -4.899999999999877 -1 0  -4.849999999999826 -1 0  -4.799999999999754 -1 0  -4.749999999999695 -1 0  -4.69999999999963 -1 0  -4.649999999999565 -1 0  -4.599999999999507 -1 0  -4.549999999999454 -1 0  -4.499999999999384 -1 0  -4.449999999999317 -1 0  -4.399999999999261 -1 0  -4.349999999999206 -1 0  -4.299999999999137 -1 0  -4.249999999999075 -1 0  -4.199999999999013 -1 0  -4.149999999998934 -1 0  -4.09999999999889 -1 0  -4.049999999998847 -1 0  -3.999999999998767 -1 0  -3.949999999998706 -1 0  -3.899999999998644 -1 0  -3.849999999998594 -1 0  -3.799999999998552 -1 0  -3.749999999998549 -1 0  -3.699999999998651 -1 0  -3.649999999998804 -1 0  -3.59999999999894 -1 0  -3.549999999999097 -1 0  -3.499999999999261 -1 0  -3.449999999999394 -1 0  -3.399999999999582 -1 0  -3.349999999999742 -1 0  -3.299999999999902 -1 0  -3.25000000000006 -1 0  -3.200000000000223 -1 0  -3.150000000000369 -1 0  -3.100000000000544 -1 0  -3.050000000000704 -1 0  -3.000000000000864 -1 0  -2.950000000001029 -1 0  -2.900000000001185 -1 0  -2.850000000001347 -1 0  -2.800000000001506 -1 0  -2.750000000001665 -1 0  -2.700000000001827 -1 0  -2.650000000001979 -1 0  -2.600000000002148 -1 0  -2.550000000002311 -1 0  -2.500000000002468 -1 0  -2.450000000002635 -1 0  -2.400000000002789 -1 0  -2.35000000000295 -1 0  -2.30000000000311 -1 0  -2.250000000003253 -1 0  -2.200000000003431 -1 0  -2.150000000003601 -1 0  -2.100000000003752 -1 0  -2.050000000003922 -1 0  -2.000000000004072 -1 0  -1.950000000004237 -1 0  -1.900000000004393 -1 0  -1.850000000004541 -1 0  -1.800000000004714 -1 0  -1.750000000004886 -1 0  -1.700000000005035 -1 0  -1.650000000005206 -1 0  -1.600000000005355 -1 0  -1.550000000005516 -1 0  -1.500000000005676 -1 0  -1.450000000005824 -1 0  -1.400000000005996 -1 0  -1.350000000006146 -1 0  -1.300000000006318 -1 0  -1.250000000006505 -1 0  -1.200000000006638 -1 0  -1.150000000006797 -1 0  -1.100000000006959 -1 0  -1.050000000007106 -1 0  -1.000000000007245 -1 0  -0.9500000000072193 -1 0  -0.9000000000072612 -1 0  -0.8500000000071966 -1 0  -0.8000000000071381 -1 0  -0.750000000007085 -1 0  -0.700000000007015 -1 0  -0.6500000000069521 -1 0  -0.6000000000068919 -1 0  -0.5500000000068104 -1 0  -0.5000000000067688 -1 0  -0.4500000000067104 -1 0  -0.4000000000066457 -1 0  -0.3500000000065757 -1 0  -0.3000000000065226 -1 0  -0.2500000000064961 -1 0  -0.2000000000063995 -1 0  -0.1500000000063775 -1 0  -0.1000000000062764 -1 0  -0.0500000000062597 -1 0  -6.153300091682468e-12 -1 0  0.04999999999390781 -1 0  0.09999999999396891 -1 0  0.14999999999403 -1 0  0.1999999999940929 -1 0  0.2499999999941318 -1 0  0.299999999994216 -1 0  0.349999999994254 -1 0  0.3999999999943391 -1 0  0.4499999999944038 -1 0  0.4999999999944613 -1 0  0.5499999999945429 -1 0  0.5999999999945853 -1 0  0.6499999999946606 -1 0  0.6999999999947084 -1 0  0.7499999999947651 -1 0  0.7999999999948315 -1 0  0.8499999999948926 -1 0  0.8999999999949537 -1 0  0.9499999999950148 -1 0  0.9999999999950768 -1 0  1.049999999995139 -1 0  1.0999999999952 -1 0  1.149999999995266 -1 0  1.199999999995324 -1 0  1.249999999995385 -1 0  1.299999999995446 -1 0  1.349999999995488 -1 0  1.399999999995569 -1 0  1.449999999995604 -1 0  1.499999999995692 -1 0  1.549999999995753 -1 0  1.599999999995816 -1 0  1.649999999995892 -1 0  1.699999999995939 -1 0  1.749999999996017 -1 0  1.799999999996063 -1 0  1.849999999996111 -1 0  1.899999999996185 -1 0  1.949999999996246 -1 0  1.999999999996308 -1 0  2.049999999996351 -1 0  2.099999999996431 -1 0  2.149999999996504 -1 0  2.199999999996555 -1 0  2.249999999996616 -1 0  2.299999999996677 -1 0  2.349999999996736 -1 0  2.3999999999968 -1 0  2.449999999996847 -1 0  2.499999999996923 -1 0  2.549999999997 -1 0  2.599999999997047 -1 0  2.649999999997093 -1 0  2.69999999999717 -1 0  2.749999999997245 -1 0  2.799999999997293 -1 0  2.849999999997344 -1 0  2.899999999997416 -1 0  2.949999999997469 -1 0  2.999999999997539 -1 0  3.049999999997576 -1 0  3.099999999997662 -1 0  3.149999999997725 -1 0  3.199999999997784 -1 0  3.249999999997829 -1 0  3.299999999997908 -1 0  3.349999999997921 -1 0  3.39999999999803 -1 0  3.4499999999981 -1 0  3.499999999998153 -1 0  3.549999999998214 -1 0  3.599999999998277 -1 0  3.649999999998409 -1 0  3.699999999998401 -1 0  3.749999999998444 -1 0  3.799999999998523 -1 0  3.849999999998602 -1 0  3.899999999998645 -1 0  3.949999999998658 -1 0  3.999999999998769 -1 0  4.049999999998814 -1 0  4.099999999998893 -1 0  4.149999999998883 -1 0  4.199999999999015 -1 0  4.249999999999064 -1 0  4.299999999999137 -1 0  4.349999999999152 -1 0  4.399999999999261 -1 0  4.44999999999933 -1 0  4.499999999999385 -1 0  4.549999999999446 -1 0  4.599999999999508 -1 0  4.649999999999633 -1 0  4.699999999999632 -1 0  4.749999999999723 -1 0  4.799999999999754 -1 0  4.849999999999801 -1 0  4.899999999999876 -1 0  4.949999999999925 -1 0  5 -0.950000000000111 0  5 -0.9000000000002774 0  5 -0.8500000000004283 0  5 -0.8000000000005548 0  5 -0.7500000000006787 0  5 -0.7000000000008322 0  5 -0.6500000000009709 0  5 -0.6000000000011096 0  5 -0.5500000000012484 0  5 -0.500000000001387 0  5 -0.4500000000015256 0  5 -0.4000000000016644 0  5 -0.3500000000018031 0  5 -0.3000000000019418 0  5 -0.2500000000020806 0  5 -0.2000000000022192 0  5 -0.1500000000023578 0  5 -0.1000000000024964 0  5 -0.05000000000262439 0  5 -2.752242878045763e-12 0  5 0.0499999999973757 0  5 0.09999999999750342 0  5 0.1499999999976422 0  5 0.1999999999977808 0  5 0.2499999999979194 0  5 0.2999999999980583 0  5 0.3499999999981969 0  5 0.3999999999983355 0  5 0.4499999999984743 0  5 0.4999999999986129 0  5 0.5499999999987515 0  5 0.5999999999988903 0  5 0.6499999999990291 0  5 0.699999999999168 0  5 0.7499999999993068 0  5 0.7999999999994454 0  5 0.849999999999584 0  5 0.8999999999997226 0  5 0.9499999999998612 0  4.949999999999965 1 0  4.899999999999877 1 0  4.849999999999826 1 0  4.799999999999754 1 0  4.749999999999695 1 0  4.69999999999963 1 0  4.649999999999565 1 0  4.599999999999507 1 0  4.549999999999454 1 0  4.499999999999384 1 0  4.449999999999317 1 0  4.399999999999261 1 0  4.349999999999206 1 0  4.299999999999137 1 0  4.249999999999075 1 0  4.199999999999013 1 0  4.149999999998934 1 0  4.09999999999889 1 0  4.049999999998847 1 0  3.999999999998767 1 0  3.949999999998706 1 0  3.899999999998644 1 0  3.849999999998594 1 0  3.799999999998552 1 0  3.749999999998549 1 0  3.699999999998651 1 0  3.649999999998804 1 0  3.59999999999894 1 0  3.549999999999097 1 0  3.499999999999261 1 0  3.449999999999394 1 0  3.399999999999582 1 0  3.349999999999742 1 0  3.299999999999902 1 0  3.25000000000006 1 0  3.200000000000223 1 0  3.150000000000369 1 0  3.100000000000544 1 0  3.050000000000704 1 0  3.000000000000864 1 0  2.950000000001029 1 0  2.900000000001185 1 0  2.850000000001347 1 0  2.800000000001506 1 0  2.750000000001665 1 0  2.700000000001827 1 0  2.650000000001979 1 0  2.600000000002148 1 0  2.550000000002311 1 0  2.500000000002468 1 0  2.450000000002635 1 0  2.400000000002789 1 0  2.35000000000295 1 0  2.30000000000311 1 0  2.250000000003253 1 0  2.200000000003431 1 0  2.150000000003601 1 0  2.100000000003752 1 0  2.050000000003922 1 0  2.000000000004072 1 0  1.950000000004237 1 0  1.900000000004393 1 0  1.850000000004541 1 0  1.800000000004714 1 0  1.750000000004886 1 0  1.700000000005035 1 0  1.650000000005206 1 0  1.600000000005355 1 0  1.550000000005516 1 0  1.500000000005676 1 0  1.450000000005824 1 0  1.400000000005996 1 0  1.350000000006146 1 0  1.300000000006318 1 0  1.250000000006505 1 0  1.200000000006638 1 0  1.150000000006797 1 0  1.100000000006959 1 0  1.050000000007106 1 0  1.000000000007245 1 0  0.9500000000072193 1 0  0.9000000000072612 1 0  0.8500000000071966 1 0  0.8000000000071381 1 0  0.750000000007085 1 0  0.700000000007015 1 0  0.6500000000069521 1 0  0.6000000000068919 1 0  0.5500000000068104 1 0  0.5000000000067688 1 0  0.4500000000067104 1 0  0.4000000000066457 1 0  0.3500000000065757 1 0  0.3000000000065226 1 0  0.2500000000064961 1 0  0.2000000000063995 1 0  0.1500000000063775 1 0  0.1000000000062764 1 0  0.0500000000062597 1 0  6.153300091682468e-12 1 0  -0.04999999999390781 1 0  -0.09999999999396891 1 0  -0.14999999999403 1 0  -0.1999999999940929 1 0  -0.2499999999941318 1 0  -0.299999999994216 1 0  -0.349999999994254 1 0  -0.3999999999943391 1 0  -0.4499999999944038 1 0  -0.4999999999944613 1 0  -0.5499999999945429 1 0  -0.5999999999945853 1 0  -0.6499999999946606 1 0  -0.6999999999947084 1 0  -0.7499999999947651 1 0  -0.7999999999948315 1 0  -0.8499999999948926 1 0  -0.8999999999949537 1 0  -0.9499999999950148 1 0  -0.9999999999950768 1 0  -1.049999999995139 1 0  -1.0999999999952 1 0  -1.149999999995266 1 0  -1.199999999995324 1 0  -1.249999999995385 1 0  -1.299999999995446 1 0  -1.349999999995488 1 0  -1.399999999995569 1 0  -1.449999999995604 1 0  -1.499999999995692 1 0  -1.549999999995753 1 0  -1.599999999995816 1 0  -1.649999999995892 1 0  -1.699999999995939 1 0  -1.749999999996017 1 0  -1.799999999996063 1 0  -1.849999999996111 1 0  -1.899999999996185 1 0  -1.949999999996246 1 0  -1.999999999996308 1 0  -2.049999999996351 1 0  -2.099999999996431 1 0  -2.149999999996504 1 0  -2.199999999996555 1 0  -2.249999999996616 1 0  -2.299999999996677 1 0  -2.349999999996736 1 0  -2.3999999999968 1 0  -2.449999999996847 1 0  -2.499999999996923 1 0  -2.549999999997 1 0  -2.599999999997047 1 0  -2.649999999997093 1 0  -2.69999999999717 1 0  -2.749999999997245 1 0  -2.799999999997293 1 0  -2.849999999997344 1 0  -2.899999999997416 1 0  -2.949999999997469 1 0  -2.999999999997539 1 0  -3.049999999997576 1 0  -3.099999999997662 1 0  -3.149999999997725 1 0  -3.199999999997784 1 0  -3.249999999997829 1 0  -3.29999
[...]
<PointData  Vectors="(h, u)"> 
<DataArray  type="Float64"  Name="(h, u)"  NumberOfComponents="3" format="ascii">7.4774817490086996e+00 0.0000000000000000e+00 0.0000000000000000e+00  9.5138117042990746e+00 0.0000000000000000e+00 0.0000000000000000e+00  9.5116573747955186e+00 0.0000000000000000e+00 0.0000000000000000e+00  7.4775164306949407e+00 0.0000000000000000e+00 0.0000000000000000e+00  7.4687954309440991e+00 9.3347851367033496e-02 0.0000000000000000e+00  7.4768452785240669e+00 1.8503541334100951e-01 0.0000000000000000e+00  7.4663003610866348e+00 2.7026011169868214e-01 0.0000000000000000e+00  7.4718583383529626e+00 3.6459476603311008e-01 0.0000000000000000e+00  7.4623915306983406e+00 4.5947814404903670e-01 0.0000000000000000e+00  7.4650485322028350e+00 5.3982635968006187e-01 0.0000000000000000e+00  7.4524923816730686e+00 6.3319557526246706e-01 0.0000000000000000e+00  7.4570113811782219e+00 7.3930046630243862e-01 0.0000000000000000e+00  7.4419355236106774e+00 7.9283854874691984e-01 0.0000000000000000e+00  7.4450258541320107e+00 8.9568345485378009e-01 0.0000000000000000e+00  7.4297381632104953e+00 1.0080345491762570e+00 0.0000000000000000e+00  7.4286410833357932e+00 1.0628483604551116e+00 0.0000000000000000e+00  7.4122592481129734e+00 1.1597152461085436e+00 0.0000000000000000e+00  7.4129607084279012e+00 1.2714607999917793e+00 0.0000000000000000e+00  7.3910630270249467e+00 1.3274313095129393e+00 0.0000000000000000e+00  7.3888990383840971e+00 1.4237273131858288e+00 0.0000000000000000e+00  7.3728525339151130e+00 1.5276659065880229e+00 0.0000000000000000e+00  7.3612923083503397e+00 1.5941923973023571e+00 0.0000000000000000e+00  7.3431699039631235e+00 1.6695425430473458e+00 0.0000000000000000e+00  7.3386209089583030e+00 1.7962309382076991e+00 0.0000000000000000e+00  7.3106362336106265e+00 1.8307569001414949e+00 0.0000000000000000e+00  7.3008441781583633e+00 1.9401556443088628e+00 0.0000000000000000e+00  7.2851806340588263e+00 2.0218670590431174e+00 0.0000000000000000e+00  7.2614741252112873e+00 2.1069037206598060e+00 0.0000000000000000e+00  7.2402491997246203e+00 2.1457756658587739e+00 0.0000000000000000e+00  7.2313264966808548e+00 2.3135809082663781e+00 0.0000000000000000e+00  7.1958391723798423e+00 2.2877457965751176e+00 0.0000000000000000e+00  7.1770642071448565e+00 2.4405973974118131e+00 0.0000000000000000e+00  7.1629259793494171e+00 2.5049275070969408e+00 0.0000000000000000e+00  7.1266128672207634e+00 2.5297860840646615e+00 0.0000000000000000e+00  7.1002498152389730e+00 2.6972207353312760e+00 0.0000000000000000e+00  7.0887762566654056e+00 2.6552036894264535e+00 0.0000000000000000e+00  7.0458912352774794e+00 2.8541283254565908e+00 0.0000000000000000e+00  7.0147843688010543e+00 2.8011345761371995e+00 0.0000000000000000e+00  7.0056061800174421e+00 2.9623108771103448e+00 0.0000000000000000e+00  6.9546412410153309e+00 3.0054895521923113e+00 0.0000000000000000e+00  6.9230941834811439e+00 3.0332248883259672e+00 0.0000000000000000e+00  6.9098608814350442e+00 3.1541682740534025e+00 0.0000000000000000e+00  6.8601121520321477e+00 3.2128193022180209e+00 0.0000000000000000e+00  6.8187624433097067e+00 3.2165184622802276e+00 0.0000000000000000e+00  6.8115282204655250e+00 3.3685339745166893e+00 0.0000000000000000e+00  6.7537642841162011e+00 3.3574555953843714e+00 0.0000000000000000e+00  6.7126229164785833e+00 3.4676962059944674e+00 0.0000000000000000e+00  6.7008107387945781e+00 3.4898524394530170e+00 0.0000000000000000e+00  6.6448621060729325e+00 3.5655395249558177e+00 0.0000000000000000e+00  6.5976003391044680e+00 3.6610854756685907e+00 0.0000000000000000e+00  6.5841801130849911e+00 3.6350902583156297e+00 0.0000000000000000e+00  6.5288898940295992e+00 3.7692160984199332e+00 0.0000000000000000e+00  6.4798662945198870e+00 3.8147261397800056e+00 0.0000000000000000e+00  6.4595868097850762e+00 3.8272512885621897e+00 0.0000000000000000e+00  6.4095811797406874e+00 3.9265208725489513e+00 0.0000000000000000e+00  6.3613566590651054e+00 3.9943872466386581e+00 0.0000000000000000e+00  6.3272683889036454e+00 3.9862722731375215e+00 0.0000000000000000e+00  6.2911185931488713e+00 4.1182292030516763e+00 0.0000000000000000e+00  6.2394212857859976e+00 4.1338518727741924e+00 0.0000000000000000e+00  6.1965467579910722e+00 4.1737147841209712e+00 0.0000000000000000e+00  6.1656817848387027e+00 4.2803075007507649e+00 0.0000000000000000e+00  6.1260993858255866e+00 4.2938480546578663e+00 0.0000000000000000e+00  6.0572587276046290e+00 4.3416161715041843e+00 0.0000000000000000e+00  6.0476635074418441e+00 4.4531491212225420e+00 0.0000000000000000e+00  6.0039041191757860e+00 4.4410216359288048e+00 0.0000000000000000e+00  5.9299822877469834e+00 4.5141301817413026e+00 0.0000000000000000e+00  5.9165319119076303e+00 4.6318522700801230e+00 0.0000000000000000e+00  5.8908585557479727e+00 4.5636991879190862e+00 0.0000000000000000e+00  5.7954664028134610e+00 4.7276813148137311e+00 0.0000000000000000e+00  5.7948051116250729e+00 4.7548280889388197e+00 0.0000000000000000e+00  5.7649130158075215e+00 4.7528983910003548e+00 0.0000000000000000e+00  5.6792623488369207e+00 4.8667185312109842e+00 0.0000000000000000e+00  5.6648301847614180e+00 4.9403581328558923e+00 0.0000000000000000e+00  5.6447295964150808e+00 4.8834780870240522e+00 0.0000000000000000e+00  5.5667142385037662e+00 5.0560401255315046e+00 0.0000000000000000e+00  5.5389095914482072e+00 5.0630284063011004e+00 0.0000000000000000e+00  5.5182290844365047e+00 5.0791323943879370e+00 0.0000000000000000e+00  5.4546901313311471e+00 5.1988015478696425e+00 0.0000000000000000e+00  5.4197242137542094e+00 5.2067238253811494e+00 0.0000000000000000e+00  5.3780270800002326e+00 5.2876011269054715e+00 0.0000000000000000e+00  5.3519774597704650e+00 5.3149783774394761e+00 0.0000000000000000e+00  5.2864916276755745e+00 5.4002155653212984e+00 0.0000000000000000e+00  5.2622282354369760e+00 5.4289664222263481e+00 0.0000000000000000e+00  5.2140132279051929e+00 5.5153182946786821e+00 0.0000000000000000e+00  5.1898265185368517e+00 5.5151056934846237e+00 0.0000000000000000e+00  5.1254564456769947e+00 5.6253306105860634e+00 0.0000000000000000e+00  5.1122680479041547e+00 5.6529936468097484e+00 0.0000000000000000e+00  5.0485905042129922e+00 5.6995525016038737e+00 0.0000000000000000e+00  5.0440810693196871e+00 5.7523869979693005e+00 0.0000000000000000e+00  4.9537441993082112e+00 5.8642970635182641e+00 0.0000000000000000e+00  4.9775307816341758e+00 5.7984464005524945e+00 0.0000000000000000e+00  4.8924520510249483e+00 5.9817031401765908e+00 0.0000000000000000e+00  4.8705390505181274e+00 5.9623373808639641e+00 0.0000000000000000e+00  4.8388137271955403e+00 6.0145868017849073e+00 0.0000000000000000e+00  4.8120293922120068e+00 6.0949415858196483e+00 0.0000000000000000e+00  4.7134372013944308e+00 6.1751550470962506e+00 0.0000000000000000e+00  4.7582065957990061e+00 6.1542611407000853e+00 0.0000000000000000e+00  4.6848324154817131e+00 6.2609401708640862e+00 0.0000000000000000e+00  4.6433834690097830e+00 6.2830789963036384e+00 0.0000000000000000e+00  4.6232057741117076e+00 6.3697967039376691e+00 0.0000000000000000e+00  4.5955867377704127e+00 6.3578713194579777e+00 0.0000000000000000e+00  4.4818462684976925e+00 6.5603278348833767e+00 0.0000000000000000e+00  4.5652418917210342e+00 6.4231522573518420e+00 0.0000000000000000e+00  4.4668129661193525e+00 6.5652302752410616e+00 0.0000000000000000e+00  4.4163770214154958e+00 6.6486067888484763e+00 0.0000000000000000e+00  4.3476288914623131e+00 6.7436459394587329e+00 0.0000000000000000e+00  4.3732076495783616e+00 6.7033988668489703e+00 0.0000000000000000e+00  4.3090441044462269e+00 6.8190883553865991e+00 0.0000000000000000e+00  4.2737918799990968e+00 6.8285831849549714e+00 0.0000000000000000e+00  4.2094301027068077e+00 6.9755393181151675e+00 0.0000000000000000e+00  4.2228952553584964e+00 6.9042852831177983e+00 0.0000000000000000e+00  4.1223118357957942e+00 7.0989681426889675e+00 0.0000000000000000e+00  4.1221827605392383e+00 7.0802630706991891e+00 0.0000000000000000e+00  4.0840713988351007e+00 7.1274157593934495e+00 0.0000000000000000e+00  4.1017113620395644e+00 7.1499865944612724e+00 0.0000000000000000e+00  4.0077012779320391e+00 7.2411236115565503e+00 0.0000000000000000e+00  4.0353012469249823e+00 7.2427546422597908e+00 0.0000000000000000e+00  3.9970245267295743e+00 7.2972334359034061e+00 0.0000000000000000e+00  3.9601643854873556e+00 7.3459245324554256e+00 0.0000000000000000e+00  3.8658672796330915e+00 7.4653417338572883e+00 0.0000000000000000e+00  3.8357367981221455e+00 7.5628509846007246e+00 0.0000000000000000e+00  3.9719556146605344e+00 7.3159902035929125e+00 0.0000000000000000e+00  3.6847184065078395e+00 7.7658322956477619e+00 0.0000000000000000e+00  3.7778975921370956e+00 7.6488769688489384e+00 0.0000000000000000e+00  3.7124265638578069e+00 7.7341804056018324e+00 0.0000000000000000e+00  3.7161478480888035e+00 7.7017873161929913e+00 0.0000000000000000e+00  3.8878058869374765e+00 7.4769400885042865e+00 0.0000000000000000e+00  4.0821524444907018e+00 7.1414622300018635e+00 0.0000000000000000e+00  3.7890874099339849e+00 7.6102741393908797e+00 0.0000000000000000e+00  3.9503020208867881e+00 7.3510212277764913e+00 0.0000000000000000e+00  4.1909936574562190e+00 7.0239737303203436e+00 0.0000000000000000e+00  3.9647424236392239e+00 7.3176884503717146e+00 0.0000000000000000e+00  3.9787180846583170e+00 7.3770821361987462e+00 0.0000000000000000e+00  3.9908834174863257e+00 7.2276057181910760e+00 0.0000000000000000e+00  4.1016292019808054e+00 7.2021696327670410e+00 0.0000000000000000e+00  3.9397729599881939e+00 7.3654925804147471e+00 0.0000000000000000e+00  3.9273786081289437e+00 7.3825899549091645e+00 0.0000000000000000e+00  3.9381622099793594e+00 7.3343813276906777e+00 0.0000000000000000e+00  3.9888360813283179e+00 7.3871183034472105e+00 0.0000000000000000e+00  3.9052042136899443e+00 7.3170091006409841e+00 0.0000000000000000e+00  3.9750630161828346e+00 7.3808283172202591e+00 0.0000000000000000e+00  3.9860769166601600e+00 7.3047374282074200e+00 0.0000000000000000e+00  3.9405889982138751e+00 7.3640575741898271e+00 0.0000000000000000e+00  3.9381680070215088e+00 7.3416944003012281e+00 0.0000000000000000e+00  4.0003468431131317e+00 7.3862335584558396e+00 0.0000000000000000e+00  3.9240167297417510e+00 7.2754660599621381e+00 0.0000000000000000e+00  3.9995278562886178e+00 7.3832574257176260e+00 0.0000000000000000e+00  3.9556713952757985e+00 7.3321138570080358e+00 0.0000000000000000e+00  3.9779239677254199e+00 7.3072910546871253e+00 0.0000000000000000e+00  3.9727328424652590e+00 7.3493496722178504e+00 0.0000000000000000e+00  3.9708485670288658e+00 7.3813150370166500e+00 0.0000000000000000e+00  3.9315637574383526e+00 7.3001178058424925e+00 0.0000000000000000e+00  4.0285523214319641e+00 7.3313348281901813e+00 0.0000000000000000e+00  3.9761786097336671e+00 7.3507290155616509e+00 0.0000000000000000e+00  3.9563063632921542e+00 7.2946093271722443e+00 0.0000000000000000e+00  3.9873428666694148e+00 7.3527135818718659e+00 0.0000000000000000e+00  4.0021330276010492e+00 7.3794022803110684e+00 0.0000000000000000e+00  3.9357417724682668e+00 7.2396166921020679e+00 0.0000000000000000e+00  3.9718239784130489e+00 7.4463938955323803e+00 0.0000000000000000e+00  3.9978634771398740e+00 7.3278172649617046e+00 0.0000000000000000e+00  3.9543112651009049e+00 7.2713732451076991e+00 0.0000000000000000e+00  3.9662806271688273e+00 7.3750912195346423e+00 0.0000000000000000e+00  3.9934397670088870e+00 7.4461139103366172e+00 0.0000000000000000e+00  3.9273201214284237e+00 7.1959176842725316e+00 0.0000000000000000e+00  3.9711776714558003e+00 7.4373600190762037e+00 0.0000000000000000e+00  4.0077894966369012e+00 7.3994168018327686e+00 0.0000000000000000e+00  3.9240349015868872e+00 7.2116748812469895e+00 0.0000000000000000e+00  3.9908369512780006e+00 7.4019853322527096e+00 0.0000000000000000e+00  3.9777170405477080e+00 7.4456042572691343e+00 0.0000000000000000e+00  3.9523917048937292e+00 7.1950546238903854e+00 0.0000000000000000e+00  3.9346265790203887e+00 7.4183623375215539e+00 0.0000000000000000e+00  4.0319753478086540e+00 7.4383289554583456e+00 0.0000000000000000e+00  3.9173643397375169e+00 7.1915745030495364e+00 0.0000000000000000e+00  3.9688186871356961e+00 7.4189553384435785e+00 0.0000000000000000e+00  3.9905009881400910e+00 7.4449384590934971e+00 0.0000000000000000e+00  3.9510066976118887e+00 7.1672684477783193e+00 0.0000000000000000e+00  3.9521299310572617e+00 7.4831303781030805e+00 0.0000000000000000e+00  3.9787510927879204e+00 7.3373778353532408e+00 0.0000000000000000e+00  3.9785430704852276e+00 7.3092798918076021e+00 0.0000000000000000e+00  3.9308201526957349e+00 7.3544477550984517e+00 0.0000000000000000e+00  4.0025981392357037e+00 7.4185910277336555e+00 0.0000000000000000e+00  3.9419399307704461e+00 7.2707473874562973e+00 0.0000000000000000e+00  3.9634281773582649e+00 7.3993687006159945e+00 0.0000000000000000e+00  3.9749775560189224e+00 7.3477327032149615e+00 0.0000000000000000e+00  3.9776572002426320e+00 7.3443552453524834e+00 0.0000000000000000e+00  3.9218187644659519e+00 7.3313482914181902e+00 0.0000000000000000e+00  4.0063736725471193e+00 7.3782654879592036e+00 0.0000000000000000e+00  3.9542009425513811e+00 7.4578820443603746e+00 0.0000000000000000e+00  4.0814250341791212e+00 6.8634478210093945e+00 0.0000000000000000e+00  3.6115096384120329e+00 7.9689209490830981e+00 0.0000000000000000e+00  9.8096506517537279e+00 -2.0364745594100653e-01 0.0000000000000000e+00  8.8896613741735937e+00 6.0064502600361847e-01 0.0000000000000000e+00  9.8067424884662060e+00 -2.6588382342213657e-01 0.0000000000000000e+00  9.3345039336500548e+00 1.8401645883019341e-01 0.0000000000000000e+00  9.6053719406141589e+00 -8.8847903231024927e-02 0.0000000000000000e+00  9.5595396981493952e+00 -2.0388317350586559e-02 0.0000000000000000e+00  9.4881938324770818e+00 1.7111924780494312e-02 0.0000000000000000e+00  9.5139357734010694e+00 -2.5338431361779594e-02 0.0000000000000000e+00  9.5331020300948150e+00 3.5150110943388435e-02 0.0000000000000000e+00  9.5374782315256272e+00 -1.0554377234687916e-01 0.0000000000000000e+00  9.4973118893973911e+00 2.0846353081520257e-02 0.0000000000000000e+00  9.5103568484165653e+00 -3.6180290823608109e-02 0.0000000000000000e+00  9.5023889496870506e+00 -1.8025489563338021e-01 0.0000000000000000e+00  9.4954869745078163e+00 0.0000000000000000e+00 -7.7933135984707691e-02  9.5076338291736171e+00 0.0000000000000000e+00 -3.3640910418936854e-02  9.4958924397922644e+00 0.0000000000000000e+00 -3.3634443703768162e-02  9.5001579465889261e+00 0.0000000000000000e+00 -7.7778800868227804e-02  9.5037341813004002e+00 0.0000000000000000e+00 3.5978935664669372e-02  9.4992308740753302e+00 0.0000000000000000e+00 5.6521497003785268e-02  9.4877755733686175e+00 0.0000000000000000e+00 8.1445778927145135e-03  9.5118751775572736e+00 0.0000000000000000e+00 -9.8975510449048676e-02  9.4978103921980512e+00 0.0000000000000000e+00 -9.9566854052615589e-02  9.5262102766410504e+00 0.0000000000000000e+00 1.6058709059273615e-01  9.4805856848044900e+00 0.0000000000000000e+00 -2.5551267567556206e-02  9.5113584608028496e+00 0.0000000000000000e+00 2.9503184572630851e-02  9.5008743582694990e+00 0.0000000000000000e+00 -4.4096154326429923e-02  9.5202675399729841e+00 0.0000000000000000e+00 -3.3983119793684020e-02  9.5099439998654631e+00 0.0000000000000000e+00 -5.9253796273464575e-02  9.5063130768999358e+00 0.0000000000000000e+00 -1.5506181997223434e-01  9.4785810337981182e+00 0.0000000000000000e+00 -1.1055696041743711e-01  9.5229070477228905e+00 0.0000000000000000e+00 -2.7253659242511802e-01  9.4976145935939336e+00 0.0000000000000000e+00 3.1950574501181321e-02  9.5114228670767300e+00 0.0000000000000000e+00 8.7288703534556034e-02  9.4807160773801957e+00 0.0000000000000000e+00 -4.5538500092997820e-02  9.5011775901340947e+00 0.0000000000000000e+00 -1.8395443096145786e-01  9.4896779282720569e+00 0.0000000000000000e+00 -4.9135870346082161e-03  9.5192904909731979e+00 0.0000000000000000e+00 2.3146633341739914e-01  9.4672194455635292e+00 0.0000000000000000e+00 1.5186236563487807e-02  9.4797138873116502e+00 0.0000000000000000e+00 1.3882414229236317e-01  9.5261389097662743e+00 0.0000000000000000e+00 2.3772817228772850e-02  9.4548870436132511e+00 0.0000000000000000e+00 -1.3361332646694202e-01  9.4940858106607440e+00 0.0000000000000000e+00 -5.2214643541299337e-02  9.5195536582563474e+00 0.0000000000000000e+00 5.3714624215163299e-02  9.4766630857447698e+00 0.0000000000000000e+00 2.9911854607428807e-02  9.4820312957397590e+00 0.0000000000000000e+00 -1.0991097586074251e-01  9.4595784761747019e+00 0.0000000000000000e+00 -1.2877319725748472e-02  9.4270752907631046e+00 0.0000000000000000e+00 -1.6739569139629917e-01  9.4713467644819040e+00 0.0000000000000000e+00 -1.0481134727721790e-01  9.4259826091364829e+00 0.0000000000000000e+00 -1.1308185604741031e-01  9.4132186618981510e+00 0.0000000000000000e+00 -9.2322106588103234e-02  9.5245613448907527e+00 0.0000000000000000e+00 -2.3535922455385674e-01  9.4277185348905164e+00 0.0000000000000000e+00 -2.7236320313991855e-02  9.4168254509825058e+00 -3.4609171676107736e-01 0.0000000000000000e+00  9.5108703318840799e+00 -2.5578262041880107e-01 0.0000000000000000e+00  9.4814079591308253e+00 -1.4022896387150041e-01 0.0000000000000000e+00  9.4836942783355820e+00 -2.9484179449135745e-01 0.0000000000000000e+00  9.5014287243369893e+00 -8.7802425860546585e-01 0.0000000000000000e+00  9.4736409546795439e+00 -6.3537628097989463e-01 0.0000000000000000e+00  9.4337938151945959e+00 -4.3713935227366801e-01 0.0000000000000000e+00  9.4192155807212377e+00 -3.3515941905251279e-01 0.0000000000000000e+00  9.7461476217144138e+00 -7.0756026172094311e-01 0.0000000000000000e+00  9.3553487740556278e+00 -1.0439190543480742e-02 0.0000000000000000e+00  9.6429055542161386e+00 -2.5305073244807064e-01 0.0000000000000000e+00  8.8543201017524886e+00 4.6849959105407724e-01 0.0000000000000000e+00  9.8668659080559031e+00 -4.4411265531699140e-01 0.0000000000000000e+00  3.6924567122809031e+00 8.0951477876473223e+00 0.0000000000000000e+00  3.9100157492396810e+00 6.8396656884821789e+00 0.0000000000000000e+00  4.1199245057468055e+00 7.4164264133949489e+00 0.0000000000000000e+00  3.8293286219664653e+00 7.4501009328566061e+00 0.0000000000000000e+00  4.0134049464240871e+00 7.2056223232663612e+00 0.0000000000000000e+00  3.8507766458994062e+00 7.4222764680862747e+00 0.0000000000000000e+00  3.9533927418729378e+00 7.4184669845259101e+00 0.0000000000000000e+00  3.9197226669452014e+00 7.1967771576150055e+00 0.0000000000000000e+00  3.9734114536431622e+00 7.3378397823734680e+00 0.0000000000000000e+00  3.9713611841124763e+00 7.3390948748071034e+00 0.0000000000000000e+00  3.9125434492009785e+00 7.1686462365297476e+00 0.0000000000000000e+00  3.9433128687166086e+00 7.4383632374198108e+00 0.0000000000000000e+00  3.9456451324588238e+00 7.2733175618879535e+00 0.0000000000000000e+00  3.9116638743321728e+00 7.2325634999295882e+00 0.0000000000000000e+00  3.9601355987639106e+00 7.3908756783903602e+00 0.0000000000000000e+00  3.9073337524097984e+00 7.2563961749272750e+00 0.0000000000000000e+00  3.9287614193100220e+00 7.3285519902014444e+00 0.0000000000000000e+00  3.8963620628762108e+00 7.3879140589530916e+00 0.0000000000000000e+00  3.9219540217791118e+00 7.2716445118240314e+00 0.0000000000000000e+00  3.9391211260764076e+00 7.3246311999121065e+00 0.0000000000000000e+00  3.9317196292556322e+00 7.2956470616779630e+00 0.0000000000000000e+00  3.8721917798671304e+00 7.3726055928497436e+00 0.0000000000000000e+00  3.9524398736318060e+00 7.3146450839593777e+00 0.0000000000000000e+00  3.8359322230880526e+00 7.3766637137356090e+00 0.0000000000000000e+00  3.9093120761640510e+00 7.4026479115322541e+00 0.0000000000000000e+00  3.9370617818804456e+00 7.2997716843210112e+00 0.0000000000000000e+00  3.9174695441985929e+00 7.3458391274363102e+00 0.0000000000000000e+00  3.9119588817220485e+00 7.3590942434721214e+00 0.0000000000000000e+00  3.9806577238642027e+00 7.2763015