<?xml version="1.0"?>
<VTKFile type="UnstructuredGrid"  version="0.1"  >
<UnstructuredGrid>
<Piece  NumberOfPoints="9509" NumberOfCells="18536">
<Points>
<DataArray  type="Float64"  NumberOfComponents="3"  format="ascii">-5 -1 0  5 -1 0  5 1 0  -5 1 0  -4.949999999999965 -1 0  -4.899999999999877 -1 0  -4.849999999999826 -1 0  -4.799999999999754 -1 0  -4.749999999999695 -1 0  -4.69999999999963 -1 0  -4.649999999999565 -1 0  -4.599999999999507 -1 0  -4.549999999999454 -1 0  -4.499999999999384 -1 0  -4.449999999999317 -1 0  -4.399999999999261 -1 0  -4.349999999999206 -1 0  -4.299999999999137 -1 0  -4.249999999999075 -1 0  -4.199999999999013 -1 0  -4.149999999998934 -1 0  -4.09999999999889 -1 0  -4.049999999998847 -1 0  -3.999999999998767 -1 0  -3.949999999998706 -1 0  -3.899999999998644 -1 0  -3.849999999998594 -1 0  -3.799999999998552 -1 0  -3.749999999998549 -1 0  -3.699999999998651 -1 0  -3.649999999998804 -1 0  -3.59999999999894 -1 0  -3.549999999999097 -1 0  -3.499999999999261 -1 0  -3.449999999999394 -1 0  -3.399999999999582 -1 0  -3.349999999999742 -1 0  -3.299999999999902 -1 0  -3.25000000000006 -1 0  -3.200000000000223 -1 0  -3.150000000000369 -1 0  -3.100000000000544 -1 0  -3.050000000000704 -1 0  -3.000000000000864 -1 0  -2.950000000001029 -1 0  -2.900000000001185 -1 0  -2.850000000001347 -1 0  -2.800000000001506 -1 0  -2.750000000001665 -1 0  -2.700000000001827 -1 0  -2.650000000001979 -1 0  -2.600000000002148 -1 0  -2.550000000002311 -1 0  -2.500000000002468 -1 0  -2.450000000002635 -1 0  -2.400000000002789 -1 0  -2.35000000000295 -1 0  -2.30000000000311 -1 0  -2.250000000003253 -1 0  -2.200000000003431 -1 0  -2.150000000003601 -1 0  -2.100000000003752 -1 0  -2.050000000003922 -1 0  -2.000000000004072 -1 0  -1.950000000004237 -1 0  -1.900000000004393 -1 0  -1.850000000004541 -1 0  -1.800000000004714 -1 0  -1.750000000004886 -1 0  -1.700000000005035 -1 0  -1.650000000005206 -1 0  -1.600000000005355 -1 0  -1.550000000005516 -1 0  -1.500000000005676 -1 0  -1.450000000005824 -1 0  -1.400000000005996 -1 0  -1.350000000006146 -1 0  -1.300000000006318 -1 0  -1.250000000006505 -1 0  -1.200000000006638 -1 0  -1.150000000006797 -1 0  -1.100000000006959 -1 0  -1.050000000007106 -1 0  -1.000000000007245 -1 0  -0.9500000000072193 -1 0  -0.9000000000072612 -1 0  -0.8500000000071966 -1 0  -0.8000000000071381 -1 0  -0.750000000007085 -1 0  -0.700000000007015 -1 0  -0.6500000000069521 -1 0  -0.6000000000068919 -1 0  -0.5500000000068104 -1 0  -0.5000000000067688 -1 0  -0.4500000000067104 -1 0  -0.4000000000066457 -1 0  -0.3500000000065757 -1 0  -0.3000000000065226 -1 0  -0.2500000000064961 -1 0  -0.2000000000063995 -1 0  -0.1500000000063775 -1 0  -0.1000000000062764 -1 0  -0.0500000000062597 -1 0  -6.153300091682468e-12 -1 0  0.04999999999390781 -1 0  0.09999999999396891 -1 0  0.14999999999403 -1 0  0.1999999999940929 -1 0  0.2499999999941318 -1 0  0.299999999994216 -1 0  0.349999999994254 -1 0  0.3999999999943391 -1 0  0.4499999999944038 -1 0  0.4999999999944613 -1 0  0.5499999999945429 -1 0  0.5999999999945853 -1 0  0.6499999999946606 -1 0  0.6999999999947084 -1 0  0.7499999999947651 -1 0  0.7999999999948315 -1 0  0.8499999999948926 -1 0  0.8999999999949537 -1 0  0.9499999999950148 -1 0  0.9999999999950768 -1 0  1.049999999995139 -1 0  1.0999999999952 -1 0  1.149999999995266 -1 0  1.199999999995324 -1 0  1.249999999995385 -1 0  1.299999999995446 -1 0  1.349999999995488 -1 0  1.399999999995569 -1 0  1.449999999995604 -1 0  1.499999999995692 -1 0  1.549999999995753 -1 0  1.599999999995816 -1 0  1.649999999995892 -1 0  1.699999999995939 -1 0  1.749999999996017 -1 0  1.799999999996063 -1 0  1.849999999996111 -1 0  1.899999999996185 -1 0  1.949999999996246 -1 0  1.999999999996308 -1 0  2.049999999996351 -1 0  2.099999999996431 -1 0  2.149999999996504 -1 0  2.199999999996555 -1 0  2.249999999996616 -1 0  2.299999999996677 -1 0  2.349999999996736 -1 0  2.3999999999968 -1 0  2.449999999996847 -1 0  2.499999999996923 -1 0  2.549999999997 -1 0  2.599999999997047 -1 0  2.649999999997093 -1 0  2.69999999999717 -1 0  2.749999999997245 -1 0  2.799999999997293 -1 0  2.849999999997344 -1 0  2.899999999997416 -1 0  2.949999999997469 -1 0  2.999999999997539 -1 0  3.049999999997576 -1 0  3.099999999997662 -1 0  3.149999999997725 -1 0  3.199999999997784 -1 0  3.249999999997829 -1 0  3.299999999997908 -1 0  3.349999999997921 -1 0  3.39999999999803 -1 0  3.4499999999981 -1 0  3.499999999998153 -1 0  3.549999999998214 -1 0  3.599999999998277 -1 0  3.649999999998409 -1 0  3.699999999998401 -1 0  3.749999999998444 -1 0  3.799999999998523 -1 0  3.849999999998602 -1 0  3.899999999998645 -1 0  3.949999999998658 -1 0  3.999999999998769 -1 0  4.049999999998814 -1 0  4.099999999998893 -1 0  4.149999999998883 -1 0  4.199999999999015 -1 0  4.249999999999064 -1 0  4.299999999999137 -1 0  4.349999999999152 -1 0  4.399999999999261 -1 0  4.44999999999933 -1 0  4.499999999999385 -1 0  4.549999999999446 -1 0  4.599999999999508 -1 0  4.649999999999633 -1 0  4.699999999999632 -1 0  4.749999999999723 -1 0  4.799999999999754 -1 0  4.849999999999801 -1 0  4.899999999999876 -1 0  4.949999999999925 -1 0  5 -0.950000000000111 0  5 -0.9000000000002774 0  5 -0.8500000000004283 0  5 -0.8000000000005548 0  5 -0.7500000000006787 0  5 -0.7000000000008322 0  5 -0.6500000000009709 0  5 -0.6000000000011096 0  5 -0.5500000000012484 0  5 -0.500000000001387 0  5 -0.4500000000015256 0  5 -0.4000000000016644 0  5 -0.3500000000018031 0  5 -0.3000000000019418 0  5 -0.2500000000020806 0  5 -0.2000000000022192 0  5 -0.1500000000023578 0  5 -0.1000000000024964 0  5 -0.05000000000262439 0  5 -2.752242878045763e-12 0  5 0.0499999999973757 0  5 0.09999999999750342 0  5 0.1499999999976422 0  5 0.1999999999977808 0  5 0.2499999999979194 0  5 0.2999999999980583 0  5 0.3499999999981969 0  5 0.3999999999983355 0  5 0.4499999999984743 0  5 0.4999999999986129 0  5 0.5499999999987515 0  5 0.5999999999988903 0  5 0.6499999999990291 0  5 0.699999999999168 0  5 0.7499999999993068 0  5 0.7999999999994454 0  5 0.849999999999584 0  5 0.8999999999997226 0  5 0.9499999999998612 0  4.949999999999965 1 0  4.899999999999877 1 0  4.849999999999826 1 0  4.799999999999754 1 0  4.749999999999695 1 0  4.69999999999963 1 0  4.649999999999565 1 0  4.599999999999507 1 0  4.549999999999454 1 0  4.499999999999384 1 0  4.449999999999317 1 0  4.399999999999261 1 0  4.349999999999206 1 0  4.299999999999137 1 0  4.249999999999075 1 0  4.199999999999013 1 0  4.149999999998934 1 0  4.09999999999889 1 0  4.049999999998847 1 0  3.999999999998767 1 0  3.949999999998706 1 0  3.899999999998644 1 0  3.849999999998594 1 0  3.799999999998552 1 0  3.749999999998549 1 0  3.699999999998651 1 0  3.649999999998804 1 0  3.59999999999894 1 0  3.549999999999097 1 0  3.499999999999261 1 0  3.449999999999394 1 0  3.399999999999582 1 0  3.349999999999742 1 0  3.299999999999902 1 0  3.25000000000006 1 0  3.200000000000223 1 0  3.150000000000369 1 0  3.100000000000544 1 0  3.050000000000704 1 0  3.000000000000864 1 0  2.950000000001029 1 0  2.900000000001185 1 0  2.850000000001347 1 0  2.800000000001506 1 0  2.750000000001665 1 0  2.700000000001827 1 0  2.650000000001979 1 0  2.600000000002148 1 0  2.550000000002311 1 0  2.500000000002468 1 0  2.450000000002635 1 0  2.400000000002789 1 0  2.35000000000295 1 0  2.30000000000311 1 0  2.250000000003253 1 0  2.200000000003431 1 0  2.150000000003601 1 0  2.100000000003752 1 0  2.050000000003922 1 0  2.000000000004072 1 0  1.950000000004237 1 0  1.900000000004393 1 0  1.850000000004541 1 0  1.800000000004714 1 0  1.750000000004886 1 0  1.700000000005035 1 0  1.650000000005206 1 0  1.600000000005355 1 0  1.550000000005516 1 0  1.500000000005676 1 0  1.450000000005824 1 0  1.400000000005996 1 0  1.350000000006146 1 0  1.300000000006318 1 0  1.250000000006505 1 0  1.200000000006638 1 0  1.150000000006797 1 0  1.100000000006959 1 0  1.050000000007106 1 0  1.000000000007245 1 0  0.9500000000072193 1 0  0.9000000000072612 1 0  0.8500000000071966 1 0  0.8000000000071381 1 0  0.750000000007085 1 0  0.700000000007015 1 0  0.6500000000069521 1 0  0.6000000000068919 1 0  0.5500000000068104 1 0  0.5000000000067688 1 0  0.4500000000067104 1 0  0.4000000000066457 1 0  0.3500000000065757 1 0  0.3000000000065226 1 0  0.2500000000064961 1 0  0.2000000000063995 1 0  0.1500000000063775 1 0  0.1000000000062764 1 0  0.0500000000062597 1 0  6.153300091682468e-12 1 0  -0.04999999999390781 1 0  -0.09999999999396891 1 0  -0.14999999999403 1 0  -0.1999999999940929 1 0  -0.2499999999941318 1 0  -0.299999999994216 1 0  -0.349999999994254 1 0  -0.3999999999943391 1 0  -0.4499999999944038 1 0  -0.4999999999944613 1 0  -0.5499999999945429 1 0  -0.5999999999945853 1 0  -0.6499999999946606 1 0  -0.6999999999947084 1 0  -0.7499999999947651 1 0  -0.7999999999948315 1 0  -0.8499999999948926 1 0  -0.8999999999949537 1 0  -0.9499999999950148 1 0  -0.9999999999950768 1 0  -1.049999999995139 1 0  -1.0999999999952 1 0  -1.149999999995266 1 0  -1.199999999995324 1 0  -1.249999999995385 1 0  -1.299999999995446 1 0  -1.349999999995488 1 0  -1.399999999995569 1 0  -1.449999999995604 1 0  -1.499999999995692 1 0  -1.549999999995753 1 0  -1.599999999995816 1 0  -1.649999999995892 1 0  -1.699999999995939 1 0  -1.749999999996017 1 0  -1.799999999996063 1 0  -1.849999999996111 1 0  -1.899999999996185 1 0  -1.949999999996246 1 0  -1.999999999996308 1 0  -2.049999999996351 1 0  -2.099999999996431 1 0  -2.149999999996504 1 0  -2.199999999996555 1 0  -2.249999999996616 1 0  -2.299999999996677 1 0  -2.349999999996736 1 0  -2.3999999999968 1 0  -2.449999999996847 1 0  -2.499999999996923 1 0  -2.549999999997 1 0  -2.599999999997047 1 0  -2.649999999997093 1 0  -2.69999999999717 1 0  -2.749999999997245 1 0  -2.799999999997293 1 0  -2.849999999997344 1 0  -2.899999999997416 1 0  -2.949999999997469 1 0  -2.999999999997539 1 0  -3.049999999997576 1 0  -3.099999999997662 1 0  -3.149999999997725 1 0  -3.199999999997784 1 0  -3.249999999997829 1 0  -3.29999
[...]
<PointData  Vectors="(h, u)"> 
<DataArray  type="Float64"  Name="(h, u)"  NumberOfComponents="3" format="ascii">9.9999999999958664e+00 0.0000000000000000e+00 0.0000000000000000e+00  9.9999999999999922e-01 0.0000000000000000e+00 0.0000000000000000e+00  9.9999999999999933e-01 0.0000000000000000e+00 0.0000000000000000e+00  9.9999999999999236e+00 0.0000000000000000e+00 0.0000000000000000e+00  1.0000000000004839e+01 3.2869387042230985e-12 0.0000000000000000e+00  9.9999999999932996e+00 -5.5602527158312411e-12 0.0000000000000000e+00  1.0000000000005992e+01 4.7917897434810837e-12 0.0000000000000000e+00  9.9999999999907399e+00 -1.7205383296422768e-12 0.0000000000000000e+00  1.0000000000014683e+01 9.5909978373144310e-12 0.0000000000000000e+00  9.9999999999716138e+00 -2.1422596831438245e-11 0.0000000000000000e+00  1.0000000000035168e+01 2.6177166754296452e-11 0.0000000000000000e+00  9.9999999999411724e+00 -3.4148906258094970e-11 0.0000000000000000e+00  1.0000000000085176e+01 5.9171352777688257e-11 0.0000000000000000e+00  9.9999999998653237e+00 -9.4558244779718490e-11 0.0000000000000000e+00  1.0000000000201030e+01 1.4085736156412383e-10 0.0000000000000000e+00  9.9999999996961488e+00 -2.1201814621786057e-10 0.0000000000000000e+00  1.0000000000443471e+01 3.0703555350611296e-10 0.0000000000000000e+00  9.9999999993542801e+00 -4.4779087593309363e-10 0.0000000000000000e+00  1.0000000000946992e+01 6.6335427504730305e-10 0.0000000000000000e+00  9.9999999985943795e+00 -1.0022347236681962e-09 0.0000000000000000e+00  1.0000000002083784e+01 1.5135475880406391e-09 0.0000000000000000e+00  9.9999999969689259e+00 -2.2298986193648522e-09 0.0000000000000000e+00  1.0000000004289861e+01 3.1709118709652520e-09 0.0000000000000000e+00  9.9999999940421258e+00 -4.4023292673682743e-09 0.0000000000000000e+00  1.0000000008295501e+01 6.1399500797247805e-09 0.0000000000000000e+00  9.9999999882106057e+00 -8.8094679719627445e-09 0.0000000000000000e+00  1.0000000017038779e+01 1.2932847712544793e-08 0.0000000000000000e+00  9.9999999755518605e+00 -1.8816749239607871e-08 0.0000000000000000e+00  1.0000000033985371e+01 2.6306470733084042e-08 0.0000000000000000e+00  9.9999999544745624e+00 -3.5102553917277145e-08 0.0000000000000000e+00  1.0000000060040872e+01 4.5932759405623509e-08 0.0000000000000000e+00  9.9999999189916640e+00 -6.1923756870427899e-08 0.0000000000000000e+00  1.0000000114221704e+01 8.8467489748979362e-08 0.0000000000000000e+00  9.9999998354396897e+00 -1.3002459450352081e-07 0.0000000000000000e+00  1.0000000230906448e+01 1.8520502409649019e-07 0.0000000000000000e+00  9.9999996949228063e+00 -2.4557931731519522e-07 0.0000000000000000e+00  1.0000000381120763e+01 3.0498012197188522e-07 0.0000000000000000e+00  9.9999995257317487e+00 -3.7792190300305118e-07 0.0000000000000000e+00  1.0000000631877956e+01 5.1100508588396420e-07 0.0000000000000000e+00  9.9999990881922756e+00 -7.6136030525426587e-07 0.0000000000000000e+00  1.0000001319843845e+01 1.1363651591158703e-06 0.0000000000000000e+00  9.9999982455721010e+00 -1.5379633996714399e-06 0.0000000000000000e+00  1.0000002044968340e+01 1.8017252490471851e-06 0.0000000000000000e+00  9.9999978585754903e+00 -1.8801692215018766e-06 0.0000000000000000e+00  1.0000002338811026e+01 2.0660837293201642e-06 0.0000000000000000e+00  9.9999967466505328e+00 -2.9650886541926868e-06 0.0000000000000000e+00  1.0000005285261183e+01 4.9727521827095345e-06 0.0000000000000000e+00  9.9999922041781026e+00 -7.4597212697984970e-06 0.0000000000000000e+00  1.0000008865020606e+01 8.5420699086092941e-06 0.0000000000000000e+00  9.9999933350401289e+00 -6.4236934776580802e-06 0.0000000000000000e+00  1.0000002194080990e+01 2.0994295552033276e-06 0.0000000000000000e+00  9.9999990771633733e+00 -9.5316813514896722e-07 0.0000000000000000e+00  1.0000009704425390e+01 9.7290157918982943e-06 0.0000000000000000e+00  9.9999716080596208e+00 -2.8241406426769660e-05 0.0000000000000000e+00  1.0000042517100390e+01 4.2208355393649608e-05 0.0000000000000000e+00  9.9999711607655062e+00 -2.8700015788951773e-05 0.0000000000000000e+00  9.9999791210149382e+00 -2.0319567029577795e-05 0.0000000000000000e+00  1.0000072730266499e+01 7.1352344745866515e-05 0.0000000000000000e+00  9.9999442773790506e+00 -5.4256033585358998e-05 0.0000000000000000e+00  9.9999238949284486e+00 -7.6109153103380776e-05 0.0000000000000000e+00  1.0000254480895338e+01 2.5225540237031161e-04 0.0000000000000000e+00  9.9997193280628291e+00 -2.7755291458096969e-04 0.0000000000000000e+00  9.9999738022792055e+00 -2.6086237892739085e-05 0.0000000000000000e+00  1.0000562696078282e+01 5.5654990612182518e-04 0.0000000000000000e+00  9.9991801470046564e+00 -8.0965569227720415e-04 0.0000000000000000e+00  1.0000201568798765e+01 1.9780637739682928e-04 0.0000000000000000e+00  1.0001244206773585e+01 1.2325208499560840e-03 0.0000000000000000e+00  9.9976698561015152e+00 -2.3041783950397861e-03 0.0000000000000000e+00  1.0001325481400718e+01 1.3094121476141987e-03 0.0000000000000000e+00  1.0002192437627681e+01 2.1721527685366090e-03 0.0000000000000000e+00  9.9942771165538584e+00 -5.6619246363454464e-03 0.0000000000000000e+00  1.0004752869584298e+01 4.6988790893562598e-03 0.0000000000000000e+00  1.0002913051305230e+01 2.8855962063291159e-03 0.0000000000000000e+00  9.9874119016716332e+00 -1.2461134435966527e-02 0.0000000000000000e+00  1.0013628835395906e+01 1.3474549457890702e-02 0.0000000000000000e+00  1.0001204605932681e+01 1.1884442634509207e-03 0.0000000000000000e+00  9.9757304944276921e+00 -2.4044582194527212e-02 0.0000000000000000e+00  1.0032812895743096e+01 3.2428545645649162e-02 0.0000000000000000e+00  9.9922356381574424e+00 -7.7176961092039762e-03 0.0000000000000000e+00  9.9596169680756699e+00 -4.0041615895120009e-02 0.0000000000000000e+00  1.0067528437777337e+01 6.6722261329541177e-02 0.0000000000000000e+00  9.9685080924169789e+00 -3.1181518684709818e-02 0.0000000000000000e+00  9.9435990277009143e+00 -5.5733984408741534e-02 0.0000000000000000e+00  1.0117949208978184e+01 1.1704797159923581e-01 0.0000000000000000e+00  9.9243124900092621e+00 -7.3607272357190029e-02 0.0000000000000000e+00  9.9350542011175182e+00 -6.1004205716829699e-02 0.0000000000000000e+00  1.0169477006705224e+01 1.7469567085558138e-01 0.0000000000000000e+00  9.8627028776030130e+00 -1.2062819877950086e-01 0.0000000000000000e+00  9.9286910193008193e+00 -3.9161837901678036e-02 0.0000000000000000e+00  1.0175482812234803e+01 2.3409332175428488e-01 0.0000000000000000e+00  9.7803274477112030e+00 -1.0453922887840060e-01 0.0000000000000000e+00  9.8555939355250253e+00 6.0750193317940140e-02 0.0000000000000000e+00  1.0013165256653128e+01 3.6343180212941900e-01 0.0000000000000000e+00  9.5745136252166958e+00 1.5616365168584304e-01 0.0000000000000000e+00  9.5015407568820738e+00 4.2130052707856580e-01 0.0000000000000000e+00  9.4259165246438226e+00 8.1953595597461615e-01 0.0000000000000000e+00  8.9321048004652894e+00 9.6709244881677325e-01 0.0000000000000000e+00  8.5559089332336917e+00 1.4097775314829926e+00 0.0000000000000000e+00  8.1424070947967113e+00 2.0030220037195732e+00 0.0000000000000000e+00  7.5107021045289049e+00 2.5917830491896314e+00 0.0000000000000000e+00  6.8763539805894824e+00 3.3512127267188419e+00 0.0000000000000000e+00  6.1925323273309578e+00 4.2045585861656418e+00 0.0000000000000000e+00  5.4105557360550840e+00 5.1381037002628469e+00 0.0000000000000000e+00  4.6879048424615375e+00 6.1843507438797172e+00 0.0000000000000000e+00  3.7898626121124082e+00 7.5750978061686309e+00 0.0000000000000000e+00  3.2618477294288160e+00 8.4324994107020697e+00 0.0000000000000000e+00  3.5339820276241722e+00 7.9597748067954335e+00 0.0000000000000000e+00  3.8299243098192957e+00 7.4273969960302910e+00 0.0000000000000000e+00  3.8530284964665062e+00 7.2243561321177472e+00 0.0000000000000000e+00  3.6938331405446925e+00 7.0332243048681358e+00 0.0000000000000000e+00  3.3630313233031508e+00 6.4165941188722337e+00 0.0000000000000000e+00  2.7447861069247996e+00 5.1064170350198843e+00 0.0000000000000000e+00  1.8541973882586920e+00 2.8678841992174888e+00 0.0000000000000000e+00  1.0973546957344984e+00 2.2401712590307368e-01 0.0000000000000000e+00  9.8855080154525876e-01 -2.7856550028908703e-02 0.0000000000000000e+00  9.9737819249882509e-01 3.9752638093727413e-03 0.0000000000000000e+00  1.0007149190732532e+00 -2.4978715164144382e-03 0.0000000000000000e+00  1.0005152601914873e+00 -1.6284731312953993e-03 0.0000000000000000e+00  9.9928477381413872e-01 2.2394051437938148e-03 0.0000000000000000e+00  1.0003537537263831e+00 -1.1076188065905705e-03 0.0000000000000000e+00  9.9997464063656871e-01 7.9466872707427077e-05 0.0000000000000000e+00  9.9990850862948810e-01 2.8652235802976690e-04 0.0000000000000000e+00  1.0000731993194487e+00 -2.2922198107396899e-04 0.0000000000000000e+00  9.9997397233383845e-01 8.1509179243893838e-05 0.0000000000000000e+00  9.9999837447076545e-01 5.0906608179876987e-06 0.0000000000000000e+00  1.0000078740012601e+00 -2.4657813988090332e-05 0.0000000000000000e+00  9.9999509606445813e-01 1.5356987744414489e-05 0.0000000000000000e+00  1.0000013387073741e+00 -4.1922336920747177e-06 0.0000000000000000e+00  1.0000002906574406e+00 -9.1020860789455771e-07 0.0000000000000000e+00  9.9999949691386036e-01 1.5754430068704269e-06 0.0000000000000000e+00  1.0000002588308023e+00 -8.1054331004556666e-07 0.0000000000000000e+00  9.9999994717079954e-01 1.6543765961659365e-07 0.0000000000000000e+00  9.9999997638847293e-01 7.3940857316537772e-08 0.0000000000000000e+00  1.0000000264079361e+00 -8.2697958209332781e-08 0.0000000000000000e+00  9.9999998849339300e-01 3.6033587389162320e-08 0.0000000000000000e+00  1.0000000015925026e+00 -4.9870064127860076e-09 0.0000000000000000e+00  1.0000000014122439e+00 -4.4225227085698072e-09 0.0000000000000000e+00  9.9999999880240542e-01 3.7503332746266252e-09 0.0000000000000000e+00  1.0000000004462286e+00 -1.3973833847396667e-09 0.0000000000000000e+00  9.9999999996902622e-01 9.6994020123470432e-11 0.0000000000000000e+00  9.9999999992995292e-01 2.1935797504157741e-10 0.0000000000000000e+00  1.0000000000483804e+00 -1.5150900644378109e-10 0.0000000000000000e+00  9.9999999998460343e-01 4.8218650630131410e-11 0.0000000000000000e+00  9.9999999999985345e-01 4.5820160419611561e-13 0.0000000000000000e+00  1.0000000000030407e+00 -9.5221695588315507e-12 0.0000000000000000e+00  9.9999999999822242e-01 5.5647632124778512e-12 0.0000000000000000e+00  1.0000000000004778e+00 -1.4946832997092924e-12 0.0000000000000000e+00  1.0000000000000511e+00 -1.6186123531052152e-13 0.0000000000000000e+00  9.9999999999988187e-01 3.7325445649560726e-13 0.0000000000000000e+00  1.0000000000000593e+00 -1.8853300848831264e-13 0.0000000000000000e+00  9.9999999999998801e-01 4.1865531698764267e-14 0.0000000000000000e+00  9.9999999999999645e-01 9.7071160198086687e-15 0.0000000000000000e+00  1.0000000000000051e+00 -1.4503574604310347e-14 0.0000000000000000e+00  9.9999999999999700e-01 5.6675549221983844e-15 0.0000000000000000e+00  1.0000000000000011e+00 -1.1711173814313335e-17 0.0000000000000000e+00  9.9999999999999967e-01 2.0312899412663268e-16 0.0000000000000000e+00  1.0000000000000011e+00 4.7949945428397768e-16 0.0000000000000000e+00  9.9999999999999967e-01 -1.3752114999394636e-16 0.0000000000000000e+00  1.0000000000000007e+00 1.4224735171646854e-16 0.0000000000000000e+00  9.9999999999999911e-01 5.0444501570011361e-16 0.0000000000000000e+00  1.0000000000000011e+00 -2.9572423490175746e-16 0.0000000000000000e+00  9.9999999999999944e-01 1.2374803007660838e-15 0.0000000000000000e+00  1.0000000000000009e+00 -1.1103364802636466e-15 0.0000000000000000e+00  9.9999999999999967e-01 -9.3591534222598589e-16 0.0000000000000000e+00  1.0000000000000002e+00 1.2409001965453489e-16 0.0000000000000000e+00  9.9999999999999911e-01 -6.0130770626928294e-16 0.0000000000000000e+00  1.0000000000000007e+00 3.7593196705701730e-16 0.0000000000000000e+00  9.9999999999999944e-01 7.4233488558879807e-16 0.0000000000000000e+00  1.0000000000000007e+00 1.0098399099576064e-16 0.0000000000000000e+00  9.9999999999999956e-01 3.7590723646441790e-16 0.0000000000000000e+00  1.0000000000000004e+00 1.4244975932978670e-16 0.0000000000000000e+00  9.9999999999999956e-01 7.3624412790773829e-16 0.0000000000000000e+00  1.0000000000000007e+00 -1.2761321863611242e-15 0.0000000000000000e+00  9.9999999999999933e-01 5.4185594274333729e-16 0.0000000000000000e+00  1.0000000000000013e+00 -4.2468911528848921e-16 0.0000000000000000e+00  9.9999999999999933e-01 -1.3081090961111843e-16 0.0000000000000000e+00  1.0000000000000009e+00 -8.5114252538752792e-16 0.0000000000000000e+00  9.9999999999999911e-01 4.5830740553119308e-17 0.0000000000000000e+00  1.0000000000000009e+00 1.1296866413643462e-15 0.0000000000000000e+00  9.9999999999999944e-01 3.9083765937697879e-19 0.0000000000000000e+00  1.0000000000000009e+00 -6.5499051394717857e-16 0.0000000000000000e+00  9.9999999999999933e-01 4.1723045614185002e-16 0.0000000000000000e+00  1.0000000000000009e+00 1.1884494816749786e-15 0.0000000000000000e+00  9.9999999999999900e-01 -5.7948759268537424e-16 0.0000000000000000e+00  1.0000000000000009e+00 1.1246809530897565e-15 0.0000000000000000e+00  9.9999999999999933e-01 -1.6032338437221103e-15 0.0000000000000000e+00  1.0000000000000007e+00 -2.0765342810368410e-16 0.0000000000000000e+00  9.9999999999999933e-01 -1.9734750641869676e-15 0.0000000000000000e+00  1.0000000000000011e+00 3.2307479116168851e-17 0.0000000000000000e+00  9.9999999999999922e-01 6.7763547471959340e-16 0.0000000000000000e+00  1.0000000000000007e+00 1.0035259800174757e-15 0.0000000000000000e+00  9.9999999999999967e-01 -3.0833275790790523e-17 0.0000000000000000e+00  1.0000000000000009e+00 -1.5713977265032540e-16 0.0000000000000000e+00  9.9999999999999944e-01 3.5091497509758033e-16 0.0000000000000000e+00  1.0000000000000013e+00 2.3491740553706070e-16 0.0000000000000000e+00  9.9999999999999900e-01 -2.6982324167468428e-16 0.0000000000000000e+00  1.0000000000000009e+00 9.9219604799795479e-16 0.0000000000000000e+00  9.9999999999999922e-01 -1.9350100810390875e-16 0.0000000000000000e+00  1.0000000000000011e+00 -4.7260445519075851e-16 0.0000000000000000e+00  9.9999999999999933e-01 -1.3594357832434103e-18 0.0000000000000000e+00  1.0000000000000013e+00 -3.1202295290871219e-16 0.0000000000000000e+00  9.9999999999999922e-01 -2.1219710597164213e-16 0.0000000000000000e+00  1.0000000000000009e+00 -7.7432273459354615e-16 0.0000000000000000e+00  1.0000000000000011e+00 0.0000000000000000e+00 1.2335166702291225e-16  9.9999999999999978e-01 0.0000000000000000e+00 6.1367287074500068e-16  1.0000000000000009e+00 0.0000000000000000e+00 1.1643715190275069e-16  9.9999999999999922e-01 0.0000000000000000e+00 -3.2358785258498107e-16  1.0000000000000013e+00 0.0000000000000000e+00 7.1858484706150530e-16  9.9999999999999933e-01 0.0000000000000000e+00 2.8901010482251568e-16  1.0000000000000013e+00 0.0000000000000000e+00 4.2631220451189144e-16  9.9999999999999889e-01 0.0000000000000000e+00 -1.5462890768356441e-15  1.0000000000000011e+00 0.0000000000000000e+00 -5.9287639853275938e-16  9.9999999999999911e-01 0.0000000000000000e+00 1.2000278748089504e-15  1.0000000000000009e+00 0.0000000000000000e+00 -4.3410532441136059e-16  9.9999999999999900e-01 0.0000000000000000e+00 4.0442317161828873e-16  1.0000000000000009e+00 0.0000000000000000e+00 3.5115715853845116e-16  9.9999999999999889e-01 0.0000000000000000e+00 1.1897290415817601e-15  1.0000000000000009e+00 0.0000000000000000e+00 -1.2588471439330448e-15  9.9999999999999944e-01 0.0000000000000000e+00 -1.2859216424576432e-15  1.0000000000000007e+00 0.0000000000000000e+00 1.2304172336288480e-15  9.9999999999999900e-01 0.0000000000000000e+00 -4.8519402515029227e-16  1.0000000000000011e+00 0.0000000000000000e+00 7.5775166860963841e-16  9.9999999999999911e-01 0.0000000000000000e+00 -7.6594089536587267e-17  1.0000000000000009e+00 0.0000000000000000e+00 1.6886249620837484e-15  9.9999999999999911e-01 0.0000000000000000e+00 -1.4473318088688577e-15  1.0000000000000007e+00 0.0000000000000000e+00 -2.9940876320566265e-16  9.9999999999999944e-01 0.0000000000000000e+00 5.9288993187806962e-16  1.0000000000000004e+00 0.0000000000000000e+00 -4.1962341727926802e-16  9.9999999999999944e-01 0.0000000000000000e+00 -1.8607339608666018e-15  1.0000000000000009e+00 0.0000000000000000e+00 4.6552045852980384e-17  9.9999999999999967e-01 0.0000000000000000e+00 1.5929785949607806e-16  1.0000000000000007e+00 0.0000000000000000e+00 -2.2709246526804540e-18  9.9999999999999956e-01 0.0000000000000000e+00 -1.4424014526046062e-16  1.0000000000000011e+00 0.0000000000000000e+00 3.2832611908722178e-16  9.9999999999999944e-01 0.0000000000000000e+00 1.0782924308936760e-15  1.0000000000000007e+00 0.0000000000000000e+00 7.0296782627878293e-16  9.9999999999999900e-01 0.0000000000000000e+00 -3.8388404649113018e-16  1.0000000000000009e+00 0.0000000000000000e+00 8.3956039125969738e-16  9.9999999999999889e-01 0.0000000000000000e+00 -5.9534210296464631e-16  1.0000000000000007e+00 0.0000000000000000e+00 -2.9319136426706720e-16  9.9999999999999900e-01 0.0000000000000000e+00 -1.4656622320759849e-16  1.0000000000000009e+00 0.0000000000000000e+00 4.8233268381482129e-16  1.0000000000000011e+00 -6.4985090454886342e-17 0.0000000000000000e+00  9.9999999999999956e-01 8.2496558732098565e-16 0.0000000000000000e+00  1.0000000000000009e+00 -1.1700633606729192e-15 0.0000000000000000e+00  9.9999999999999944e-01 1.0495756828103950e-16 0.0000000000000000e+00  1.0000000000000009e+00 1.3066111515078255e-15 0.0000000000000000e+00  9.9999999999999911e-01 7.7078806382819426e-16 0.0000000000000000e+00  1.0000000000000007e+00 -6.4464538667460850e-16 0.0000000000000000e+00  9.9999999999999900e-01 5.0711525608661432e-17 0.0000000000000000e+00  1.0000000000000009e+00 -3.8386576895983965e-16 0.0000000000000000e+00  9.9999999999999933e-01 1.7850587296498863e-16 0.0000000000000000e+00  1.0000000000000009e+00 -2.2262007863213130e-16 0.0000000000000000e+00  9.9999999999999922e-01 -8.6370163560118487e-17 0.0000000000000000e+00  1.0000000000000016e+00 -6.5809623523708985e-16 0.0000000000000000e+00  9.9999999999999922e-01 7.8788607785282937e-16 0.0000000000000000e+00  1.0000000000000007e+00 -6.7913992375591965e-16 0.0000000000000000e+00  9.9999999999999944e-01 6.6170674910295969e-16 0.0000000000000000e+00  1.0000000000000002e+00 -6.2695894361456375e-16 0.0000000000000000e+00  9.9999999999999967e-01 5.3148541205052988e-17 0.0000000000000000e+00  1.0000000000000009e+00 -4.1597406181255588e-16 0.0000000000000000e+00  9.9999999999999933e-01 9.4540506815421084e-16 0.0000000000000000e+00  1.0000000000000007e+00 6.2501770840202679e-17 0.0000000000000000e+00  9.9999999999999900e-01 1.2658347322025898e-15 0.0000000000000000e+00  1.0000000000000007e+00 -6.2686363393695326e-16 0.0000000000000000e+00  9.9999999999999900e-01 8.7458915340122727e-16 0.0000000000000000e+00  1.0000000000000011e+00 -5.6293691129607007e-16 0.0000000000000000e+00  9.9999999999999933e-01 -1.1773295448225779e-15 0.0000000000000000e+00  1.0000000000000016e+00 1.3560730285485957e-15 0.0000000000000000e+00  9.9999999999999911e-01 -1.1238217024466749e-15 0.0000000000000000e+00  1.0000000000000009e+00 2.4175657816710267e-16 0.0000000000000000e+00  9.9999999999999889e-01 -9.9917208117793918e-16 0.0000000000000000e+00  1.0000000000000009e+00 2.2150659705322559e-16 0.0000000000000000e+00  9.9999999999999900e-01 -9.7771558637985954e-17 0.0000000000000000e+00  1.0000000000000009e+00 2.1240183321349883e-16 0.0000000000000000e+00  9.9999999999999922e-01 -5.3142076870558775e-16 0.0000000000000000e+00  1.0000000000000013e+00 1.9560718451432385e-15 0.0000000000000000e+00  9.9999999999999944e-01 9.9262491482944319e-17 0.0000000000000000e+00  1.0000000000000009e+00 1.3331963940509162e-15 0.0000000000000000e+00  9.9999999999999911e-01 -6.9213883138773320e-16 0.0000000000000000e+00  1.0000000000000002e+00 -8.6354879045757553e-16 0.0000000000000000e+00  9.9999999999999933e-01 1.3588953363494049e-15 0.0000000000000000e+00  1.0000000000000009e+00 