<?xml version="1.0"?>
<VTKFile type="UnstructuredGrid"  version="0.1"  >
<UnstructuredGrid>
<Piece  NumberOfPoints="9509" NumberOfCells="18536">
<Points>
<DataArray  type="Float64"  NumberOfComponents="3"  format="ascii">-5 -1 0  5 -1 0  5 1 0  -5 1 0  -4.949999999999965 -1 0  -4.899999999999877 -1 0  -4.849999999999826 -1 0  -4.799999999999754 -1 0  -4.749999999999695 -1 0  -4.69999999999963 -1 0  -4.649999999999565 -1 0  -4.599999999999507 -1 0  -4.549999999999454 -1 0  -4.499999999999384 -1 0  -4.449999999999317 -1 0  -4.399999999999261 -1 0  -4.349999999999206 -1 0  -4.299999999999137 -1 0  -4.249999999999075 -1 0  -4.199999999999013 -1 0  -4.149999999998934 -1 0  -4.09999999999889 -1 0  -4.049999999998847 -1 0  -3.999999999998767 -1 0  -3.949999999998706 -1 0  -3.899999999998644 -1 0  -3.849999999998594 -1 0  -3.799999999998552 -1 0  -3.749999999998549 -1 0  -3.699999999998651 -1 0  -3.649999999998804 -1 0  -3.59999999999894 -1 0  -3.549999999999097 -1 0  -3.499999999999261 -1 0  -3.449999999999394 -1 0  -3.399999999999582 -1 0  -3.349999999999742 -1 0  -3.299999999999902 -1 0  -3.25000000000006 -1 0  -3.200000000000223 -1 0  -3.150000000000369 -1 0  -3.100000000000544 -1 0  -3.050000000000704 -1 0  -3.000000000000864 -1 0  -2.950000000001029 -1 0  -2.900000000001185 -1 0  -2.850000000001347 -1 0  -2.800000000001506 -1 0  -2.750000000001665 -1 0  -2.700000000001827 -1 0  -2.650000000001979 -1 0  -2.600000000002148 -1 0  -2.550000000002311 -1 0  -2.500000000002468 -1 0  -2.450000000002635 -1 0  -2.400000000002789 -1 0  -2.35000000000295 -1 0  -2.30000000000311 -1 0  -2.250000000003253 -1 0  -2.200000000003431 -1 0  -2.150000000003601 -1 0  -2.100000000003752 -1 0  -2.050000000003922 -1 0  -2.000000000004072 -1 0  -1.950000000004237 -1 0  -1.900000000004393 -1 0  -1.850000000004541 -1 0  -1.800000000004714 -1 0  -1.750000000004886 -1 0  -1.700000000005035 -1 0  -1.650000000005206 -1 0  -1.600000000005355 -1 0  -1.550000000005516 -1 0  -1.500000000005676 -1 0  -1.450000000005824 -1 0  -1.400000000005996 -1 0  -1.350000000006146 -1 0  -1.300000000006318 -1 0  -1.250000000006505 -1 0  -1.200000000006638 -1 0  -1.150000000006797 -1 0  -1.100000000006959 -1 0  -1.050000000007106 -1 0  -1.000000000007245 -1 0  -0.9500000000072193 -1 0  -0.9000000000072612 -1 0  -0.8500000000071966 -1 0  -0.8000000000071381 -1 0  -0.750000000007085 -1 0  -0.700000000007015 -1 0  -0.6500000000069521 -1 0  -0.6000000000068919 -1 0  -0.5500000000068104 -1 0  -0.5000000000067688 -1 0  -0.4500000000067104 -1 0  -0.4000000000066457 -1 0  -0.3500000000065757 -1 0  -0.3000000000065226 -1 0  -0.2500000000064961 -1 0  -0.2000000000063995 -1 0  -0.1500000000063775 -1 0  -0.1000000000062764 -1 0  -0.0500000000062597 -1 0  -6.153300091682468e-12 -1 0  0.04999999999390781 -1 0  0.09999999999396891 -1 0  0.14999999999403 -1 0  0.1999999999940929 -1 0  0.2499999999941318 -1 0  0.299999999994216 -1 0  0.349999999994254 -1 0  0.3999999999943391 -1 0  0.4499999999944038 -1 0  0.4999999999944613 -1 0  0.5499999999945429 -1 0  0.5999999999945853 -1 0  0.6499999999946606 -1 0  0.6999999999947084 -1 0  0.7499999999947651 -1 0  0.7999999999948315 -1 0  0.8499999999948926 -1 0  0.8999999999949537 -1 0  0.9499999999950148 -1 0  0.9999999999950768 -1 0  1.049999999995139 -1 0  1.0999999999952 -1 0  1.149999999995266 -1 0  1.199999999995324 -1 0  1.249999999995385 -1 0  1.299999999995446 -1 0  1.349999999995488 -1 0  1.399999999995569 -1 0  1.449999999995604 -1 0  1.499999999995692 -1 0  1.549999999995753 -1 0  1.599999999995816 -1 0  1.649999999995892 -1 0  1.699999999995939 -1 0  1.749999999996017 -1 0  1.799999999996063 -1 0  1.849999999996111 -1 0  1.899999999996185 -1 0  1.949999999996246 -1 0  1.999999999996308 -1 0  2.049999999996351 -1 0  2.099999999996431 -1 0  2.149999999996504 -1 0  2.199999999996555 -1 0  2.249999999996616 -1 0  2.299999999996677 -1 0  2.349999999996736 -1 0  2.3999999999968 -1 0  2.449999999996847 -1 0  2.499999999996923 -1 0  2.549999999997 -1 0  2.599999999997047 -1 0  2.649999999997093 -1 0  2.69999999999717 -1 0  2.749999999997245 -1 0  2.799999999997293 -1 0  2.849999999997344 -1 0  2.899999999997416 -1 0  2.949999999997469 -1 0  2.999999999997539 -1 0  3.049999999997576 -1 0  3.099999999997662 -1 0  3.149999999997725 -1 0  3.199999999997784 -1 0  3.249999999997829 -1 0  3.299999999997908 -1 0  3.349999999997921 -1 0  3.39999999999803 -1 0  3.4499999999981 -1 0  3.499999999998153 -1 0  3.549999999998214 -1 0  3.599999999998277 -1 0  3.649999999998409 -1 0  3.699999999998401 -1 0  3.749999999998444 -1 0  3.799999999998523 -1 0  3.849999999998602 -1 0  3.899999999998645 -1 0  3.949999999998658 -1 0  3.999999999998769 -1 0  4.049999999998814 -1 0  4.099999999998893 -1 0  4.149999999998883 -1 0  4.199999999999015 -1 0  4.249999999999064 -1 0  4.299999999999137 -1 0  4.349999999999152 -1 0  4.399999999999261 -1 0  4.44999999999933 -1 0  4.499999999999385 -1 0  4.549999999999446 -1 0  4.599999999999508 -1 0  4.649999999999633 -1 0  4.699999999999632 -1 0  4.749999999999723 -1 0  4.799999999999754 -1 0  4.849999999999801 -1 0  4.899999999999876 -1 0  4.949999999999925 -1 0  5 -0.950000000000111 0  5 -0.9000000000002774 0  5 -0.8500000000004283 0  5 -0.8000000000005548 0  5 -0.7500000000006787 0  5 -0.7000000000008322 0  5 -0.6500000000009709 0  5 -0.6000000000011096 0  5 -0.5500000000012484 0  5 -0.500000000001387 0  5 -0.4500000000015256 0  5 -0.4000000000016644 0  5 -0.3500000000018031 0  5 -0.3000000000019418 0  5 -0.2500000000020806 0  5 -0.2000000000022192 0  5 -0.1500000000023578 0  5 -0.1000000000024964 0  5 -0.05000000000262439 0  5 -2.752242878045763e-12 0  5 0.0499999999973757 0  5 0.09999999999750342 0  5 0.1499999999976422 0  5 0.1999999999977808 0  5 0.2499999999979194 0  5 0.2999999999980583 0  5 0.3499999999981969 0  5 0.3999999999983355 0  5 0.4499999999984743 0  5 0.4999999999986129 0  5 0.5499999999987515 0  5 0.5999999999988903 0  5 0.6499999999990291 0  5 0.699999999999168 0  5 0.7499999999993068 0  5 0.7999999999994454 0  5 0.849999999999584 0  5 0.8999999999997226 0  5 0.9499999999998612 0  4.949999999999965 1 0  4.899999999999877 1 0  4.849999999999826 1 0  4.799999999999754 1 0  4.749999999999695 1 0  4.69999999999963 1 0  4.649999999999565 1 0  4.599999999999507 1 0  4.549999999999454 1 0  4.499999999999384 1 0  4.449999999999317 1 0  4.399999999999261 1 0  4.349999999999206 1 0  4.299999999999137 1 0  4.249999999999075 1 0  4.199999999999013 1 0  4.149999999998934 1 0  4.09999999999889 1 0  4.049999999998847 1 0  3.999999999998767 1 0  3.949999999998706 1 0  3.899999999998644 1 0  3.849999999998594 1 0  3.799999999998552 1 0  3.749999999998549 1 0  3.699999999998651 1 0  3.649999999998804 1 0  3.59999999999894 1 0  3.549999999999097 1 0  3.499999999999261 1 0  3.449999999999394 1 0  3.399999999999582 1 0  3.349999999999742 1 0  3.299999999999902 1 0  3.25000000000006 1 0  3.200000000000223 1 0  3.150000000000369 1 0  3.100000000000544 1 0  3.050000000000704 1 0  3.000000000000864 1 0  2.950000000001029 1 0  2.900000000001185 1 0  2.850000000001347 1 0  2.800000000001506 1 0  2.750000000001665 1 0  2.700000000001827 1 0  2.650000000001979 1 0  2.600000000002148 1 0  2.550000000002311 1 0  2.500000000002468 1 0  2.450000000002635 1 0  2.400000000002789 1 0  2.35000000000295 1 0  2.30000000000311 1 0  2.250000000003253 1 0  2.200000000003431 1 0  2.150000000003601 1 0  2.100000000003752 1 0  2.050000000003922 1 0  2.000000000004072 1 0  1.950000000004237 1 0  1.900000000004393 1 0  1.850000000004541 1 0  1.800000000004714 1 0  1.750000000004886 1 0  1.700000000005035 1 0  1.650000000005206 1 0  1.600000000005355 1 0  1.550000000005516 1 0  1.500000000005676 1 0  1.450000000005824 1 0  1.400000000005996 1 0  1.350000000006146 1 0  1.300000000006318 1 0  1.250000000006505 1 0  1.200000000006638 1 0  1.150000000006797 1 0  1.100000000006959 1 0  1.050000000007106 1 0  1.000000000007245 1 0  0.9500000000072193 1 0  0.9000000000072612 1 0  0.8500000000071966 1 0  0.8000000000071381 1 0  0.750000000007085 1 0  0.700000000007015 1 0  0.6500000000069521 1 0  0.6000000000068919 1 0  0.5500000000068104 1 0  0.5000000000067688 1 0  0.4500000000067104 1 0  0.4000000000066457 1 0  0.3500000000065757 1 0  0.3000000000065226 1 0  0.2500000000064961 1 0  0.2000000000063995 1 0  0.1500000000063775 1 0  0.1000000000062764 1 0  0.0500000000062597 1 0  6.153300091682468e-12 1 0  -0.04999999999390781 1 0  -0.09999999999396891 1 0  -0.14999999999403 1 0  -0.1999999999940929 1 0  -0.2499999999941318 1 0  -0.299999999994216 1 0  -0.349999999994254 1 0  -0.3999999999943391 1 0  -0.4499999999944038 1 0  -0.4999999999944613 1 0  -0.5499999999945429 1 0  -0.5999999999945853 1 0  -0.6499999999946606 1 0  -0.6999999999947084 1 0  -0.7499999999947651 1 0  -0.7999999999948315 1 0  -0.8499999999948926 1 0  -0.8999999999949537 1 0  -0.9499999999950148 1 0  -0.9999999999950768 1 0  -1.049999999995139 1 0  -1.0999999999952 1 0  -1.149999999995266 1 0  -1.199999999995324 1 0  -1.249999999995385 1 0  -1.299999999995446 1 0  -1.349999999995488 1 0  -1.399999999995569 1 0  -1.449999999995604 1 0  -1.499999999995692 1 0  -1.549999999995753 1 0  -1.599999999995816 1 0  -1.649999999995892 1 0  -1.699999999995939 1 0  -1.749999999996017 1 0  -1.799999999996063 1 0  -1.849999999996111 1 0  -1.899999999996185 1 0  -1.949999999996246 1 0  -1.999999999996308 1 0  -2.049999999996351 1 0  -2.099999999996431 1 0  -2.149999999996504 1 0  -2.199999999996555 1 0  -2.249999999996616 1 0  -2.299999999996677 1 0  -2.349999999996736 1 0  -2.3999999999968 1 0  -2.449999999996847 1 0  -2.499999999996923 1 0  -2.549999999997 1 0  -2.599999999997047 1 0  -2.649999999997093 1 0  -2.69999999999717 1 0  -2.749999999997245 1 0  -2.799999999997293 1 0  -2.849999999997344 1 0  -2.899999999997416 1 0  -2.949999999997469 1 0  -2.999999999997539 1 0  -3.049999999997576 1 0  -3.099999999997662 1 0  -3.149999999997725 1 0  -3.199999999997784 1 0  -3.249999999997829 1 0  -3.29999
[...]
<PointData  Vectors="(h, u)"> 
<DataArray  type="Float64"  Name="(h, u)"  NumberOfComponents="3" format="ascii">5.3694136440605753e+00 0.0000000000000000e+00 0.0000000000000000e+00  9.4806793679684525e+00 0.0000000000000000e+00 0.0000000000000000e+00  9.5138996994465703e+00 0.0000000000000000e+00 0.0000000000000000e+00  5.3727313282127218e+00 0.0000000000000000e+00 0.0000000000000000e+00  5.3778625887714009e+00 6.6103525110855335e-02 0.0000000000000000e+00  5.3689457839887256e+00 1.6528073809525826e-01 0.0000000000000000e+00  5.3759934316445932e+00 2.0949575518288882e-01 0.0000000000000000e+00  5.3680045078987542e+00 2.8619399201479778e-01 0.0000000000000000e+00  5.3758702201761146e+00 3.7702520945252410e-01 0.0000000000000000e+00  5.3688820569087277e+00 4.5481816559769384e-01 0.0000000000000000e+00  5.3721743952270433e+00 5.0964113547473300e-01 0.0000000000000000e+00  5.3638021852238804e+00 6.1880370031841481e-01 0.0000000000000000e+00  5.3751888008481323e+00 6.5496856994846131e-01 0.0000000000000000e+00  5.3577737968077255e+00 7.3991875838774290e-01 0.0000000000000000e+00  5.3698461358417351e+00 8.1227870834219329e-01 0.0000000000000000e+00  5.3620312392700002e+00 9.1417403204356784e-01 0.0000000000000000e+00  5.3626014224717062e+00 9.0169411012035339e-01 0.0000000000000000e+00  5.3536175500705081e+00 1.1202160327899611e+00 0.0000000000000000e+00  5.3690594435092356e+00 1.0432384506432002e+00 0.0000000000000000e+00  5.3448949674933086e+00 1.2105701219352720e+00 0.0000000000000000e+00  5.3583202106096950e+00 1.2583643103952302e+00 0.0000000000000000e+00  5.3531026834800564e+00 1.3497706025276841e+00 0.0000000000000000e+00  5.3494115623653720e+00 1.3467194590310021e+00 0.0000000000000000e+00  5.3384887909667480e+00 1.5299878489527217e+00 0.0000000000000000e+00  5.3610280005939055e+00 1.5648209351438660e+00 0.0000000000000000e+00  5.3275828964350751e+00 1.5322955639802807e+00 0.0000000000000000e+00  5.3453246898076747e+00 1.7874701468989898e+00 0.0000000000000000e+00  5.3395874770932723e+00 1.7588611680543225e+00 0.0000000000000000e+00  5.3346439246056603e+00 1.7681391831927977e+00 0.0000000000000000e+00  5.3214348888749043e+00 2.0050146149639265e+00 0.0000000000000000e+00  5.3469897128165753e+00 1.9526992467444948e+00 0.0000000000000000e+00  5.3111526683258337e+00 2.0271267168292435e+00 0.0000000000000000e+00  5.3257162461553751e+00 2.2076373787196095e+00 0.0000000000000000e+00  5.3247579104430569e+00 2.1357188580893935e+00 0.0000000000000000e+00  5.3136854560551035e+00 2.3002416909791674e+00 0.0000000000000000e+00  5.3026828656013407e+00 2.3872849331784987e+00 0.0000000000000000e+00  5.3255333560944296e+00 2.3614428507518110e+00 0.0000000000000000e+00  5.2915953518137169e+00 2.5240642242301741e+00 0.0000000000000000e+00  5.3002146655737903e+00 2.5960411091888131e+00 0.0000000000000000e+00  5.3045464695403615e+00 2.5872300645712714e+00 0.0000000000000000e+00  5.2862300125337427e+00 2.7484196774906193e+00 0.0000000000000000e+00  5.2803061702563641e+00 2.7813705057888560e+00 0.0000000000000000e+00  5.2949287989762110e+00 2.8509949865460529e+00 0.0000000000000000e+00  5.2685475531226302e+00 2.9262702476934246e+00 0.0000000000000000e+00  5.2670455922671744e+00 3.0051366959982877e+00 0.0000000000000000e+00  5.2778887539102097e+00 3.0858242996658003e+00 0.0000000000000000e+00  5.2527307698709453e+00 3.1129997837645109e+00 0.0000000000000000e+00  5.2513902021015824e+00 3.2327036564969296e+00 0.0000000000000000e+00  5.2577403490152532e+00 3.3032819213874016e+00 0.0000000000000000e+00  5.2396601274115522e+00 3.3118998035767890e+00 0.0000000000000000e+00  5.2272231556846345e+00 3.4610980734291097e+00 0.0000000000000000e+00  5.2449344124312880e+00 3.4937532366139239e+00 0.0000000000000000e+00  5.2141127002181564e+00 3.5481041390229011e+00 0.0000000000000000e+00  5.2145460532450603e+00 3.6381695589905831e+00 0.0000000000000000e+00  5.2151291927366490e+00 3.7367824303470076e+00 0.0000000000000000e+00  5.2032974386008863e+00 3.7291017799373245e+00 0.0000000000000000e+00  5.1824098783219714e+00 3.8571774008142432e+00 0.0000000000000000e+00  5.2011166263139250e+00 3.9482748879016505e+00 0.0000000000000000e+00  5.1702463449433091e+00 3.9211445999851886e+00 0.0000000000000000e+00  5.1687031714025329e+00 4.0814172377565336e+00 0.0000000000000000e+00  5.1647010793388626e+00 4.1329932770100326e+00 0.0000000000000000e+00  5.1534382333989299e+00 4.1412870155523303e+00 0.0000000000000000e+00  5.1344470040487300e+00 4.2776096304802929e+00 0.0000000000000000e+00  5.1451764865833018e+00 4.3259845862358501e+00 0.0000000000000000e+00  5.1146141818511239e+00 4.3587713159367176e+00 0.0000000000000000e+00  5.1162108430098989e+00 4.4629932513859440e+00 0.0000000000000000e+00  5.1078779965848344e+00 4.5187164095773680e+00 0.0000000000000000e+00  5.0850568607426849e+00 4.5761094549577876e+00 0.0000000000000000e+00  5.0834425879842291e+00 4.6351333271319533e+00 0.0000000000000000e+00  5.0782358220931831e+00 4.7208859207672429e+00 0.0000000000000000e+00  5.0408775467644533e+00 4.7773519144524457e+00 0.0000000000000000e+00  5.0541447215046604e+00 4.8165921873198236e+00 0.0000000000000000e+00  5.0433148985315350e+00 4.9058585268172665e+00 0.0000000000000000e+00  4.9981769036537758e+00 4.9752456950554107e+00 0.0000000000000000e+00  5.0179749113995937e+00 5.0002709856297649e+00 0.0000000000000000e+00  5.0044335028555240e+00 5.0747988287568546e+00 0.0000000000000000e+00  4.9641173693602374e+00 5.1766750816880407e+00 0.0000000000000000e+00  4.9631617288627501e+00 5.1626672997494358e+00 0.0000000000000000e+00  4.9755599708840750e+00 5.2680399004448795e+00 0.0000000000000000e+00  4.9211692250660688e+00 5.3291896781093895e+00 0.0000000000000000e+00  4.9204015358445155e+00 5.3496828710414208e+00 0.0000000000000000e+00  4.9126827780251769e+00 5.4537224334538807e+00 0.0000000000000000e+00  4.9094545880519656e+00 5.4659168094684549e+00 0.0000000000000000e+00  4.8429368549015628e+00 5.5368539495752538e+00 0.0000000000000000e+00  4.8696530420489115e+00 5.6389445408886587e+00 0.0000000000000000e+00  4.8479639551566613e+00 5.6169794333926095e+00 0.0000000000000000e+00  4.8083525213372784e+00 5.6962716112671918e+00 0.0000000000000000e+00  4.7924718666133490e+00 5.8190893578676466e+00 0.0000000000000000e+00  4.7882890642419582e+00 5.7873937132168214e+00 0.0000000000000000e+00  4.7471747663202235e+00 5.8553916433284590e+00 0.0000000000000000e+00  4.7467412070884860e+00 5.9643699202872185e+00 0.0000000000000000e+00  4.7045270930899381e+00 5.9678153894443060e+00 0.0000000000000000e+00  4.6824748551163742e+00 6.0110585961105274e+00 0.0000000000000000e+00  4.6876485389678066e+00 6.1322334541170456e+00 0.0000000000000000e+00  4.6273074196220172e+00 6.0880451796543831e+00 0.0000000000000000e+00  4.6266353990674176e+00 6.2069114780921968e+00 0.0000000000000000e+00  4.6148253426704260e+00 6.2228795947823725e+00 0.0000000000000000e+00  4.6014292794593459e+00 6.2182054304294097e+00 0.0000000000000000e+00  4.5154815323871116e+00 6.3842685842279163e+00 0.0000000000000000e+00  4.5686757730726217e+00 6.3433924050729420e+00 0.0000000000000000e+00  4.4906629117004924e+00 6.4038933330957466e+00 0.0000000000000000e+00  4.4615408238893988e+00 6.5216843016282704e+00 0.0000000000000000e+00  4.4753836316602786e+00 6.4709623662761979e+00 0.0000000000000000e+00  4.4575307073386661e+00 6.5308815960989621e+00 0.0000000000000000e+00  4.3540398102734628e+00 6.6569313528472316e+00 0.0000000000000000e+00  4.3623656711634293e+00 6.6930161720558621e+00 0.0000000000000000e+00  4.3587020658557449e+00 6.6795460625856231e+00 0.0000000000000000e+00  4.3001568854882946e+00 6.7630294166129898e+00 0.0000000000000000e+00  4.3022653390271683e+00 6.7983158033025646e+00 0.0000000000000000e+00  4.2929612470261782e+00 6.8041614648831956e+00 0.0000000000000000e+00  4.2697425253221901e+00 6.8099090563180233e+00 0.0000000000000000e+00  4.2067600600369826e+00 6.9896018293221340e+00 0.0000000000000000e+00  4.1902220577279987e+00 6.9251974320793686e+00 0.0000000000000000e+00  4.1896814897089234e+00 6.9928093772069362e+00 0.0000000000000000e+00  4.1905034085265545e+00 6.9790327797595086e+00 0.0000000000000000e+00  4.1120663941347182e+00 7.0965856646138947e+00 0.0000000000000000e+00  4.0775031978670535e+00 7.1210905965256046e+00 0.0000000000000000e+00  4.0466218498563054e+00 7.2434269370309901e+00 0.0000000000000000e+00  4.0734746448489743e+00 7.1043691247972598e+00 0.0000000000000000e+00  4.0535220705503416e+00 7.2270288899816180e+00 0.0000000000000000e+00  4.0015044318304200e+00 7.2605609569613714e+00 0.0000000000000000e+00  3.9651161393806436e+00 7.3371606001629210e+00 0.0000000000000000e+00  3.9475166593192039e+00 7.3406017219608097e+00 0.0000000000000000e+00  3.8845974462305590e+00 7.4704626071880451e+00 0.0000000000000000e+00  3.9024074371029114e+00 7.4136970826802413e+00 0.0000000000000000e+00  3.9230215684118224e+00 7.4036072246095941e+00 0.0000000000000000e+00  3.7659421989996074e+00 7.6349806106156324e+00 0.0000000000000000e+00  3.8243484665194014e+00 7.5437077109232131e+00 0.0000000000000000e+00  3.7164551083057238e+00 7.7276574517549355e+00 0.0000000000000000e+00  3.8525962974468850e+00 7.5485017602667268e+00 0.0000000000000000e+00  3.7614045985055635e+00 7.6515922763680591e+00 0.0000000000000000e+00  3.8571649930461906e+00 7.4837217205105997e+00 0.0000000000000000e+00  3.9675897690553157e+00 7.3292524743520797e+00 0.0000000000000000e+00  3.9796252178664693e+00 7.3051441773218029e+00 0.0000000000000000e+00  4.0424299517379669e+00 7.2139593066463101e+00 0.0000000000000000e+00  3.9884146124860265e+00 7.3075901703322188e+00 0.0000000000000000e+00  3.9856613590604617e+00 7.2930717133878717e+00 0.0000000000000000e+00  3.9499249859633552e+00 7.3556739017002268e+00 0.0000000000000000e+00  3.8936611418010636e+00 7.4327807101055008e+00 0.0000000000000000e+00  4.0225008851664841e+00 7.2556801951784387e+00 0.0000000000000000e+00  3.9801347608422115e+00 7.3033666215870170e+00 0.0000000000000000e+00  3.8982859956501659e+00 7.4379558566983217e+00 0.0000000000000000e+00  3.9892075859948788e+00 7.2752769556100292e+00 0.0000000000000000e+00  3.9566740221340391e+00 7.3699052784771855e+00 0.0000000000000000e+00  3.9388316347298828e+00 7.3422829209493194e+00 0.0000000000000000e+00  3.9949655668534736e+00 7.3185997240623433e+00 0.0000000000000000e+00  3.9371490804611349e+00 7.3393829838289015e+00 0.0000000000000000e+00  3.9962043210258247e+00 7.3149281399484254e+00 0.0000000000000000e+00  3.9564162874742039e+00 7.3279099616967152e+00 0.0000000000000000e+00  3.9578173863378208e+00 7.3389779197357923e+00 0.0000000000000000e+00  3.9637484753989010e+00 7.3396517233074725e+00 0.0000000000000000e+00  3.9479250767153395e+00 7.3461061870940521e+00 0.0000000000000000e+00  3.9530317148766723e+00 7.3428329645219526e+00 0.0000000000000000e+00  3.9635972916587763e+00 7.3235341485648577e+00 0.0000000000000000e+00  3.9551969348437948e+00 7.3472240384269103e+00 0.0000000000000000e+00  3.9538662768210160e+00 7.3278289512278532e+00 0.0000000000000000e+00  3.9650767150924850e+00 7.3391262542008677e+00 0.0000000000000000e+00  3.9696231495562042e+00 7.3116007744430087e+00 0.0000000000000000e+00  3.9491854369147186e+00 7.3482394088041945e+00 0.0000000000000000e+00  3.9325911935651181e+00 7.3688168067458664e+00 0.0000000000000000e+00  3.9814899055987456e+00 7.3077954437189918e+00 0.0000000000000000e+00  3.9795894574875925e+00 7.2966829868456884e+00 0.0000000000000000e+00  3.9383453851389483e+00 7.3776815295067477e+00 0.0000000000000000e+00  3.9598436457699746e+00 7.3269125142953930e+00 0.0000000000000000e+00  3.9643303058196810e+00 7.2913279956662507e+00 0.0000000000000000e+00  3.9419198675278850e+00 7.4001858722364906e+00 0.0000000000000000e+00  3.9495042510581815e+00 7.4415244357442907e+00 0.0000000000000000e+00  4.1006177121710117e+00 6.8118008341296807e+00 0.0000000000000000e+00  3.5313591128321034e+00 8.1345825692360769e+00 0.0000000000000000e+00  9.6552786686448897e+00 -1.1045888914757443e-01 0.0000000000000000e+00  8.8447826560687606e+00 6.5081052199880840e-01 0.0000000000000000e+00  9.7964150568910995e+00 -2.9939776709110877e-01 0.0000000000000000e+00  9.2844925782878125e+00 2.0014796024274248e-01 0.0000000000000000e+00  9.5478801472438821e+00 -5.1682587144972571e-02 0.0000000000000000e+00  9.4593004000089440e+00 3.7766224515143922e-02 0.0000000000000000e+00  9.4568633090447385e+00 3.2607063068084821e-02 0.0000000000000000e+00  9.4834283376436499e+00 2.0748842789045572e-02 0.0000000000000000e+00  9.4661420802364411e+00 3.1357580125112923e-02 0.0000000000000000e+00  9.4722402995476997e+00 1.3885486069684101e-02 0.0000000000000000e+00  9.4746803095414176e+00 2.7557582011080661e-02 0.0000000000000000e+00  9.4712575517314423e+00 3.7174759089761714e-02 0.0000000000000000e+00  9.4676083027181832e+00 8.0893155226139362e-03 0.0000000000000000e+00  9.4720463133535002e+00 2.1797271276763341e-02 0.0000000000000000e+00  9.4827523482391154e+00 1.0886378036261029e-02 0.0000000000000000e+00  9.4597223951305249e+00 1.5378889667285778e-02 0.0000000000000000e+00  9.4804886488821030e+00 1.5654177941385818e-02 0.0000000000000000e+00  9.4790948941776634e+00 1.1636487687085419e-02 0.0000000000000000e+00  9.4716059596234778e+00 4.5947342850506537e-03 0.0000000000000000e+00  9.4740586925434425e+00 1.1862411156637321e-02 0.0000000000000000e+00  9.4883839996070307e+00 1.6024323769979462e-02 0.0000000000000000e+00  9.4656788557703706e+00 -2.5271061114251188e-04 0.0000000000000000e+00  9.4833184442512870e+00 2.8920268972661371e-02 0.0000000000000000e+00  9.4797381149621991e+00 6.0193508520696342e-03 0.0000000000000000e+00  9.4744698716562912e+00 2.4255143047414641e-02 0.0000000000000000e+00  9.4751976053626201e+00 1.7291464245998759e-02 0.0000000000000000e+00  9.4859923610177592e+00 1.3899322873122287e-02 0.0000000000000000e+00  9.4675838411356938e+00 6.0796156107021495e-03 0.0000000000000000e+00  9.4825034807036879e+00 -3.0388721536917978e-03 0.0000000000000000e+00  9.4769994344282864e+00 3.0560680837759924e-02 0.0000000000000000e+00  9.4757239032348650e+00 -6.8162252473864537e-02 0.0000000000000000e+00  9.4766783173048470e+00 1.9450426297093298e-02 0.0000000000000000e+00  9.4813082547658567e+00 -5.3978716410085725e-02 0.0000000000000000e+00  9.4711712536089667e+00 -1.8229836733375476e-01 0.0000000000000000e+00  9.4732768658233084e+00 0.0000000000000000e+00 -6.8497536441038301e-02  9.4817105028666901e+00 0.0000000000000000e+00 -2.8576718643471187e-02  9.4797355022551457e+00 0.0000000000000000e+00 -3.1633323141826181e-02  9.4794702303984764e+00 0.0000000000000000e+00 -1.0083552349236186e-01  9.4778440780701381e+00 0.0000000000000000e+00 3.2261892361456414e-02  9.4856289129385889e+00 0.0000000000000000e+00 6.9286686143063381e-02  9.4832428826672093e+00 0.0000000000000000e+00 -2.7167947753462133e-03  9.4876003956255133e+00 0.0000000000000000e+00 -1.1570418476719124e-01  9.4827799265856498e+00 0.0000000000000000e+00 -9.9858135880014048e-02  9.4998570184687647e+00 0.0000000000000000e+00 1.5171147054918793e-01  9.4815426969253469e+00 0.0000000000000000e+00 -2.1093697637071057e-02  9.5064733211106471e+00 0.0000000000000000e+00 3.8107598457872462e-03  9.4872874957357034e+00 0.0000000000000000e+00 -5.2033159912731865e-02  9.5087219611664775e+00 0.0000000000000000e+00 -3.8274104543259135e-02  9.4969631658840701e+00 0.0000000000000000e+00 -7.8325043019193547e-02  9.5149200384387900e+00 0.0000000000000000e+00 -1.6964786488821745e-01  9.4907536012273805e+00 0.0000000000000000e+00 -1.2172612859733796e-01  9.5214064823023392e+00 0.0000000000000000e+00 -2.7983265740314328e-01  9.5032399587470966e+00 0.0000000000000000e+00 5.0847103718599067e-02  9.5202096293661906e+00 0.0000000000000000e+00 7.8961891507519033e-02  9.4983868474911812e+00 0.0000000000000000e+00 -8.6564767611759533e-02  9.5185394274830593e+00 0.0000000000000000e+00 -2.0649262609237481e-01  9.5034333952713883e+00 0.0000000000000000e+00 -3.5042244755614932e-02  9.5184340077299030e+00 0.0000000000000000e+00 2.2133036772731893e-01  9.5005768895602625e+00 0.0000000000000000e+00 -1.0792965963304563e-02  9.5144755952595741e+00 0.0000000000000000e+00 6.6534064002123972e-02  9.5048549605873145e+00 0.0000000000000000e+00 -2.3911709508175880e-03  9.5213240848161558e+00 0.0000000000000000e+00 -1.1813686740202758e-01  9.4972445834812582e+00 0.0000000000000000e+00 -1.0524901653078599e-01  9.5175353340706330e+00 0.0000000000000000e+00 7.1074331672203908e-02  9.5057585487757184e+00 0.0000000000000000e+00 -3.1507437624904044e-02  9.5125569035736142e+00 0.0000000000000000e+00 -1.5326797025802821e-01  9.4996294565672397e+00 0.0000000000000000e+00 -4.2187383768940934e-02  9.5154824467659882e+00 0.0000000000000000e+00 -1.2542925132914423e-01  9.4951274793890459e+00 0.0000000000000000e+00 -1.0742869159186418e-01  9.5157132967898033e+00 0.0000000000000000e+00 -1.3251178837877958e-01  9.5029436751487353e+00 0.0000000000000000e+00 -1.3820362875752304e-01  9.5112642793779401e+00 0.0000000000000000e+00 -2.2414252017943243e-01  9.5068998817127550e+00 0.0000000000000000e+00 1.4608872841969444e-02  9.5108466318224369e+00 -3.6726645224143911e-01 0.0000000000000000e+00  9.5107519634358120e+00 -3.9863923448711669e-01 0.0000000000000000e+00  9.5031244570478943e+00 -2.1757116825123207e-01 0.0000000000000000e+00  9.5222651263223437e+00 -4.7600181060374960e-02 0.0000000000000000e+00  9.5186748914750297e+00 -3.4310365090030986e-01 0.0000000000000000e+00  9.4887131166829821e+00 -7.8254243914987776e-01 0.0000000000000000e+00  9.5134337184347899e+00 -3.4981717203881718e-01 0.0000000000000000e+00  9.4963724393901803e+00 -4.9866219819607555e-01 0.0000000000000000e+00  9.5063490086581535e+00 -5.2657384304188914e-01 0.0000000000000000e+00  9.5082912037234735e+00 -3.1992943844381116e-01 0.0000000000000000e+00  9.4935507440222437e+00 -1.8073568807676779e-01 0.0000000000000000e+00  9.5282509591223175e+00 -7.1076415466819476e-02 0.0000000000000000e+00  9.5074383162497380e+00 -5.7754956161636950e-02 0.0000000000000000e+00  9.5020905747536570e+00 1.8171829992731886e-01 0.0000000000000000e+00  9.5229713701127388e+00 5.7062537305882469e-02 0.0000000000000000e+00  9.5012752513059073e+00 1.7595367499466164e-01 0.0000000000000000e+00  9.5061992218174556e+00 9.6600664457090896e-02 0.0000000000000000e+00  9.5174421745225004e+00 9.2359119959126799e-03 0.0000000000000000e+00  9.4884332675000920e+00 -6.6356474354543921e-02 0.0000000000000000e+00  9.5244943596382843e+00 1.1084606016666243e-01 0.0000000000000000e+00  9.4769887073844608e+00 -7.9210115215747792e-02 0.0000000000000000e+00  9.5209728064213408e+00 -8.6781056437850640e-02 0.0000000000000000e+00  9.4849430746456918e+00 -8.1525556075535202e-03 0.0000000000000000e+00  9.5291368409888761e+00 5.2317186080280430e-02 0.0000000000000000e+00  9.4624632481590218e+00 8.9857060502264080e-02 0.0000000000000000e+00  9.5320799809721510e+00 8.5482219348199703e-02 0.0000000000000000e+00  9.4764930324972401e+00 1.7142037771303786e-01 0.0000000000000000e+00  9.5344960060529846e+00 7.2291016832262564e-02 0.0000000000000000e+00  9.4637090765480387e+00 3.1421728801077041e-02 0.0000000000000000e+00  9.6779799573785112e+00 -9.0249860139926363e-02 0.0000000000000000e+00  9.2406365872247864e+00 1.6194889518547617e-01 0.0000000000000000e+00  9.9609585701518366e+00 -4.7309652386232331e-01 0.0000000000000000e+00  8.7363348468786555e+00 7.7959260053796953e-01 0.0000000000000000e+00  9.7112149938977090e+00 8.4783301180918230e-02 0.0000000000000000e+00  3.5040057225618697e+00 8.0184998899301636e+00 0.0000000000000000e+00  4.1165152570171921e+00 6.8695388214164819e+00 0.0000000000000000e+00  4.1116217728930513e+00 7.4605281492919859e+00 0.0000000000000000e+00  3.9677105750929260e+00 7.3248835222889133e+00 0.0000000000000000e+00  4.0536556630815781e+00 7.2550374241646729e+00 0.0000000000000000e+00  4.0393393654475496e+00 7.3231392660940866e+00 0.0000000000000000e+00  4.0397607621615510e+00 7.3264634887431503e+00 0.0000000000000000e+00  4.0398849957458411e+00