<?xml version="1.0"?>
<VTKFile type="UnstructuredGrid"  version="0.1"  >
<UnstructuredGrid>
<Piece  NumberOfPoints="9509" NumberOfCells="18536">
<Points>
<DataArray  type="Float64"  NumberOfComponents="3"  format="ascii">-5 -1 0  5 -1 0  5 1 0  -5 1 0  -4.949999999999965 -1 0  -4.899999999999877 -1 0  -4.849999999999826 -1 0  -4.799999999999754 -1 0  -4.749999999999695 -1 0  -4.69999999999963 -1 0  -4.649999999999565 -1 0  -4.599999999999507 -1 0  -4.549999999999454 -1 0  -4.499999999999384 -1 0  -4.449999999999317 -1 0  -4.399999999999261 -1 0  -4.349999999999206 -1 0  -4.299999999999137 -1 0  -4.249999999999075 -1 0  -4.199999999999013 -1 0  -4.149999999998934 -1 0  -4.09999999999889 -1 0  -4.049999999998847 -1 0  -3.999999999998767 -1 0  -3.949999999998706 -1 0  -3.899999999998644 -1 0  -3.849999999998594 -1 0  -3.799999999998552 -1 0  -3.749999999998549 -1 0  -3.699999999998651 -1 0  -3.649999999998804 -1 0  -3.59999999999894 -1 0  -3.549999999999097 -1 0  -3.499999999999261 -1 0  -3.449999999999394 -1 0  -3.399999999999582 -1 0  -3.349999999999742 -1 0  -3.299999999999902 -1 0  -3.25000000000006 -1 0  -3.200000000000223 -1 0  -3.150000000000369 -1 0  -3.100000000000544 -1 0  -3.050000000000704 -1 0  -3.000000000000864 -1 0  -2.950000000001029 -1 0  -2.900000000001185 -1 0  -2.850000000001347 -1 0  -2.800000000001506 -1 0  -2.750000000001665 -1 0  -2.700000000001827 -1 0  -2.650000000001979 -1 0  -2.600000000002148 -1 0  -2.550000000002311 -1 0  -2.500000000002468 -1 0  -2.450000000002635 -1 0  -2.400000000002789 -1 0  -2.35000000000295 -1 0  -2.30000000000311 -1 0  -2.250000000003253 -1 0  -2.200000000003431 -1 0  -2.150000000003601 -1 0  -2.100000000003752 -1 0  -2.050000000003922 -1 0  -2.000000000004072 -1 0  -1.950000000004237 -1 0  -1.900000000004393 -1 0  -1.850000000004541 -1 0  -1.800000000004714 -1 0  -1.750000000004886 -1 0  -1.700000000005035 -1 0  -1.650000000005206 -1 0  -1.600000000005355 -1 0  -1.550000000005516 -1 0  -1.500000000005676 -1 0  -1.450000000005824 -1 0  -1.400000000005996 -1 0  -1.350000000006146 -1 0  -1.300000000006318 -1 0  -1.250000000006505 -1 0  -1.200000000006638 -1 0  -1.150000000006797 -1 0  -1.100000000006959 -1 0  -1.050000000007106 -1 0  -1.000000000007245 -1 0  -0.9500000000072193 -1 0  -0.9000000000072612 -1 0  -0.8500000000071966 -1 0  -0.8000000000071381 -1 0  -0.750000000007085 -1 0  -0.700000000007015 -1 0  -0.6500000000069521 -1 0  -0.6000000000068919 -1 0  -0.5500000000068104 -1 0  -0.5000000000067688 -1 0  -0.4500000000067104 -1 0  -0.4000000000066457 -1 0  -0.3500000000065757 -1 0  -0.3000000000065226 -1 0  -0.2500000000064961 -1 0  -0.2000000000063995 -1 0  -0.1500000000063775 -1 0  -0.1000000000062764 -1 0  -0.0500000000062597 -1 0  -6.153300091682468e-12 -1 0  0.04999999999390781 -1 0  0.09999999999396891 -1 0  0.14999999999403 -1 0  0.1999999999940929 -1 0  0.2499999999941318 -1 0  0.299999999994216 -1 0  0.349999999994254 -1 0  0.3999999999943391 -1 0  0.4499999999944038 -1 0  0.4999999999944613 -1 0  0.5499999999945429 -1 0  0.5999999999945853 -1 0  0.6499999999946606 -1 0  0.6999999999947084 -1 0  0.7499999999947651 -1 0  0.7999999999948315 -1 0  0.8499999999948926 -1 0  0.8999999999949537 -1 0  0.9499999999950148 -1 0  0.9999999999950768 -1 0  1.049999999995139 -1 0  1.0999999999952 -1 0  1.149999999995266 -1 0  1.199999999995324 -1 0  1.249999999995385 -1 0  1.299999999995446 -1 0  1.349999999995488 -1 0  1.399999999995569 -1 0  1.449999999995604 -1 0  1.499999999995692 -1 0  1.549999999995753 -1 0  1.599999999995816 -1 0  1.649999999995892 -1 0  1.699999999995939 -1 0  1.749999999996017 -1 0  1.799999999996063 -1 0  1.849999999996111 -1 0  1.899999999996185 -1 0  1.949999999996246 -1 0  1.999999999996308 -1 0  2.049999999996351 -1 0  2.099999999996431 -1 0  2.149999999996504 -1 0  2.199999999996555 -1 0  2.249999999996616 -1 0  2.299999999996677 -1 0  2.349999999996736 -1 0  2.3999999999968 -1 0  2.449999999996847 -1 0  2.499999999996923 -1 0  2.549999999997 -1 0  2.599999999997047 -1 0  2.649999999997093 -1 0  2.69999999999717 -1 0  2.749999999997245 -1 0  2.799999999997293 -1 0  2.849999999997344 -1 0  2.899999999997416 -1 0  2.949999999997469 -1 0  2.999999999997539 -1 0  3.049999999997576 -1 0  3.099999999997662 -1 0  3.149999999997725 -1 0  3.199999999997784 -1 0  3.249999999997829 -1 0  3.299999999997908 -1 0  3.349999999997921 -1 0  3.39999999999803 -1 0  3.4499999999981 -1 0  3.499999999998153 -1 0  3.549999999998214 -1 0  3.599999999998277 -1 0  3.649999999998409 -1 0  3.699999999998401 -1 0  3.749999999998444 -1 0  3.799999999998523 -1 0  3.849999999998602 -1 0  3.899999999998645 -1 0  3.949999999998658 -1 0  3.999999999998769 -1 0  4.049999999998814 -1 0  4.099999999998893 -1 0  4.149999999998883 -1 0  4.199999999999015 -1 0  4.249999999999064 -1 0  4.299999999999137 -1 0  4.349999999999152 -1 0  4.399999999999261 -1 0  4.44999999999933 -1 0  4.499999999999385 -1 0  4.549999999999446 -1 0  4.599999999999508 -1 0  4.649999999999633 -1 0  4.699999999999632 -1 0  4.749999999999723 -1 0  4.799999999999754 -1 0  4.849999999999801 -1 0  4.899999999999876 -1 0  4.949999999999925 -1 0  5 -0.950000000000111 0  5 -0.9000000000002774 0  5 -0.8500000000004283 0  5 -0.8000000000005548 0  5 -0.7500000000006787 0  5 -0.7000000000008322 0  5 -0.6500000000009709 0  5 -0.6000000000011096 0  5 -0.5500000000012484 0  5 -0.500000000001387 0  5 -0.4500000000015256 0  5 -0.4000000000016644 0  5 -0.3500000000018031 0  5 -0.3000000000019418 0  5 -0.2500000000020806 0  5 -0.2000000000022192 0  5 -0.1500000000023578 0  5 -0.1000000000024964 0  5 -0.05000000000262439 0  5 -2.752242878045763e-12 0  5 0.0499999999973757 0  5 0.09999999999750342 0  5 0.1499999999976422 0  5 0.1999999999977808 0  5 0.2499999999979194 0  5 0.2999999999980583 0  5 0.3499999999981969 0  5 0.3999999999983355 0  5 0.4499999999984743 0  5 0.4999999999986129 0  5 0.5499999999987515 0  5 0.5999999999988903 0  5 0.6499999999990291 0  5 0.699999999999168 0  5 0.7499999999993068 0  5 0.7999999999994454 0  5 0.849999999999584 0  5 0.8999999999997226 0  5 0.9499999999998612 0  4.949999999999965 1 0  4.899999999999877 1 0  4.849999999999826 1 0  4.799999999999754 1 0  4.749999999999695 1 0  4.69999999999963 1 0  4.649999999999565 1 0  4.599999999999507 1 0  4.549999999999454 1 0  4.499999999999384 1 0  4.449999999999317 1 0  4.399999999999261 1 0  4.349999999999206 1 0  4.299999999999137 1 0  4.249999999999075 1 0  4.199999999999013 1 0  4.149999999998934 1 0  4.09999999999889 1 0  4.049999999998847 1 0  3.999999999998767 1 0  3.949999999998706 1 0  3.899999999998644 1 0  3.849999999998594 1 0  3.799999999998552 1 0  3.749999999998549 1 0  3.699999999998651 1 0  3.649999999998804 1 0  3.59999999999894 1 0  3.549999999999097 1 0  3.499999999999261 1 0  3.449999999999394 1 0  3.399999999999582 1 0  3.349999999999742 1 0  3.299999999999902 1 0  3.25000000000006 1 0  3.200000000000223 1 0  3.150000000000369 1 0  3.100000000000544 1 0  3.050000000000704 1 0  3.000000000000864 1 0  2.950000000001029 1 0  2.900000000001185 1 0  2.850000000001347 1 0  2.800000000001506 1 0  2.750000000001665 1 0  2.700000000001827 1 0  2.650000000001979 1 0  2.600000000002148 1 0  2.550000000002311 1 0  2.500000000002468 1 0  2.450000000002635 1 0  2.400000000002789 1 0  2.35000000000295 1 0  2.30000000000311 1 0  2.250000000003253 1 0  2.200000000003431 1 0  2.150000000003601 1 0  2.100000000003752 1 0  2.050000000003922 1 0  2.000000000004072 1 0  1.950000000004237 1 0  1.900000000004393 1 0  1.850000000004541 1 0  1.800000000004714 1 0  1.750000000004886 1 0  1.700000000005035 1 0  1.650000000005206 1 0  1.600000000005355 1 0  1.550000000005516 1 0  1.500000000005676 1 0  1.450000000005824 1 0  1.400000000005996 1 0  1.350000000006146 1 0  1.300000000006318 1 0  1.250000000006505 1 0  1.200000000006638 1 0  1.150000000006797 1 0  1.100000000006959 1 0  1.050000000007106 1 0  1.000000000007245 1 0  0.9500000000072193 1 0  0.9000000000072612 1 0  0.8500000000071966 1 0  0.8000000000071381 1 0  0.750000000007085 1 0  0.700000000007015 1 0  0.6500000000069521 1 0  0.6000000000068919 1 0  0.5500000000068104 1 0  0.5000000000067688 1 0  0.4500000000067104 1 0  0.4000000000066457 1 0  0.3500000000065757 1 0  0.3000000000065226 1 0  0.2500000000064961 1 0  0.2000000000063995 1 0  0.1500000000063775 1 0  0.1000000000062764 1 0  0.0500000000062597 1 0  6.153300091682468e-12 1 0  -0.04999999999390781 1 0  -0.09999999999396891 1 0  -0.14999999999403 1 0  -0.1999999999940929 1 0  -0.2499999999941318 1 0  -0.299999999994216 1 0  -0.349999999994254 1 0  -0.3999999999943391 1 0  -0.4499999999944038 1 0  -0.4999999999944613 1 0  -0.5499999999945429 1 0  -0.5999999999945853 1 0  -0.6499999999946606 1 0  -0.6999999999947084 1 0  -0.7499999999947651 1 0  -0.7999999999948315 1 0  -0.8499999999948926 1 0  -0.8999999999949537 1 0  -0.9499999999950148 1 0  -0.9999999999950768 1 0  -1.049999999995139 1 0  -1.0999999999952 1 0  -1.149999999995266 1 0  -1.199999999995324 1 0  -1.249999999995385 1 0  -1.299999999995446 1 0  -1.349999999995488 1 0  -1.399999999995569 1 0  -1.449999999995604 1 0  -1.499999999995692 1 0  -1.549999999995753 1 0  -1.599999999995816 1 0  -1.649999999995892 1 0  -1.699999999995939 1 0  -1.749999999996017 1 0  -1.799999999996063 1 0  -1.849999999996111 1 0  -1.899999999996185 1 0  -1.949999999996246 1 0  -1.999999999996308 1 0  -2.049999999996351 1 0  -2.099999999996431 1 0  -2.149999999996504 1 0  -2.199999999996555 1 0  -2.249999999996616 1 0  -2.299999999996677 1 0  -2.349999999996736 1 0  -2.3999999999968 1 0  -2.449999999996847 1 0  -2.499999999996923 1 0  -2.549999999997 1 0  -2.599999999997047 1 0  -2.649999999997093 1 0  -2.69999999999717 1 0  -2.749999999997245 1 0  -2.799999999997293 1 0  -2.849999999997344 1 0  -2.899999999997416 1 0  -2.949999999997469 1 0  -2.999999999997539 1 0  -3.049999999997576 1 0  -3.099999999997662 1 0  -3.149999999997725 1 0  -3.199999999997784 1 0  -3.249999999997829 1 0  -3.29999
[...]
<PointData  Vectors="(h, u)"> 
<DataArray  type="Float64"  Name="(h, u)"  NumberOfComponents="3" format="ascii">8.4986256564259310e+00 0.0000000000000000e+00 0.0000000000000000e+00  9.6022599985279999e+00 0.0000000000000000e+00 0.0000000000000000e+00  9.5706940660176461e+00 0.0000000000000000e+00 0.0000000000000000e+00  8.5149355222746461e+00 0.0000000000000000e+00 0.0000000000000000e+00  8.5123120317754264e+00 8.8493893817400124e-02 0.0000000000000000e+00  8.4959622761653755e+00 1.7443354557335458e-01 0.0000000000000000e+00  8.5029398950105222e+00 2.6118086221925113e-01 0.0000000000000000e+00  8.4828583349075064e+00 3.5129719060172110e-01 0.0000000000000000e+00  8.4938701938993919e+00 4.3558665095401711e-01 0.0000000000000000e+00  8.4669228607770854e+00 5.2257376044632353e-01 0.0000000000000000e+00  8.4667272275515106e+00 6.0582253572455724e-01 0.0000000000000000e+00  8.4454787851791995e+00 6.9439934392496439e-01 0.0000000000000000e+00  8.4401797261805349e+00 7.7350161370939263e-01 0.0000000000000000e+00  8.4086049308608679e+00 8.5836584604583477e-01 0.0000000000000000e+00  8.4122789983096222e+00 9.4091387990484043e-01 0.0000000000000000e+00  8.3715882578262946e+00 1.0207892818881084e+00 0.0000000000000000e+00  8.3603036747891704e+00 1.1033126807585261e+00 0.0000000000000000e+00  8.3373324219293874e+00 1.1861339383491920e+00 0.0000000000000000e+00  8.3125760157864619e+00 1.2582908781824729e+00 0.0000000000000000e+00  8.2715871947192010e+00 1.3444121509569151e+00 0.0000000000000000e+00  8.2703196508709489e+00 1.4160796204614856e+00 0.0000000000000000e+00  8.2145784404307953e+00 1.4905624439079985e+00 0.0000000000000000e+00  8.1904976549480377e+00 1.5691684076117327e+00 0.0000000000000000e+00  8.1651086856525783e+00 1.6415708046180630e+00 0.0000000000000000e+00  8.1235581897993328e+00 1.7072624367877154e+00 0.0000000000000000e+00  8.0739515927137084e+00 1.7877434170338287e+00 0.0000000000000000e+00  8.0648756759698177e+00 1.8542059794386760e+00 0.0000000000000000e+00  8.0001426125937858e+00 1.9155064266773134e+00 0.0000000000000000e+00  7.9622377499256212e+00 1.9961549324836287e+00 0.0000000000000000e+00  7.9342949779013310e+00 2.0547031795590058e+00 0.0000000000000000e+00  7.8808901488838865e+00 2.1221615135521619e+00 0.0000000000000000e+00  7.8251090125585794e+00 2.1792122488403933e+00 0.0000000000000000e+00  7.8055716666357977e+00 2.2758968616865336e+00 0.0000000000000000e+00  7.7402208762134279e+00 2.2791028707044294e+00 0.0000000000000000e+00  7.6912831412064158e+00 2.4124853698294686e+00 0.0000000000000000e+00  7.6572122118935457e+00 2.4194107544134567e+00 0.0000000000000000e+00  7.6024387182680249e+00 2.5127088166965073e+00 0.0000000000000000e+00  7.5444700193234731e+00 2.5565997619204115e+00 0.0000000000000000e+00  7.5080051069669622e+00 2.6264857141756832e+00 0.0000000000000000e+00  7.4565590874695689e+00 2.7120602896427610e+00 0.0000000000000000e+00  7.3969496857060282e+00 2.6765769332476275e+00 0.0000000000000000e+00  7.3538371750911589e+00 2.9051544863792653e+00 0.0000000000000000e+00  7.3064862798383281e+00 2.8016628408668862e+00 0.0000000000000000e+00  7.2531349794132076e+00 2.9057881964835559e+00 0.0000000000000000e+00  7.1907306313649864e+00 3.1048527941576736e+00 0.0000000000000000e+00  7.1639108536506084e+00 2.9129890280612996e+00 0.0000000000000000e+00  7.0999464166533288e+00 3.1781771498571674e+00 0.0000000000000000e+00  7.0382026459627607e+00 3.1979770283246900e+00 0.0000000000000000e+00  7.0094737244084877e+00 3.1564951165648094e+00 0.0000000000000000e+00  6.9609577500274735e+00 3.3351635289209294e+00 0.0000000000000000e+00  6.8745691128044824e+00 3.3454641939340104e+00 0.0000000000000000e+00  6.8681208807590108e+00 3.4169861977336717e+00 0.0000000000000000e+00  6.8108672268689041e+00 3.4167109803100466e+00 0.0000000000000000e+00  6.7253456459016929e+00 3.6041911826213164e+00 0.0000000000000000e+00  6.7141615229211427e+00 3.5414521248728201e+00 0.0000000000000000e+00  6.6710099110844538e+00 3.6409767539635083e+00 0.0000000000000000e+00  6.5695736895738417e+00 3.7326843339700324e+00 0.0000000000000000e+00  6.5666935078306592e+00 3.7756875204689448e+00 0.0000000000000000e+00  6.5226172724041644e+00 3.7812011685932374e+00 0.0000000000000000e+00  6.4220190993133954e+00 3.9375339033880463e+00 0.0000000000000000e+00  6.4152859876885513e+00 3.9363569459245014e+00 0.0000000000000000e+00  6.3725656984230366e+00 3.9972792399940498e+00 0.0000000000000000e+00  6.2818110306244836e+00 4.0619879139279922e+00 0.0000000000000000e+00  6.2584948744759279e+00 4.1919022427030050e+00 0.0000000000000000e+00  6.2297765214375067e+00 4.1084747105658881e+00 0.0000000000000000e+00  6.1349532761637597e+00 4.2967808851512626e+00 0.0000000000000000e+00  6.1190187373671110e+00 4.3523865194398237e+00 0.0000000000000000e+00  6.0671772873814565e+00 4.2866105940101811e+00 0.0000000000000000e+00  6.0158553448571404e+00 4.5038675924655287e+00 0.0000000000000000e+00  5.9550262956529751e+00 4.5028927197517996e+00 0.0000000000000000e+00  5.9352836911081841e+00 4.5023842864007371e+00 0.0000000000000000e+00  5.8633733431803057e+00 4.6745554205241291e+00 0.0000000000000000e+00  5.8356739096250383e+00 4.6638303434086517e+00 0.0000000000000000e+00  5.7613774887821920e+00 4.7381264564280423e+00 0.0000000000000000e+00  5.7585589046910117e+00 4.7971473513408407e+00 0.0000000000000000e+00  5.6723052830622311e+00 4.8930008162957321e+00 0.0000000000000000e+00  5.6486995249847487e+00 4.8676419611059325e+00 0.0000000000000000e+00  5.5916323003640258e+00 5.0471412107000688e+00 0.0000000000000000e+00  5.5750844053546365e+00 4.9854473894676454e+00 0.0000000000000000e+00  5.4788818685224259e+00 5.1292070594654318e+00 0.0000000000000000e+00  5.4843972740844213e+00 5.1711288782767069e+00 0.0000000000000000e+00  5.4102571782303501e+00 5.2056932283068216e+00 0.0000000000000000e+00  5.3840208422870868e+00 5.2720815770858209e+00 0.0000000000000000e+00  5.3026072522906915e+00 5.4033940205532014e+00 0.0000000000000000e+00  5.3161260518557576e+00 5.3301896963105877e+00 0.0000000000000000e+00  5.2121255506097270e+00 5.5254473718380215e+00 0.0000000000000000e+00  5.2014314788687370e+00 5.5114030883040934e+00 0.0000000000000000e+00  5.1509991816719181e+00 5.5808388506991395e+00 0.0000000000000000e+00  5.1140851107755640e+00 5.6452628060995922e+00 0.0000000000000000e+00  5.0241842354722683e+00 5.7608216900777300e+00 0.0000000000000000e+00  5.0573408701432356e+00 5.7025885567230477e+00 0.0000000000000000e+00  4.9390609061876702e+00 5.9055239548048615e+00 0.0000000000000000e+00  4.9248712965981571e+00 5.8700715052982329e+00 0.0000000000000000e+00  4.8828789642407120e+00 5.9811974130544181e+00 0.0000000000000000e+00  4.8613783366622005e+00 5.9870528494147308e+00 0.0000000000000000e+00  4.7445522575920922e+00 6.1432121011136376e+00 0.0000000000000000e+00  4.7944092133037284e+00 6.1001948410764157e+00 0.0000000000000000e+00  4.6913174816640897e+00 6.2355909052184497e+00 0.0000000000000000e+00  4.6677971031948333e+00 6.2402624827815067e+00 0.0000000000000000e+00  4.6436656509690408e+00 6.3505852467407147e+00 0.0000000000000000e+00  4.6046566320793705e+00 6.3167687782110535e+00 0.0000000000000000e+00  4.4816652541635964e+00 6.5680281553499347e+00 0.0000000000000000e+00  4.5768578654934249e+00 6.4004835380800760e+00 0.0000000000000000e+00  4.4818951793885207e+00 6.5370030490213615e+00 0.0000000000000000e+00  4.4064324791780116e+00 6.6542732432879932e+00 0.0000000000000000e+00  4.3256798370144454e+00 6.7771054159965312e+00 0.0000000000000000e+00  4.3626597437199282e+00 6.7128511591341624e+00 0.0000000000000000e+00  4.3020915333399774e+00 6.8303767951225565e+00 0.0000000000000000e+00  4.2693851097790638e+00 6.8457998071311668e+00 0.0000000000000000e+00  4.1921923284310232e+00 6.9943213065244674e+00 0.0000000000000000e+00  4.1808352767382591e+00 6.9795153205115863e+00 0.0000000000000000e+00  4.0911693595409222e+00 7.1379987949024066e+00 0.0000000000000000e+00  4.0833887647114162e+00 7.1480752086927231e+00 0.0000000000000000e+00  4.0237641126380428e+00 7.2152952072908709e+00 0.0000000000000000e+00  4.0513944241884223e+00 7.2221722509329362e+00 0.0000000000000000e+00  3.9297955443418671e+00 7.3718238828585694e+00 0.0000000000000000e+00  3.9457433609421693e+00 7.3620144826691698e+00 0.0000000000000000e+00  3.8884079132988898e+00 7.4707304699259449e+00 0.0000000000000000e+00  4.0011767936328262e+00 7.3368840771588228e+00 0.0000000000000000e+00  3.7581349242923170e+00 7.6507759281533581e+00 0.0000000000000000e+00  3.9047092613317855e+00 7.4713063499709778e+00 0.0000000000000000e+00  3.7759279295531929e+00 7.6589713274042062e+00 0.0000000000000000e+00  3.5579238374086515e+00 7.9526082263493496e+00 0.0000000000000000e+00  3.9002431653344325e+00 7.4616685196655199e+00 0.0000000000000000e+00  3.8357814961369479e+00 7.5484894536189833e+00 0.0000000000000000e+00  3.9217276147004188e+00 7.4142282072315595e+00 0.0000000000000000e+00  3.9284504182068187e+00 7.4034398071058201e+00 0.0000000000000000e+00  4.0369639423139239e+00 7.2669515679796328e+00 0.0000000000000000e+00  3.7906511505382547e+00 7.5925615843021346e+00 0.0000000000000000e+00  4.0973414149548333e+00 7.1921783493878904e+00 0.0000000000000000e+00  4.1450839363204661e+00 7.1235837064724539e+00 0.0000000000000000e+00  4.0178368268462075e+00 7.2779547261952420e+00 0.0000000000000000e+00  4.0163412742102924e+00 7.2968243657641096e+00 0.0000000000000000e+00  3.9799132976911298e+00 7.3177105712120296e+00 0.0000000000000000e+00  4.0580199546189082e+00 7.2427463663492340e+00 0.0000000000000000e+00  4.0213878450919225e+00 7.2743576052623036e+00 0.0000000000000000e+00  3.9530783499612112e+00 7.3782660898874592e+00 0.0000000000000000e+00  3.9721518729663758e+00 7.3269817718384882e+00 0.0000000000000000e+00  3.9675846361893767e+00 7.3581935266347536e+00 0.0000000000000000e+00  3.9652801787741674e+00 7.3388363746051617e+00 0.0000000000000000e+00  3.9467259663734393e+00 7.3742318197008823e+00 0.0000000000000000e+00  3.9621638243569097e+00 7.3472455210537690e+00 0.0000000000000000e+00  3.9783544933366914e+00 7.3388831295510650e+00 0.0000000000000000e+00  3.9473334576417050e+00 7.3629197886245947e+00 0.0000000000000000e+00  3.9608231779188618e+00 7.3609228150427173e+00 0.0000000000000000e+00  3.9671876460549806e+00 7.3435598358131182e+00 0.0000000000000000e+00  3.9656651347316361e+00 7.3454559365812191e+00 0.0000000000000000e+00  3.9602326457133663e+00 7.3672404720349434e+00 0.0000000000000000e+00  3.9475789240546781e+00 7.3670340257775688e+00 0.0000000000000000e+00  3.9920999257316208e+00 7.3287264431943733e+00 0.0000000000000000e+00  3.9769847596319692e+00 7.3377483898444540e+00 0.0000000000000000e+00  3.9610438002645663e+00 7.3662119881705737e+00 0.0000000000000000e+00  3.9628169855232684e+00 7.3441082128223565e+00 0.0000000000000000e+00  3.9957999670617190e+00 7.3487327912589295e+00 0.0000000000000000e+00  3.9600841735512748e+00 7.3355955113794442e+00 0.0000000000000000e+00  3.9840575423492797e+00 7.3601004020031473e+00 0.0000000000000000e+00  3.9858810118062138e+00 7.3270149063514909e+00 0.0000000000000000e+00  3.9900396376618428e+00 7.3401133190807126e+00 0.0000000000000000e+00  3.9710433825123794e+00 7.3370712407479894e+00 0.0000000000000000e+00  3.9999441290425306e+00 7.3597054756569147e+00 0.0000000000000000e+00  3.9622099025968933e+00 7.3166783228141030e+00 0.0000000000000000e+00  3.9867685297021449e+00 7.3736757523345462e+00 0.0000000000000000e+00  3.9737274692095523e+00 7.3470452895814562e+00 0.0000000000000000e+00  3.9845359898520853e+00 7.3272880867251384e+00 0.0000000000000000e+00  3.9757773972809511e+00 7.3497565315317654e+00 0.0000000000000000e+00  3.9887910481778581e+00 7.3605266118483046e+00 0.0000000000000000e+00  3.9525731445381469e+00 7.3409175025471747e+00 0.0000000000000000e+00  3.9816989107419216e+00 7.3478657478988234e+00 0.0000000000000000e+00  3.9886337426544167e+00 7.3771537318675842e+00 0.0000000000000000e+00  3.9679800329421622e+00 7.2945242269110029e+00 0.0000000000000000e+00  3.9695529457662744e+00 7.3884836235832836e+00 0.0000000000000000e+00  3.9884919632404889e+00 7.3422732794755792e+00 0.0000000000000000e+00  3.9638409209528942e+00 7.3503736363938739e+00 0.0000000000000000e+00  3.9602205027978599e+00 7.3171267181907362e+00 0.0000000000000000e+00  4.0215308354141959e+00 7.3959294859074243e+00 0.0000000000000000e+00  3.9262364589663248e+00 7.2935461327641651e+00 0.0000000000000000e+00  3.9950713636305348e+00 7.3737348229471049e+00 0.0000000000000000e+00  3.9479047988283242e+00 7.3588976143371889e+00 0.0000000000000000e+00  3.9997672642418087e+00 7.3504725766726740e+00 0.0000000000000000e+00  3.9203155979867184e+00 7.3027631586422181e+00 0.0000000000000000e+00  4.0348124640237435e+00 7.3838541365911388e+00 0.0000000000000000e+00  3.9274824087876015e+00 7.3309576446254550e+00 0.0000000000000000e+00  3.9877059802174450e+00 7.3058431761040916e+00 0.0000000000000000e+00  3.9533867197893970e+00 7.4101910249399916e+00 0.0000000000000000e+00  3.9763020484721805e+00 7.2835846796609527e+00 0.0000000000000000e+00  3.9635725530260077e+00 7.3983754829570758e+00 0.0000000000000000e+00  3.9424874235175698e+00 7.3259469256151748e+00 0.0000000000000000e+00  3.9913105560346520e+00 7.3157450947380012e+00 0.0000000000000000e+00  3.9663959595737608e+00 7.4065112658012158e+00 0.0000000000000000e+00  3.9659208141456790e+00 7.2898404067662108e+00 0.0000000000000000e+00  3.9370940183989624e+00 7.3214395636771359e+00 0.0000000000000000e+00  4.0250284751132774e+00 7.4013859025001052e+00 0.0000000000000000e+00  3.9354150037026128e+00 7.3295021147875579e+00 0.0000000000000000e+00  3.9346645107076981e+00 7.2535943681310755e+00 0.0000000000000000e+00  4.0165100139374568e+00 7.3795675279109325e+00 0.0000000000000000e+00  3.9634577069861945e+00 7.4075254997506645e+00 0.0000000000000000e+00  3.7460562377583702e+00 7.6143432292509194e+00 0.0000000000000000e+00  6.1228376538865508e+00 3.7542402729283464e+00 0.0000000000000000e+00  9.8854937665678211e+00 -4.6628525082465810e-01 0.0000000000000000e+00  9.2510931159610266e+00 1.2159638365623744e-01 0.0000000000000000e+00  9.4677713651087938e+00 1.7608381781963944e-01 0.0000000000000000e+00  9.6389447166389193e+00 -1.5694226226879920e-01 0.0000000000000000e+00  9.3221845552296596e+00 -4.7624273793446855e-03 0.0000000000000000e+00  9.5401744301359894e+00 0.0000000000000000e+00 -1.1226914199703020e-01  9.5965790163206623e+00 0.0000000000000000e+00 1.7027887730350671e-01  9.6405420692872479e+00 0.0000000000000000e+00 -4.5224455132173422e-02  9.5047576202930557e+00 0.0000000000000000e+00 -1.8474363747486494e-01  9.5705308786383458e+00 0.0000000000000000e+00 -1.1137943088212698e-02  9.5075718759796466e+00 0.0000000000000000e+00 2.3309707918943720e-01  9.6631318148161096e+00 0.0000000000000000e+00 1.7307764559677020e-02  9.5172674471661729e+00 0.0000000000000000e+00 -1.7889194942141221e-01  9.5486059660336657e+00 0.0000000000000000e+00 -2.1851923463934267e-01  9.5603254539924851e+00 0.0000000000000000e+00 2.9522258186097383e-01  9.6847408763480107e+00 0.0000000000000000e+00 -5.7953360158727691e-03  9.7678457190473260e+00 0.0000000000000000e+00 1.0086997384740001e-01  9.6384356906046271e+00 0.0000000000000000e+00 -1.1218715230995371e-01  9.2565293997190228e+00 0.0000000000000000e+00 -4.1964197770327054e-02  9.5832787296388595e+00 0.0000000000000000e+00 -3.3602902767555717e-02  9.7932460506439298e+00 0.0000000000000000e+00 -2.2072129590518003e-01  9.6553590422816136e+00 0.0000000000000000e+00 -1.1112439406028309e-01  9.5494609830879469e+00 0.0000000000000000e+00 -4.6156469927459520e-01  9.4975223624718836e+00 0.0000000000000000e+00 1.3601277185015795e-01  9.4268034709383617e+00 0.0000000000000000e+00 9.4240070869158241e-02  9.6735308148454671e+00 0.0000000000000000e+00 -2.2840695148787331e-02  9.4195032464471922e+00 0.0000000000000000e+00 -3.0355210360297175e-01  9.4381857406963530e+00 0.0000000000000000e+00 -2.4261472988880040e-02  9.5582006253320291e+00 0.0000000000000000e+00 3.0134733091394111e-01  9.4754538201739429e+00 0.0000000000000000e+00 6.8343976045968383e-02  9.5669322569317110e+00 0.0000000000000000e+00 1.0375531819668554e-01  9.4995295206294639e+00 0.0000000000000000e+00 3.3965199586896748e-02  9.3963828253210604e+00 0.0000000000000000e+00 -1.5747308901214088e-01  9.5271236364900833e+00 0.0000000000000000e+00 -9.0351007824038154e-02  9.5213320127185543e+00 0.0000000000000000e+00 4.0567346143336423e-02  9.4551589270674175e+00 0.0000000000000000e+00 7.9115357652233223e-02  9.4203625034486453e+00 0.0000000000000000e+00 -2.2740642376599648e-01  9.4635589220989917e+00 0.0000000000000000e+00 -3.5610263491633307e-02  9.3876488716146547e+00 0.0000000000000000e+00 -1.6219438765030045e-01  9.5820183546515505e+00 0.0000000000000000e+00 -1.2939725245127073e-01  9.7769929757331457e+00 0.0000000000000000e+00 -1.5354093401350738e-01  9.5752083301865571e+00 0.0000000000000000e+00 4.0101902621456291e-02  9.4124407349678467e+00 0.0000000000000000e+00 -3.6289671764721398e-01  9.6135572696089699e+00 0.0000000000000000e+00 1.7204543422394178e-01  9.4461652275014192e+00 -2.2641409698597550e-01 0.0000000000000000e+00  9.6851492435319262e+00 -3.3749223775567810e-01 0.0000000000000000e+00  9.3691872554521165e+00 -2.1998469201489806e-01 0.0000000000000000e+00  9.2150713572891085e+00 -7.6292738821214165e-02 0.0000000000000000e+00  9.5159040599492837e+00 -9.5402489145924330e-01 0.0000000000000000e+00  6.3992928772664310e+00 2.9407526247785594e+00 0.0000000000000000e+00  3.7728389712910966e+00 7.5816301716215850e+00 0.0000000000000000e+00  3.8473121329213673e+00 7.4565454457327185e+00 0.0000000000000000e+00  3.8868205709571648e+00 6.9098576804502301e+00 0.0000000000000000e+00  3.9944853931575071e+00 7.0238013991669241e+00 0.0000000000000000e+00  3.8428087197795078e+00 7.2649016928712751e+00 0.0000000000000000e+00  3.9041698357802916e+00 7.1578469875693287e+00 0.0000000000000000e+00  3.9147323568864967e+00 7.1430344605415259e+00 0.0000000000000000e+00  3.9448970216946009e+00 7.1265564840699334e+00 0.0000000000000000e+00  3.9544532796179577e+00 7.1458326379156833e+00 0.0000000000000000e+00  3.8866346065642183e+00 7.1522200892912409e+00 0.0000000000000000e+00  3.9234234724341919e+00 7.3301940604708884e+00 0.0000000000000000e+00  3.8829415298844707e+00 7.1908296816272639e+00 0.0000000000000000e+00  3.9050904955421677e+00 7.3715335522511980e+00 0.0000000000000000e+00  3.9544258944588471e+00 7.2401952771354630e+00 0.0000000000000000e+00  3.8975406869394269e+00 7.4090925564924905e+00 0.0000000000000000e+00  3.8821421342696496e+00 7.2557771138294447e+00 0.0000000000000000e+00  3.9870942860495981e+00 7.3833098505443475e+00 0.0000000000000000e+00  3.8942185223734658e+00 7.3611650338739931e+00 0.0000000000000000e+00  3.9748614577228119e+00 7.3171157037922718e+00 0.0000000000000000e+00  3.9150951658631525e+00 7.3013763317118707e+00 0.0000000000000000e+00  3.9496979710186495e+00 7.4089698158069464e+00 0.0000000000000000e+00  3.9478594806076153e+00 7.2996383775210880e+00 0.0000000000000000e+00  3.9316636905898821e+00 7.3202450757553708e+00 0.0000000000000000e+00  3.9296429671944204e+00 7.3584243865705021e+00 0.0000000000000000e+00  3.9568448478222602e+00 7.2967799807331497e+00 0.0000000000000000e+00  3.9164213288094167e+00 7.3193564059899243e+00 0.0000000000000000e+00  3.9630483839369925e+00 7.3634304483016475e+00 0.0000000000000000e+00  3.9369406571994556e+00 7.2777780564749621e+00 0.0000000000000000e+00  3.9441739207590212e+00 7.3566337972842062e+00 0.0000000000000000e+00  3.9407238745624085e+00 7.2986556418545554e+00 0.0000000000000000e+00  3.9733249798780399e+00 7.2648546291181306e+00 0.0000000000000000e+00  3.9381559456219519e+00 7.3199008519481481e+00 0.0000000000000000e+00  3.9634298969991661e+00 7.3293178737360520e+00 0.0000000000000000e+00  3.9482527542523456e+00 7.2747077473248991e+00 0.0000000000000000e+00  3.9819337884188251e+00 7.3066914335992701e+00 0.0000000000000000e+00  3.9428178328091317e+00 7.3215840864269568e+00 