<?xml version="1.0"?>
<VTKFile type="UnstructuredGrid"  version="0.1"  >
<UnstructuredGrid>
<Piece  NumberOfPoints="9509" NumberOfCells="18536">
<Points>
<DataArray  type="Float64"  NumberOfComponents="3"  format="ascii">-5 -1 0  5 -1 0  5 1 0  -5 1 0  -4.949999999999965 -1 0  -4.899999999999877 -1 0  -4.849999999999826 -1 0  -4.799999999999754 -1 0  -4.749999999999695 -1 0  -4.69999999999963 -1 0  -4.649999999999565 -1 0  -4.599999999999507 -1 0  -4.549999999999454 -1 0  -4.499999999999384 -1 0  -4.449999999999317 -1 0  -4.399999999999261 -1 0  -4.349999999999206 -1 0  -4.299999999999137 -1 0  -4.249999999999075 -1 0  -4.199999999999013 -1 0  -4.149999999998934 -1 0  -4.09999999999889 -1 0  -4.049999999998847 -1 0  -3.999999999998767 -1 0  -3.949999999998706 -1 0  -3.899999999998644 -1 0  -3.849999999998594 -1 0  -3.799999999998552 -1 0  -3.749999999998549 -1 0  -3.699999999998651 -1 0  -3.649999999998804 -1 0  -3.59999999999894 -1 0  -3.549999999999097 -1 0  -3.499999999999261 -1 0  -3.449999999999394 -1 0  -3.399999999999582 -1 0  -3.349999999999742 -1 0  -3.299999999999902 -1 0  -3.25000000000006 -1 0  -3.200000000000223 -1 0  -3.150000000000369 -1 0  -3.100000000000544 -1 0  -3.050000000000704 -1 0  -3.000000000000864 -1 0  -2.950000000001029 -1 0  -2.900000000001185 -1 0  -2.850000000001347 -1 0  -2.800000000001506 -1 0  -2.750000000001665 -1 0  -2.700000000001827 -1 0  -2.650000000001979 -1 0  -2.600000000002148 -1 0  -2.550000000002311 -1 0  -2.500000000002468 -1 0  -2.450000000002635 -1 0  -2.400000000002789 -1 0  -2.35000000000295 -1 0  -2.30000000000311 -1 0  -2.250000000003253 -1 0  -2.200000000003431 -1 0  -2.150000000003601 -1 0  -2.100000000003752 -1 0  -2.050000000003922 -1 0  -2.000000000004072 -1 0  -1.950000000004237 -1 0  -1.900000000004393 -1 0  -1.850000000004541 -1 0  -1.800000000004714 -1 0  -1.750000000004886 -1 0  -1.700000000005035 -1 0  -1.650000000005206 -1 0  -1.600000000005355 -1 0  -1.550000000005516 -1 0  -1.500000000005676 -1 0  -1.450000000005824 -1 0  -1.400000000005996 -1 0  -1.350000000006146 -1 0  -1.300000000006318 -1 0  -1.250000000006505 -1 0  -1.200000000006638 -1 0  -1.150000000006797 -1 0  -1.100000000006959 -1 0  -1.050000000007106 -1 0  -1.000000000007245 -1 0  -0.9500000000072193 -1 0  -0.9000000000072612 -1 0  -0.8500000000071966 -1 0  -0.8000000000071381 -1 0  -0.750000000007085 -1 0  -0.700000000007015 -1 0  -0.6500000000069521 -1 0  -0.6000000000068919 -1 0  -0.5500000000068104 -1 0  -0.5000000000067688 -1 0  -0.4500000000067104 -1 0  -0.4000000000066457 -1 0  -0.3500000000065757 -1 0  -0.3000000000065226 -1 0  -0.2500000000064961 -1 0  -0.2000000000063995 -1 0  -0.1500000000063775 -1 0  -0.1000000000062764 -1 0  -0.0500000000062597 -1 0  -6.153300091682468e-12 -1 0  0.04999999999390781 -1 0  0.09999999999396891 -1 0  0.14999999999403 -1 0  0.1999999999940929 -1 0  0.2499999999941318 -1 0  0.299999999994216 -1 0  0.349999999994254 -1 0  0.3999999999943391 -1 0  0.4499999999944038 -1 0  0.4999999999944613 -1 0  0.5499999999945429 -1 0  0.5999999999945853 -1 0  0.6499999999946606 -1 0  0.6999999999947084 -1 0  0.7499999999947651 -1 0  0.7999999999948315 -1 0  0.8499999999948926 -1 0  0.8999999999949537 -1 0  0.9499999999950148 -1 0  0.9999999999950768 -1 0  1.049999999995139 -1 0  1.0999999999952 -1 0  1.149999999995266 -1 0  1.199999999995324 -1 0  1.249999999995385 -1 0  1.299999999995446 -1 0  1.349999999995488 -1 0  1.399999999995569 -1 0  1.449999999995604 -1 0  1.499999999995692 -1 0  1.549999999995753 -1 0  1.599999999995816 -1 0  1.649999999995892 -1 0  1.699999999995939 -1 0  1.749999999996017 -1 0  1.799999999996063 -1 0  1.849999999996111 -1 0  1.899999999996185 -1 0  1.949999999996246 -1 0  1.999999999996308 -1 0  2.049999999996351 -1 0  2.099999999996431 -1 0  2.149999999996504 -1 0  2.199999999996555 -1 0  2.249999999996616 -1 0  2.299999999996677 -1 0  2.349999999996736 -1 0  2.3999999999968 -1 0  2.449999999996847 -1 0  2.499999999996923 -1 0  2.549999999997 -1 0  2.599999999997047 -1 0  2.649999999997093 -1 0  2.69999999999717 -1 0  2.749999999997245 -1 0  2.799999999997293 -1 0  2.849999999997344 -1 0  2.899999999997416 -1 0  2.949999999997469 -1 0  2.999999999997539 -1 0  3.049999999997576 -1 0  3.099999999997662 -1 0  3.149999999997725 -1 0  3.199999999997784 -1 0  3.249999999997829 -1 0  3.299999999997908 -1 0  3.349999999997921 -1 0  3.39999999999803 -1 0  3.4499999999981 -1 0  3.499999999998153 -1 0  3.549999999998214 -1 0  3.599999999998277 -1 0  3.649999999998409 -1 0  3.699999999998401 -1 0  3.749999999998444 -1 0  3.799999999998523 -1 0  3.849999999998602 -1 0  3.899999999998645 -1 0  3.949999999998658 -1 0  3.999999999998769 -1 0  4.049999999998814 -1 0  4.099999999998893 -1 0  4.149999999998883 -1 0  4.199999999999015 -1 0  4.249999999999064 -1 0  4.299999999999137 -1 0  4.349999999999152 -1 0  4.399999999999261 -1 0  4.44999999999933 -1 0  4.499999999999385 -1 0  4.549999999999446 -1 0  4.599999999999508 -1 0  4.649999999999633 -1 0  4.699999999999632 -1 0  4.749999999999723 -1 0  4.799999999999754 -1 0  4.849999999999801 -1 0  4.899999999999876 -1 0  4.949999999999925 -1 0  5 -0.950000000000111 0  5 -0.9000000000002774 0  5 -0.8500000000004283 0  5 -0.8000000000005548 0  5 -0.7500000000006787 0  5 -0.7000000000008322 0  5 -0.6500000000009709 0  5 -0.6000000000011096 0  5 -0.5500000000012484 0  5 -0.500000000001387 0  5 -0.4500000000015256 0  5 -0.4000000000016644 0  5 -0.3500000000018031 0  5 -0.3000000000019418 0  5 -0.2500000000020806 0  5 -0.2000000000022192 0  5 -0.1500000000023578 0  5 -0.1000000000024964 0  5 -0.05000000000262439 0  5 -2.752242878045763e-12 0  5 0.0499999999973757 0  5 0.09999999999750342 0  5 0.1499999999976422 0  5 0.1999999999977808 0  5 0.2499999999979194 0  5 0.2999999999980583 0  5 0.3499999999981969 0  5 0.3999999999983355 0  5 0.4499999999984743 0  5 0.4999999999986129 0  5 0.5499999999987515 0  5 0.5999999999988903 0  5 0.6499999999990291 0  5 0.699999999999168 0  5 0.7499999999993068 0  5 0.7999999999994454 0  5 0.849999999999584 0  5 0.8999999999997226 0  5 0.9499999999998612 0  4.949999999999965 1 0  4.899999999999877 1 0  4.849999999999826 1 0  4.799999999999754 1 0  4.749999999999695 1 0  4.69999999999963 1 0  4.649999999999565 1 0  4.599999999999507 1 0  4.549999999999454 1 0  4.499999999999384 1 0  4.449999999999317 1 0  4.399999999999261 1 0  4.349999999999206 1 0  4.299999999999137 1 0  4.249999999999075 1 0  4.199999999999013 1 0  4.149999999998934 1 0  4.09999999999889 1 0  4.049999999998847 1 0  3.999999999998767 1 0  3.949999999998706 1 0  3.899999999998644 1 0  3.849999999998594 1 0  3.799999999998552 1 0  3.749999999998549 1 0  3.699999999998651 1 0  3.649999999998804 1 0  3.59999999999894 1 0  3.549999999999097 1 0  3.499999999999261 1 0  3.449999999999394 1 0  3.399999999999582 1 0  3.349999999999742 1 0  3.299999999999902 1 0  3.25000000000006 1 0  3.200000000000223 1 0  3.150000000000369 1 0  3.100000000000544 1 0  3.050000000000704 1 0  3.000000000000864 1 0  2.950000000001029 1 0  2.900000000001185 1 0  2.850000000001347 1 0  2.800000000001506 1 0  2.750000000001665 1 0  2.700000000001827 1 0  2.650000000001979 1 0  2.600000000002148 1 0  2.550000000002311 1 0  2.500000000002468 1 0  2.450000000002635 1 0  2.400000000002789 1 0  2.35000000000295 1 0  2.30000000000311 1 0  2.250000000003253 1 0  2.200000000003431 1 0  2.150000000003601 1 0  2.100000000003752 1 0  2.050000000003922 1 0  2.000000000004072 1 0  1.950000000004237 1 0  1.900000000004393 1 0  1.850000000004541 1 0  1.800000000004714 1 0  1.750000000004886 1 0  1.700000000005035 1 0  1.650000000005206 1 0  1.600000000005355 1 0  1.550000000005516 1 0  1.500000000005676 1 0  1.450000000005824 1 0  1.400000000005996 1 0  1.350000000006146 1 0  1.300000000006318 1 0  1.250000000006505 1 0  1.200000000006638 1 0  1.150000000006797 1 0  1.100000000006959 1 0  1.050000000007106 1 0  1.000000000007245 1 0  0.9500000000072193 1 0  0.9000000000072612 1 0  0.8500000000071966 1 0  0.8000000000071381 1 0  0.750000000007085 1 0  0.700000000007015 1 0  0.6500000000069521 1 0  0.6000000000068919 1 0  0.5500000000068104 1 0  0.5000000000067688 1 0  0.4500000000067104 1 0  0.4000000000066457 1 0  0.3500000000065757 1 0  0.3000000000065226 1 0  0.2500000000064961 1 0  0.2000000000063995 1 0  0.1500000000063775 1 0  0.1000000000062764 1 0  0.0500000000062597 1 0  6.153300091682468e-12 1 0  -0.04999999999390781 1 0  -0.09999999999396891 1 0  -0.14999999999403 1 0  -0.1999999999940929 1 0  -0.2499999999941318 1 0  -0.299999999994216 1 0  -0.349999999994254 1 0  -0.3999999999943391 1 0  -0.4499999999944038 1 0  -0.4999999999944613 1 0  -0.5499999999945429 1 0  -0.5999999999945853 1 0  -0.6499999999946606 1 0  -0.6999999999947084 1 0  -0.7499999999947651 1 0  -0.7999999999948315 1 0  -0.8499999999948926 1 0  -0.8999999999949537 1 0  -0.9499999999950148 1 0  -0.9999999999950768 1 0  -1.049999999995139 1 0  -1.0999999999952 1 0  -1.149999999995266 1 0  -1.199999999995324 1 0  -1.249999999995385 1 0  -1.299999999995446 1 0  -1.349999999995488 1 0  -1.399999999995569 1 0  -1.449999999995604 1 0  -1.499999999995692 1 0  -1.549999999995753 1 0  -1.599999999995816 1 0  -1.649999999995892 1 0  -1.699999999995939 1 0  -1.749999999996017 1 0  -1.799999999996063 1 0  -1.849999999996111 1 0  -1.899999999996185 1 0  -1.949999999996246 1 0  -1.999999999996308 1 0  -2.049999999996351 1 0  -2.099999999996431 1 0  -2.149999999996504 1 0  -2.199999999996555 1 0  -2.249999999996616 1 0  -2.299999999996677 1 0  -2.349999999996736 1 0  -2.3999999999968 1 0  -2.449999999996847 1 0  -2.499999999996923 1 0  -2.549999999997 1 0  -2.599999999997047 1 0  -2.649999999997093 1 0  -2.69999999999717 1 0  -2.749999999997245 1 0  -2.799999999997293 1 0  -2.849999999997344 1 0  -2.899999999997416 1 0  -2.949999999997469 1 0  -2.999999999997539 1 0  -3.049999999997576 1 0  -3.099999999997662 1 0  -3.149999999997725 1 0  -3.199999999997784 1 0  -3.249999999997829 1 0  -3.29999
[...]
<PointData  Vectors="(h, u)"> 
<DataArray  type="Float64"  Name="(h, u)"  NumberOfComponents="3" format="ascii">4.6482535603509465e+00 0.0000000000000000e+00 0.0000000000000000e+00  9.5000702540320265e+00 0.0000000000000000e+00 0.0000000000000000e+00  9.5009274710649176e+00 0.0000000000000000e+00 0.0000000000000000e+00  4.6436211831145950e+00 0.0000000000000000e+00 0.0000000000000000e+00  4.6509766815464531e+00 4.6732853409797277e-02 0.0000000000000000e+00  4.6478123968133112e+00 1.6056319621995593e-01 0.0000000000000000e+00  4.6535684740016841e+00 2.0818296218116314e-01 0.0000000000000000e+00  4.6455306310962508e+00 2.0338363507798451e-01 0.0000000000000000e+00  4.6510844870790082e+00 3.3901759467898862e-01 0.0000000000000000e+00  4.6489058655286906e+00 4.3362482367635169e-01 0.0000000000000000e+00  4.6484111346368078e+00 3.9659432002323242e-01 0.0000000000000000e+00  4.6517879167734923e+00 6.1172022165249584e-01 0.0000000000000000e+00  4.6443489628218693e+00 5.6623932647014341e-01 0.0000000000000000e+00  4.6469267950174107e+00 6.3880677298930477e-01 0.0000000000000000e+00  4.6489003988787649e+00 7.3680934336241177e-01 0.0000000000000000e+00  4.6444704176840901e+00 8.3845268849890253e-01 0.0000000000000000e+00  4.6389701812342068e+00 7.3954531156972392e-01 0.0000000000000000e+00  4.6524463999699606e+00 1.0203843899445613e+00 0.0000000000000000e+00  4.6360573085974792e+00 9.6490040557070678e-01 0.0000000000000000e+00  4.6429201408780232e+00 1.0143332980263016e+00 0.0000000000000000e+00  4.6420619275731312e+00 1.1195593446126408e+00 0.0000000000000000e+00  4.6438707162733692e+00 1.2715894300143884e+00 0.0000000000000000e+00  4.6275012092301804e+00 1.1210713146488207e+00 0.0000000000000000e+00  4.6523133954525466e+00 1.3774279490012795e+00 0.0000000000000000e+00  4.6274463412836901e+00 1.3940522061031426e+00 0.0000000000000000e+00  4.6376324441599168e+00 1.4047693575127707e+00 0.0000000000000000e+00  4.6342915567712488e+00 1.5176026920817081e+00 0.0000000000000000e+00  4.6391923440563376e+00 1.5819730200394511e+00 0.0000000000000000e+00  4.6176551116093094e+00 1.6150741806801736e+00 0.0000000000000000e+00  4.6453460561591458e+00 1.7360555327551488e+00 0.0000000000000000e+00  4.6202950437274808e+00 1.7311573397975004e+00 0.0000000000000000e+00  4.6271483442371233e+00 1.8384222514840449e+00 0.0000000000000000e+00  4.6262858504549378e+00 1.9165895169763174e+00 0.0000000000000000e+00  4.6300246305442219e+00 1.9503563948341904e+00 0.0000000000000000e+00  4.6074773174094554e+00 2.0210569523141606e+00 0.0000000000000000e+00  4.6351114927759935e+00 2.0954991911864327e+00 0.0000000000000000e+00  4.6118670407347091e+00 2.1677970063753786e+00 0.0000000000000000e+00  4.6136490417412155e+00 2.2056991525057410e+00 0.0000000000000000e+00  4.6193762062124657e+00 2.2917881539284011e+00 0.0000000000000000e+00  4.6151625800984082e+00 2.3438678103879065e+00 0.0000000000000000e+00  4.5996910894600971e+00 2.4327790157862133e+00 0.0000000000000000e+00  4.6203378445163512e+00 2.4486811000324114e+00 0.0000000000000000e+00  4.6025490420466983e+00 2.5717234949872907e+00 0.0000000000000000e+00  4.5978675099862416e+00 2.6028960478227576e+00 0.0000000000000000e+00  4.6097675756124277e+00 2.6643108199087107e+00 0.0000000000000000e+00  4.5970352253147349e+00 2.7493171824076450e+00 0.0000000000000000e+00  4.5895967627854226e+00 2.8128854738303488e+00 0.0000000000000000e+00  4.6014491652684555e+00 2.8447039883077792e+00 0.0000000000000000e+00  4.5890409140100017e+00 2.9664753746136374e+00 0.0000000000000000e+00  4.5803836851074697e+00 2.9672391657903914e+00 0.0000000000000000e+00  4.5936042208800378e+00 3.0976360197404720e+00 0.0000000000000000e+00  4.5766722841959639e+00 3.0899312253758966e+00 0.0000000000000000e+00  4.5753365218288105e+00 3.2277162899367604e+00 0.0000000000000000e+00  4.5788537073072915e+00 3.2338528576738619e+00 0.0000000000000000e+00  4.5703076709153549e+00 3.3287955052285145e+00 0.0000000000000000e+00  4.5628128589806165e+00 3.3788437284780568e+00 0.0000000000000000e+00  4.5711755188616499e+00 3.4580083822448722e+00 0.0000000000000000e+00  4.5554931538716259e+00 3.4948991752993925e+00 0.0000000000000000e+00  4.5586125765814973e+00 3.5850418122809589e+00 0.0000000000000000e+00  4.5541319910203661e+00 3.6361262147386522e+00 0.0000000000000000e+00  4.5487899349845105e+00 3.6945065408007700e+00 0.0000000000000000e+00  4.5453860764700771e+00 3.7698159040618000e+00 0.0000000000000000e+00  4.5434242249601624e+00 3.8189862675932371e+00 0.0000000000000000e+00  4.5319040264294763e+00 3.9108880652266040e+00 0.0000000000000000e+00  4.5389103939067281e+00 3.9220062978659898e+00 0.0000000000000000e+00  4.5235314091773526e+00 4.0501580343803516e+00 0.0000000000000000e+00  4.5212745476778853e+00 4.0698308003496138e+00 0.0000000000000000e+00  4.5238051191819748e+00 4.1331426303258523e+00 0.0000000000000000e+00  4.5133462370172985e+00 4.2206989050354595e+00 0.0000000000000000e+00  4.5034558920429539e+00 4.2746510860294364e+00 0.0000000000000000e+00  4.5136604210568967e+00 4.2994805413762833e+00 0.0000000000000000e+00  4.4992754631866152e+00 4.4315385202664421e+00 0.0000000000000000e+00  4.4913096191233279e+00 4.4228097825018668e+00 0.0000000000000000e+00  4.4999618835939765e+00 4.5209859275695070e+00 0.0000000000000000e+00  4.4907074518193841e+00 4.5777750129328663e+00 0.0000000000000000e+00  4.4798968697132100e+00 4.6135466293460965e+00 0.0000000000000000e+00  4.4743411950950271e+00 4.7246584090689723e+00 0.0000000000000000e+00  4.4848265624714063e+00 4.7294331815881900e+00 0.0000000000000000e+00  4.4570581170867047e+00 4.8166758238599119e+00 0.0000000000000000e+00  4.4519304369873929e+00 4.9147881864081810e+00 0.0000000000000000e+00  4.4574705485681809e+00 4.9050571316898850e+00 0.0000000000000000e+00  4.4582707825895778e+00 4.9974439626825848e+00 0.0000000000000000e+00  4.4085308525663782e+00 5.0980497138420997e+00 0.0000000000000000e+00  4.4418774473781708e+00 5.1073920047184025e+00 0.0000000000000000e+00  4.4262529982000185e+00 5.1591332959759422e+00 0.0000000000000000e+00  4.4128180582610312e+00 5.2851722328041095e+00 0.0000000000000000e+00  4.3881827134168381e+00 5.2652813974029309e+00 0.0000000000000000e+00  4.4059969664416023e+00 5.4103145116794762e+00 0.0000000000000000e+00  4.3872137923006891e+00 5.3920378840544636e+00 0.0000000000000000e+00  4.3740143240246461e+00 5.4737909953586099e+00 0.0000000000000000e+00  4.3552666367134742e+00 5.6049209696143665e+00 0.0000000000000000e+00  4.3675805170761874e+00 5.5580079412195564e+00 0.0000000000000000e+00  4.3322144709349111e+00 5.6672286121462196e+00 0.0000000000000000e+00  4.3585238902822674e+00 5.7540062180949363e+00 0.0000000000000000e+00  4.3004614730840105e+00 5.7429326899584181e+00 0.0000000000000000e+00  4.3460804833301685e+00 5.8300547779804273e+00 0.0000000000000000e+00  4.3118424682183338e+00 5.8911212011597236e+00 0.0000000000000000e+00  4.3356192551123716e+00 5.8671813479089368e+00 0.0000000000000000e+00  4.2485304082877722e+00 6.0551887962755320e+00 0.0000000000000000e+00  4.3157962149243243e+00 6.0518170575546550e+00 0.0000000000000000e+00  4.2623855884357695e+00 6.0395698058983207e+00 0.0000000000000000e+00  4.2344295280901241e+00 6.2537570164464418e+00 0.0000000000000000e+00  4.2575618558543713e+00 6.1829955005470723e+00 0.0000000000000000e+00  4.2639031998277401e+00 6.2048734704189021e+00 0.0000000000000000e+00  4.1491802002884848e+00 6.4499236162230416e+00 0.0000000000000000e+00  4.2059327527897334e+00 6.3716146855958407e+00 0.0000000000000000e+00  4.1958576008860833e+00 6.4176103465817240e+00 0.0000000000000000e+00  4.1619525262461918e+00 6.5168382012647692e+00 0.0000000000000000e+00  4.2007960104237378e+00 6.4833355921324127e+00 0.0000000000000000e+00  4.1720151682950091e+00 6.5621106840125636e+00 0.0000000000000000e+00  4.1472811456797585e+00 6.6151041777552004e+00 0.0000000000000000e+00  4.0909958815854948e+00 6.7339336215285890e+00 0.0000000000000000e+00  4.1217361196207678e+00 6.7230505874391353e+00 0.0000000000000000e+00  4.0844801660219643e+00 6.7764743135280767e+00 0.0000000000000000e+00  4.1271162753055650e+00 6.7833738219019644e+00 0.0000000000000000e+00  4.0379709855257309e+00 6.8994542039167817e+00 0.0000000000000000e+00  4.0281589672514331e+00 6.9385151952888826e+00 0.0000000000000000e+00  3.9774770545292446e+00 7.0675637193455838e+00 0.0000000000000000e+00  4.0411806308189249e+00 6.9589498976455335e+00 0.0000000000000000e+00  4.0410258833113417e+00 6.9973404794517933e+00 0.0000000000000000e+00  3.9868084147629013e+00 7.1129008502130437e+00 0.0000000000000000e+00  3.9443045235382264e+00 7.1372600651133187e+00 0.0000000000000000e+00  3.9233097281657976e+00 7.2500891107972754e+00 0.0000000000000000e+00  3.9401331331448959e+00 7.1786088339878056e+00 0.0000000000000000e+00  3.8840683291700695e+00 7.3501588772298367e+00 0.0000000000000000e+00  3.8827358459288503e+00 7.2850214926128709e+00 0.0000000000000000e+00  3.8665403934694207e+00 7.4000390773671176e+00 0.0000000000000000e+00  3.8916071294170056e+00 7.3324582310623141e+00 0.0000000000000000e+00  3.7891344893145460e+00 7.4848374020548523e+00 0.0000000000000000e+00  3.8263121070646453e+00 7.5002073305830974e+00 0.0000000000000000e+00  3.7525839905560883e+00 7.5411481293773068e+00 0.0000000000000000e+00  3.7736937373267159e+00 7.5846974014421962e+00 0.0000000000000000e+00  3.7569846850050861e+00 7.6147431953419566e+00 0.0000000000000000e+00  3.6972352024637520e+00 7.6724992965029308e+00 0.0000000000000000e+00  3.9620007151167820e+00 7.2785331360393117e+00 0.0000000000000000e+00  4.0094220030204406e+00 7.2455970168371371e+00 0.0000000000000000e+00  4.0053532278645712e+00 7.2057407235004769e+00 0.0000000000000000e+00  3.9240093130146079e+00 7.3592664020088225e+00 0.0000000000000000e+00  3.9346738293984886e+00 7.3393210927158732e+00 0.0000000000000000e+00  3.9410192868221858e+00 7.3385765251556458e+00 0.0000000000000000e+00  3.9428434706208164e+00 7.3167269603361005e+00 0.0000000000000000e+00  3.9357821001696203e+00 7.3724230707648584e+00 0.0000000000000000e+00  3.9499206963328080e+00 7.3061209365122135e+00 0.0000000000000000e+00  3.9388969565207637e+00 7.3616926319530771e+00 0.0000000000000000e+00  3.9336359784293142e+00 7.3455560005197951e+00 0.0000000000000000e+00  3.9316566656193612e+00 7.3609468832835905e+00 0.0000000000000000e+00  3.9632310082746240e+00 7.3035763134815301e+00 0.0000000000000000e+00  3.9569859670345742e+00 7.3453202848244663e+00 0.0000000000000000e+00  3.9132170565463467e+00 7.3575718012870839e+00 0.0000000000000000e+00  3.9751045120091733e+00 7.3145181337741461e+00 0.0000000000000000e+00  3.9514266642409908e+00 7.3235057828884074e+00 0.0000000000000000e+00  3.9456090243936828e+00 7.3624140902013728e+00 0.0000000000000000e+00  3.9248710956474784e+00 7.3466594357823043e+00 0.0000000000000000e+00  3.9657373264869338e+00 7.3102820044966785e+00 0.0000000000000000e+00  3.9628056432651588e+00 7.3647097515158304e+00 0.0000000000000000e+00  3.9531606448708447e+00 7.3572579209485021e+00 0.0000000000000000e+00  4.0121151223127631e+00 6.9497896461921664e+00 0.0000000000000000e+00  3.4572702322317395e+00 8.5335992045855757e+00 0.0000000000000000e+00  8.9623105339443008e+00 4.3613507336341278e-01 0.0000000000000000e+00  8.9834530812386291e+00 4.7637090030078444e-01 0.0000000000000000e+00  9.7756876239420798e+00 -2.9572472470241873e-01 0.0000000000000000e+00  9.2702417552745988e+00 2.3608446745171463e-01 0.0000000000000000e+00  9.6143431873711567e+00 -1.4503598664613851e-01 0.0000000000000000e+00  9.4596832489171074e+00 3.5597367146208460e-02 0.0000000000000000e+00  9.4996820572883003e+00 3.2528593180837749e-03 0.0000000000000000e+00  9.4972961642762090e+00 2.8582933718276452e-05 0.0000000000000000e+00  9.4871923427514169e+00 -1.5947765065427765e-03 0.0000000000000000e+00  9.5219092331343695e+00 6.6839366465420958e-05 0.0000000000000000e+00  9.4891442927734957e+00 2.1026716585972226e-02 0.0000000000000000e+00  9.4982174120201606e+00 -1.2011723887164121e-03 0.0000000000000000e+00  9.5083172061483445e+00 3.8506470654914582e-03 0.0000000000000000e+00  9.5108352136435723e+00 7.3431694576318440e-03 0.0000000000000000e+00  9.4941473811183084e+00 4.3184602474523317e-03 0.0000000000000000e+00  9.5092628686441873e+00 7.8899354692079054e-04 0.0000000000000000e+00  9.5105206395558657e+00 8.0585361578334371e-03 0.0000000000000000e+00  9.4994087847492228e+00 1.7945371781479232e-03 0.0000000000000000e+00  9.5051143787345946e+00 1.9927290912953997e-02 0.0000000000000000e+00  9.5124811818995827e+00 -3.1204097635345682e-03 0.0000000000000000e+00  9.5003493909337244e+00 9.6479433451687677e-03 0.0000000000000000e+00  9.5052163968940793e+00 1.2218288995089515e-02 0.0000000000000000e+00  9.5122793473960066e+00 1.8518923048993208e-02 0.0000000000000000e+00  9.5041346957367026e+00 -3.0345357319132640e-03 0.0000000000000000e+00  9.5036345601759020e+00 1.6925024610882747e-02 0.0000000000000000e+00  9.5126918039209656e+00 -2.1166272317927450e-03 0.0000000000000000e+00  9.5060340323227219e+00 7.4576413986761642e-03 0.0000000000000000e+00  9.5028971728693303e+00 1.2081735100261825e-02 0.0000000000000000e+00  9.5110119928633416e+00 1.9468949848041256e-03 0.0000000000000000e+00  9.5065496609776758e+00 2.3151991361801362e-03 0.0000000000000000e+00  9.5030288663020368e+00 7.3094295169913353e-03 0.0000000000000000e+00  9.5068385965245970e+00 8.6908329725457045e-03 0.0000000000000000e+00  9.5092421497522590e+00 -2.3394637996787724e-03 0.0000000000000000e+00  9.4995713630362530e+00 2.5265293627085794e-02 0.0000000000000000e+00  9.5091855007285595e+00 -2.4958149381345465e-03 0.0000000000000000e+00  9.5047641625746486e+00 2.4486653956686359e-02 0.0000000000000000e+00  9.5063851546518663e+00 9.8258851925958901e-03 0.0000000000000000e+00  9.5020496878789071e+00 1.0741107277501006e-02 0.0000000000000000e+00  9.5130882923695737e+00 3.9492762911353266e-03 0.0000000000000000e+00  9.4989911750451537e+00 -5.4213933091570082e-03 0.0000000000000000e+00  9.5114296280136230e+00 2.8283027643034059e-02 0.0000000000000000e+00  9.5028833879591268e+00 -6.4680935725323033e-02 0.0000000000000000e+00  9.5098618663010743e+00 1.6973462747596074e-02 0.0000000000000000e+00  9.5010223594414924e+00 -5.3143796367250314e-02 0.0000000000000000e+00  9.5120876265494818e+00 -1.8320384110902471e-01 0.0000000000000000e+00  9.5111614205908435e+00 0.0000000000000000e+00 -6.4068579199885234e-02  9.5003675766123497e+00 0.0000000000000000e+00 -3.2680987249591065e-02  9.5093541820763736e+00 0.0000000000000000e+00 -3.1714316797769579e-02  9.5004605630145349e+00 0.0000000000000000e+00 -1.0106578461967479e-01  9.5095980774346867e+00 0.0000000000000000e+00 3.1011030967718321e-02  9.5001350492858752e+00 0.0000000000000000e+00 6.3785015550647903e-02  9.5075370842176987e+00 0.0000000000000000e+00 -6.2849585240663478e-03  9.4980254296657876e+00 0.0000000000000000e+00 -1.2744320377477042e-01  9.5067452946697006e+00 0.0000000000000000e+00 -9.4280664294110972e-02  9.4966571649607783e+00 0.0000000000000000e+00 1.4375456725704785e-01  9.5045030531731545e+00 0.0000000000000000e+00 -2.1891927971498009e-02  9.4910958100673390e+00 0.0000000000000000e+00 -1.5614479779224940e-02  9.5057293117337061e+00 0.0000000000000000e+00 -4.7711971436643096e-02  9.4914393421653838e+00 0.0000000000000000e+00 -4.1592445050597671e-02  9.4959041047326487e+00 0.0000000000000000e+00 -9.0521120562985474e-02  9.4895389034807334e+00 0.0000000000000000e+00 -1.9386735011015926e-01  9.4993151361935126e+00 0.0000000000000000e+00 -1.0551012720259362e-01  9.4842446029786220e+00 0.0000000000000000e+00 -2.7475108700269746e-01  9.4977682626087354e+00 0.0000000000000000e+00 4.8161110124732807e-02  9.4895082753049422e+00 0.0000000000000000e+00 5.7243532998657719e-02  9.4955051798980907e+00 0.0000000000000000e+00 -8.6383537282819486e-02  9.4883321933348501e+00 0.0000000000000000e+00 -2.3287131424149426e-01  9.4966369856618886e+00 0.0000000000000000e+00 -3.4477051007706670e-02  9.4916551422073052e+00 0.0000000000000000e+00 1.9365511606857058e-01  9.4942619610002819e+00 0.0000000000000000e+00 -8.6452544068067270e-03  9.4924530941481571e+00 0.0000000000000000e+00 4.3738067378977313e-02  9.5014473686575105e+00 0.0000000000000000e+00 -2.0035161201126660e-02  9.4920793806832435e+00 0.0000000000000000e+00 -1.3569141933286707e-01  9.4978717352687063e+00 0.0000000000000000e+00 -1.1250772747644462e-01  9.5020028196450443e+00 0.0000000000000000e+00 7.5442300546366581e-02  9.4953164375889152e+00 0.0000000000000000e+00 -5.2396198139968618e-02  9.4976482613634037e+00 0.0000000000000000e+00 -1.6552726576492938e-01  9.5050328553954184e+00 0.0000000000000000e+00 -3.9315873937012247e-02  9.4961050427779181e+00 0.0000000000000000e+00 -1.3064983559344701e-01  9.4993205368531246e+00 0.0000000000000000e+00 -1.2067259167269788e-01  9.5046644530638140e+00 0.0000000000000000e+00 -1.3303306841730181e-01  9.4982977642716779e+00 0.0000000000000000e+00 -1.4958784738040676e-01  9.4979507737678617e+00 0.0000000000000000e+00 -2.0338566179071890e-01  9.5043255425245636e+00 0.0000000000000000e+00 2.5475309646729436e-04  9.5018377817451736e+00 -3.6797123154234862e-01 0.0000000000000000e+00  9.4916861840378228e+00 -4.9072721734271640e-01 0.0000000000000000e+00  9.4945076985177881e+00 -2.7401651939679833e-01 0.0000000000000000e+00  9.5069274364119352e+00 3.4205117345204310e-02 0.0000000000000000e+00  9.5116662698158176e+00 -7.6792437183991702e-02 0.0000000000000000e+00  9.4863991319445002e+00 -7.5695988003064107e-01 0.0000000000000000e+00  9.4931179856292438e+00 -3.1346756531529812e-01 0.0000000000000000e+00  9.5061678766063498e+00 -4.6219410870512317e-01 0.0000000000000000e+00  9.4912641835843683e+00 -5.5774386556092681e-01 0.0000000000000000e+00  9.4956440027091595e+00 -3.7531429880241435e-01 0.0000000000000000e+00  9.5011545369405930e+00 -2.3928153595154941e-01 0.0000000000000000e+00  9.5050494929379408e+00 -5.9303741645547123e-02 0.0000000000000000e+00  9.5030928046263377e+00 -6.4641087635353159e-02 0.0000000000000000e+00  9.5027812595326875e+00 1.6275787390297636e-01 0.0000000000000000e+00  9.5034751368212795e+00 7.7261910272342790e-02 0.0000000000000000e+00  9.4988312400075934e+00 1.6386278268307175e-01 0.0000000000000000e+00  9.5047681119047454e+00 8.4535067659317689e-02 0.0000000000000000e+00  9.5000020577698070e+00 1.0636388772786120e-02 0.0000000000000000e+00  9.5083799588756506e+00 -6.3757280861589799e-02 0.0000000000000000e+00  9.4951498193413180e+00 1.1589272499479167e-01 0.0000000000000000e+00  9.5030489366449871e+00 -8.3680384220302426e-02 0.0000000000000000e+00  9.5045967643146945e+00 -8.6146258712209531e-02 0.0000000000000000e+00  9.5007118956860399e+00 1.2148342097483403e-02 0.0000000000000000e+00  9.5015926566866291e+00 4.8386604424277793e-02 0.0000000000000000e+00  9.5029125413637772e+00 8.2288032794030824e-02 0.0000000000000000e+00  9.5120385436011397e+00 1.1954586188091880e-01 0.0000000000000000e+00  9.4872827884553175e+00 1.4071524341462727e-01 0.0000000000000000e+00  9.5195603132250834e+00 1.1609740697178564e-01 0.0000000000000000e+00  9.4879351213063536e+00 -2.6779915161867809e-02 0.0000000000000000e+00  9.5241344272860822e+00 1.6808974626646701e-02 0.0000000000000000e+00  9.4704110520398146e+00 -7.6343903326215809e-02 0.0000000000000000e+00  9.5430281075978343e+00 4.5258680955275370e-03 0.0000000000000000e+00  9.4596650657972869e+00 1.5975396069454742e-01 0.0000000000000000e+00  9.5378378239501291e+00 1.5404765621744190e-01 0.0000000000000000e+00  9.4931460038342941e+00 -1.8220744915133601e-02 0.0000000000000000e+00  9.5079201994684475e+00 1.2525275189553492e-01 0.0000000000000000e+00  9.5081884199104927e+00 -4.6409113731111021e-02 0.0000000000000000e+00  9.4679037759931557e+00 1.1316182426485434e-01 0.0000000000000000e+00  9.5897653652982591e+00 -8.6996829483921068e-02 0.0000000000000000e+00  9.4458058704290213e+00 1.2626945084661931e-01 0.0000000000000000e+00  9.6060422023093590e+00 -2.5125565286675927e-01 0.0000000000000000e+00  9.324767124063