<?xml version="1.0"?>
<VTKFile type="UnstructuredGrid"  version="0.1"  >
<UnstructuredGrid>
<Piece  NumberOfPoints="9509" NumberOfCells="18536">
<Points>
<DataArray  type="Float64"  NumberOfComponents="3"  format="ascii">-5 -1 0  5 -1 0  5 1 0  -5 1 0  -4.949999999999965 -1 0  -4.899999999999877 -1 0  -4.849999999999826 -1 0  -4.799999999999754 -1 0  -4.749999999999695 -1 0  -4.69999999999963 -1 0  -4.649999999999565 -1 0  -4.599999999999507 -1 0  -4.549999999999454 -1 0  -4.499999999999384 -1 0  -4.449999999999317 -1 0  -4.399999999999261 -1 0  -4.349999999999206 -1 0  -4.299999999999137 -1 0  -4.249999999999075 -1 0  -4.199999999999013 -1 0  -4.149999999998934 -1 0  -4.09999999999889 -1 0  -4.049999999998847 -1 0  -3.999999999998767 -1 0  -3.949999999998706 -1 0  -3.899999999998644 -1 0  -3.849999999998594 -1 0  -3.799999999998552 -1 0  -3.749999999998549 -1 0  -3.699999999998651 -1 0  -3.649999999998804 -1 0  -3.59999999999894 -1 0  -3.549999999999097 -1 0  -3.499999999999261 -1 0  -3.449999999999394 -1 0  -3.399999999999582 -1 0  -3.349999999999742 -1 0  -3.299999999999902 -1 0  -3.25000000000006 -1 0  -3.200000000000223 -1 0  -3.150000000000369 -1 0  -3.100000000000544 -1 0  -3.050000000000704 -1 0  -3.000000000000864 -1 0  -2.950000000001029 -1 0  -2.900000000001185 -1 0  -2.850000000001347 -1 0  -2.800000000001506 -1 0  -2.750000000001665 -1 0  -2.700000000001827 -1 0  -2.650000000001979 -1 0  -2.600000000002148 -1 0  -2.550000000002311 -1 0  -2.500000000002468 -1 0  -2.450000000002635 -1 0  -2.400000000002789 -1 0  -2.35000000000295 -1 0  -2.30000000000311 -1 0  -2.250000000003253 -1 0  -2.200000000003431 -1 0  -2.150000000003601 -1 0  -2.100000000003752 -1 0  -2.050000000003922 -1 0  -2.000000000004072 -1 0  -1.950000000004237 -1 0  -1.900000000004393 -1 0  -1.850000000004541 -1 0  -1.800000000004714 -1 0  -1.750000000004886 -1 0  -1.700000000005035 -1 0  -1.650000000005206 -1 0  -1.600000000005355 -1 0  -1.550000000005516 -1 0  -1.500000000005676 -1 0  -1.450000000005824 -1 0  -1.400000000005996 -1 0  -1.350000000006146 -1 0  -1.300000000006318 -1 0  -1.250000000006505 -1 0  -1.200000000006638 -1 0  -1.150000000006797 -1 0  -1.100000000006959 -1 0  -1.050000000007106 -1 0  -1.000000000007245 -1 0  -0.9500000000072193 -1 0  -0.9000000000072612 -1 0  -0.8500000000071966 -1 0  -0.8000000000071381 -1 0  -0.750000000007085 -1 0  -0.700000000007015 -1 0  -0.6500000000069521 -1 0  -0.6000000000068919 -1 0  -0.5500000000068104 -1 0  -0.5000000000067688 -1 0  -0.4500000000067104 -1 0  -0.4000000000066457 -1 0  -0.3500000000065757 -1 0  -0.3000000000065226 -1 0  -0.2500000000064961 -1 0  -0.2000000000063995 -1 0  -0.1500000000063775 -1 0  -0.1000000000062764 -1 0  -0.0500000000062597 -1 0  -6.153300091682468e-12 -1 0  0.04999999999390781 -1 0  0.09999999999396891 -1 0  0.14999999999403 -1 0  0.1999999999940929 -1 0  0.2499999999941318 -1 0  0.299999999994216 -1 0  0.349999999994254 -1 0  0.3999999999943391 -1 0  0.4499999999944038 -1 0  0.4999999999944613 -1 0  0.5499999999945429 -1 0  0.5999999999945853 -1 0  0.6499999999946606 -1 0  0.6999999999947084 -1 0  0.7499999999947651 -1 0  0.7999999999948315 -1 0  0.8499999999948926 -1 0  0.8999999999949537 -1 0  0.9499999999950148 -1 0  0.9999999999950768 -1 0  1.049999999995139 -1 0  1.0999999999952 -1 0  1.149999999995266 -1 0  1.199999999995324 -1 0  1.249999999995385 -1 0  1.299999999995446 -1 0  1.349999999995488 -1 0  1.399999999995569 -1 0  1.449999999995604 -1 0  1.499999999995692 -1 0  1.549999999995753 -1 0  1.599999999995816 -1 0  1.649999999995892 -1 0  1.699999999995939 -1 0  1.749999999996017 -1 0  1.799999999996063 -1 0  1.849999999996111 -1 0  1.899999999996185 -1 0  1.949999999996246 -1 0  1.999999999996308 -1 0  2.049999999996351 -1 0  2.099999999996431 -1 0  2.149999999996504 -1 0  2.199999999996555 -1 0  2.249999999996616 -1 0  2.299999999996677 -1 0  2.349999999996736 -1 0  2.3999999999968 -1 0  2.449999999996847 -1 0  2.499999999996923 -1 0  2.549999999997 -1 0  2.599999999997047 -1 0  2.649999999997093 -1 0  2.69999999999717 -1 0  2.749999999997245 -1 0  2.799999999997293 -1 0  2.849999999997344 -1 0  2.899999999997416 -1 0  2.949999999997469 -1 0  2.999999999997539 -1 0  3.049999999997576 -1 0  3.099999999997662 -1 0  3.149999999997725 -1 0  3.199999999997784 -1 0  3.249999999997829 -1 0  3.299999999997908 -1 0  3.349999999997921 -1 0  3.39999999999803 -1 0  3.4499999999981 -1 0  3.499999999998153 -1 0  3.549999999998214 -1 0  3.599999999998277 -1 0  3.649999999998409 -1 0  3.699999999998401 -1 0  3.749999999998444 -1 0  3.799999999998523 -1 0  3.849999999998602 -1 0  3.899999999998645 -1 0  3.949999999998658 -1 0  3.999999999998769 -1 0  4.049999999998814 -1 0  4.099999999998893 -1 0  4.149999999998883 -1 0  4.199999999999015 -1 0  4.249999999999064 -1 0  4.299999999999137 -1 0  4.349999999999152 -1 0  4.399999999999261 -1 0  4.44999999999933 -1 0  4.499999999999385 -1 0  4.549999999999446 -1 0  4.599999999999508 -1 0  4.649999999999633 -1 0  4.699999999999632 -1 0  4.749999999999723 -1 0  4.799999999999754 -1 0  4.849999999999801 -1 0  4.899999999999876 -1 0  4.949999999999925 -1 0  5 -0.950000000000111 0  5 -0.9000000000002774 0  5 -0.8500000000004283 0  5 -0.8000000000005548 0  5 -0.7500000000006787 0  5 -0.7000000000008322 0  5 -0.6500000000009709 0  5 -0.6000000000011096 0  5 -0.5500000000012484 0  5 -0.500000000001387 0  5 -0.4500000000015256 0  5 -0.4000000000016644 0  5 -0.3500000000018031 0  5 -0.3000000000019418 0  5 -0.2500000000020806 0  5 -0.2000000000022192 0  5 -0.1500000000023578 0  5 -0.1000000000024964 0  5 -0.05000000000262439 0  5 -2.752242878045763e-12 0  5 0.0499999999973757 0  5 0.09999999999750342 0  5 0.1499999999976422 0  5 0.1999999999977808 0  5 0.2499999999979194 0  5 0.2999999999980583 0  5 0.3499999999981969 0  5 0.3999999999983355 0  5 0.4499999999984743 0  5 0.4999999999986129 0  5 0.5499999999987515 0  5 0.5999999999988903 0  5 0.6499999999990291 0  5 0.699999999999168 0  5 0.7499999999993068 0  5 0.7999999999994454 0  5 0.849999999999584 0  5 0.8999999999997226 0  5 0.9499999999998612 0  4.949999999999965 1 0  4.899999999999877 1 0  4.849999999999826 1 0  4.799999999999754 1 0  4.749999999999695 1 0  4.69999999999963 1 0  4.649999999999565 1 0  4.599999999999507 1 0  4.549999999999454 1 0  4.499999999999384 1 0  4.449999999999317 1 0  4.399999999999261 1 0  4.349999999999206 1 0  4.299999999999137 1 0  4.249999999999075 1 0  4.199999999999013 1 0  4.149999999998934 1 0  4.09999999999889 1 0  4.049999999998847 1 0  3.999999999998767 1 0  3.949999999998706 1 0  3.899999999998644 1 0  3.849999999998594 1 0  3.799999999998552 1 0  3.749999999998549 1 0  3.699999999998651 1 0  3.649999999998804 1 0  3.59999999999894 1 0  3.549999999999097 1 0  3.499999999999261 1 0  3.449999999999394 1 0  3.399999999999582 1 0  3.349999999999742 1 0  3.299999999999902 1 0  3.25000000000006 1 0  3.200000000000223 1 0  3.150000000000369 1 0  3.100000000000544 1 0  3.050000000000704 1 0  3.000000000000864 1 0  2.950000000001029 1 0  2.900000000001185 1 0  2.850000000001347 1 0  2.800000000001506 1 0  2.750000000001665 1 0  2.700000000001827 1 0  2.650000000001979 1 0  2.600000000002148 1 0  2.550000000002311 1 0  2.500000000002468 1 0  2.450000000002635 1 0  2.400000000002789 1 0  2.35000000000295 1 0  2.30000000000311 1 0  2.250000000003253 1 0  2.200000000003431 1 0  2.150000000003601 1 0  2.100000000003752 1 0  2.050000000003922 1 0  2.000000000004072 1 0  1.950000000004237 1 0  1.900000000004393 1 0  1.850000000004541 1 0  1.800000000004714 1 0  1.750000000004886 1 0  1.700000000005035 1 0  1.650000000005206 1 0  1.600000000005355 1 0  1.550000000005516 1 0  1.500000000005676 1 0  1.450000000005824 1 0  1.400000000005996 1 0  1.350000000006146 1 0  1.300000000006318 1 0  1.250000000006505 1 0  1.200000000006638 1 0  1.150000000006797 1 0  1.100000000006959 1 0  1.050000000007106 1 0  1.000000000007245 1 0  0.9500000000072193 1 0  0.9000000000072612 1 0  0.8500000000071966 1 0  0.8000000000071381 1 0  0.750000000007085 1 0  0.700000000007015 1 0  0.6500000000069521 1 0  0.6000000000068919 1 0  0.5500000000068104 1 0  0.5000000000067688 1 0  0.4500000000067104 1 0  0.4000000000066457 1 0  0.3500000000065757 1 0  0.3000000000065226 1 0  0.2500000000064961 1 0  0.2000000000063995 1 0  0.1500000000063775 1 0  0.1000000000062764 1 0  0.0500000000062597 1 0  6.153300091682468e-12 1 0  -0.04999999999390781 1 0  -0.09999999999396891 1 0  -0.14999999999403 1 0  -0.1999999999940929 1 0  -0.2499999999941318 1 0  -0.299999999994216 1 0  -0.349999999994254 1 0  -0.3999999999943391 1 0  -0.4499999999944038 1 0  -0.4999999999944613 1 0  -0.5499999999945429 1 0  -0.5999999999945853 1 0  -0.6499999999946606 1 0  -0.6999999999947084 1 0  -0.7499999999947651 1 0  -0.7999999999948315 1 0  -0.8499999999948926 1 0  -0.8999999999949537 1 0  -0.9499999999950148 1 0  -0.9999999999950768 1 0  -1.049999999995139 1 0  -1.0999999999952 1 0  -1.149999999995266 1 0  -1.199999999995324 1 0  -1.249999999995385 1 0  -1.299999999995446 1 0  -1.349999999995488 1 0  -1.399999999995569 1 0  -1.449999999995604 1 0  -1.499999999995692 1 0  -1.549999999995753 1 0  -1.599999999995816 1 0  -1.649999999995892 1 0  -1.699999999995939 1 0  -1.749999999996017 1 0  -1.799999999996063 1 0  -1.849999999996111 1 0  -1.899999999996185 1 0  -1.949999999996246 1 0  -1.999999999996308 1 0  -2.049999999996351 1 0  -2.099999999996431 1 0  -2.149999999996504 1 0  -2.199999999996555 1 0  -2.249999999996616 1 0  -2.299999999996677 1 0  -2.349999999996736 1 0  -2.3999999999968 1 0  -2.449999999996847 1 0  -2.499999999996923 1 0  -2.549999999997 1 0  -2.599999999997047 1 0  -2.649999999997093 1 0  -2.69999999999717 1 0  -2.749999999997245 1 0  -2.799999999997293 1 0  -2.849999999997344 1 0  -2.899999999997416 1 0  -2.949999999997469 1 0  -2.999999999997539 1 0  -3.049999999997576 1 0  -3.099999999997662 1 0  -3.149999999997725 1 0  -3.199999999997784 1 0  -3.249999999997829 1 0  -3.29999
[...]
<PointData  Vectors="(h, u)"> 
<DataArray  type="Float64"  Name="(h, u)"  NumberOfComponents="3" format="ascii">9.9891769078729844e+00 0.0000000000000000e+00 0.0000000000000000e+00  9.9999999999999567e-01 0.0000000000000000e+00 0.0000000000000000e+00  9.9999999999999933e-01 0.0000000000000000e+00 0.0000000000000000e+00  9.9809276425347146e+00 0.0000000000000000e+00 0.0000000000000000e+00  1.0013568297676853e+01 5.2534489804766790e-03 0.0000000000000000e+00  9.9866886979429559e+00 1.9316098028412800e-02 0.0000000000000000e+00  1.0005525429346006e+01 -1.0817881591657142e-03 0.0000000000000000e+00  9.9846326434510519e+00 -8.9851632158370505e-03 0.0000000000000000e+00  1.0012833576782290e+01 1.6862106919160614e-02 0.0000000000000000e+00  9.9791419495695184e+00 -2.3371623876206542e-02 0.0000000000000000e+00  1.0010606694671054e+01 6.7425832361430191e-03 0.0000000000000000e+00  9.9710719448009453e+00 5.1683387946217831e-02 0.0000000000000000e+00  1.0003195804345532e+01 -5.9533730566349391e-02 0.0000000000000000e+00  9.9948379663605724e+00 -2.1013172782700002e-02 0.0000000000000000e+00  9.9917544114425851e+00 5.1800856334128030e-02 0.0000000000000000e+00  9.9792994736392906e+00 -5.4495245309438535e-02 0.0000000000000000e+00  1.0024577274552843e+01 1.2148628926028967e-03 0.0000000000000000e+00  9.9639804978551627e+00 1.4433588456805830e-02 0.0000000000000000e+00  1.0002889757633316e+01 -1.1658737363724182e-02 0.0000000000000000e+00  1.0012250310442663e+01 -1.9268320163844031e-02 0.0000000000000000e+00  9.9714067208377219e+00 2.3759230402619638e-02 0.0000000000000000e+00  9.9952627733799080e+00 -1.6401573881317445e-02 0.0000000000000000e+00  1.0030538448479680e+01 5.8167328613827948e-03 0.0000000000000000e+00  9.9450788291373122e+00 -9.5223703267188729e-03 0.0000000000000000e+00  1.0020415837075056e+01 1.7913345484665028e-02 0.0000000000000000e+00  1.0016280673365268e+01 -9.7880308119307185e-03 0.0000000000000000e+00  9.9478147966807651e+00 -1.3486811438355372e-03 0.0000000000000000e+00  1.0016423036489520e+01 8.7199277295365498e-03 0.0000000000000000e+00  1.0028302112167932e+01 1.6398173640779487e-02 0.0000000000000000e+00  9.9253396213426832e+00 -3.3484600261654771e-02 0.0000000000000000e+00  1.0035056890963563e+01 3.8418537986960891e-02 0.0000000000000000e+00  1.0015714919517485e+01 -1.2271807773055030e-03 0.0000000000000000e+00  9.9295230738087064e+00 -1.8242211318517543e-02 0.0000000000000000e+00  1.0025841026035929e+01 2.0120253909213844e-02 0.0000000000000000e+00  1.0027090182333975e+01 2.5910259621348349e-02 0.0000000000000000e+00  9.9133301755842282e+00 -4.3004896465741467e-02 0.0000000000000000e+00  1.0035425655656987e+01 4.2491435415439614e-02 0.0000000000000000e+00  1.0014246799831586e+01 8.2443698420900588e-03 0.0000000000000000e+00  9.9239003076571759e+00 -1.6626765699652737e-02 0.0000000000000000e+00  1.0015689301692522e+01 1.8300446720737183e-02 0.0000000000000000e+00  1.0022625729302659e+01 3.7693624531344221e-02 0.0000000000000000e+00  9.9105353061393071e+00 -2.7877385560470869e-02 0.0000000000000000e+00  1.0013441088339281e+01 4.1224144014461235e-02 0.0000000000000000e+00  9.9992909866992843e+00 2.6668080719202729e-02 0.0000000000000000e+00  9.9160744031053554e+00 1.6579773939783118e-02 0.0000000000000000e+00  9.9764761443092151e+00 3.0951877912580330e-02 0.0000000000000000e+00  9.9842690726905676e+00 7.0442791463830062e-02 0.0000000000000000e+00  9.8838892361439328e+00 3.7322055122254449e-02 0.0000000000000000e+00  9.9420893151822689e+00 8.1862044028448183e-02 0.0000000000000000e+00  9.9230794316377384e+00 9.6920122553206811e-02 0.0000000000000000e+00  9.8428928993384481e+00 1.2408299592097581e-01 0.0000000000000000e+00  9.8586852643735696e+00 1.3159360002245554e-01 0.0000000000000000e+00  9.8415228004799662e+00 1.9394764308577916e-01 0.0000000000000000e+00  9.7443873608454741e+00 2.1922163692490257e-01 0.0000000000000000e+00  9.7469452043334339e+00 2.5608972042490524e-01 0.0000000000000000e+00  9.7008431010415208e+00 3.1147899345523933e-01 0.0000000000000000e+00  9.6054354347439102e+00 3.8671453587950400e-01 0.0000000000000000e+00  9.5765955852919777e+00 4.1341431670946771e-01 0.0000000000000000e+00  9.5170710856533223e+00 5.0116998800894552e-01 0.0000000000000000e+00  9.4072324968223366e+00 5.9267191108076023e-01 0.0000000000000000e+00  9.3609476665902651e+00 6.3456310131512750e-01 0.0000000000000000e+00  9.2816931720064844e+00 7.3643885621827332e-01 0.0000000000000000e+00  9.1621092177053303e+00 8.5115688618270413e-01 0.0000000000000000e+00  9.1000049251266635e+00 9.0692065353524076e-01 0.0000000000000000e+00  9.0042951398094448e+00 1.0145034953308616e+00 0.0000000000000000e+00  8.8775332652344296e+00 1.1643318442228603e+00 0.0000000000000000e+00  8.8009015084264242e+00 1.2071170669709148e+00 0.0000000000000000e+00  8.6969665473275999e+00 1.3506415547157324e+00 0.0000000000000000e+00  8.5581702394020329e+00 1.4911200610309490e+00 0.0000000000000000e+00  8.4782273836518591e+00 1.5688249921310475e+00 0.0000000000000000e+00  8.3624956149916585e+00 1.6899358288670960e+00 0.0000000000000000e+00  8.2192458060919016e+00 1.8821550493995141e+00 0.0000000000000000e+00  8.1332977328259037e+00 1.9230929332214552e+00 0.0000000000000000e+00  8.0145458616941223e+00 2.0920306736988792e+00 0.0000000000000000e+00  7.8627884143803319e+00 2.2599307612866548e+00 0.0000000000000000e+00  7.7762146614360992e+00 2.3363692989646818e+00 0.0000000000000000e+00  7.6573416274397417e+00 2.4759925879761298e+00 0.0000000000000000e+00  7.4943216891664735e+00 2.6948144990682592e+00 0.0000000000000000e+00  7.4149816723362987e+00 2.7311846399058055e+00 0.0000000000000000e+00  7.2910507969904277e+00 2.9058281981801026e+00 0.0000000000000000e+00  7.1262822194162654e+00 3.1131374885210255e+00 0.0000000000000000e+00  7.0439038148541400e+00 3.1691708540459174e+00 0.0000000000000000e+00  6.9332862705896074e+00 3.3130867835223263e+00 0.0000000000000000e+00  6.7454716067333305e+00 3.5738296811607646e+00 0.0000000000000000e+00  6.6855241974839235e+00 3.5863538292740214e+00 0.0000000000000000e+00  6.5635255071522751e+00 3.7686872300658831e+00 0.0000000000000000e+00  6.3783119181290813e+00 3.9994530775576358e+00 0.0000000000000000e+00  6.3139695441810746e+00 4.0590451715745628e+00 0.0000000000000000e+00  6.2126779261979612e+00 4.1890441646134802e+00 0.0000000000000000e+00  5.9930668653364005e+00 4.4860314490051456e+00 0.0000000000000000e+00  5.9669116584890425e+00 4.4850260255858165e+00 0.0000000000000000e+00  5.8442418917944599e+00 4.6638728677135637e+00 0.0000000000000000e+00  5.6338134722256488e+00 4.9430193194584788e+00 0.0000000000000000e+00  5.6034286516311322e+00 4.9501723821198507e+00 0.0000000000000000e+00  5.5081791133044842e+00 5.1054590097830861e+00 0.0000000000000000e+00  5.2558997323707999e+00 5.4322086854050431e+00 0.0000000000000000e+00  5.2705795131184425e+00 5.3997923371760939e+00 0.0000000000000000e+00  5.1642409146885706e+00 5.5525467500690029e+00 0.0000000000000000e+00  4.9242631164905708e+00 5.8985187048578043e+00 0.0000000000000000e+00  4.9161973660950675e+00 5.8651198004449379e+00 0.0000000000000000e+00  4.8552338130809876e+00 5.9985728966457588e+00 0.0000000000000000e+00  4.5820384180390326e+00 6.3601109903785638e+00 0.0000000000000000e+00  4.5788043520115922e+00 6.3626220737232542e+00 0.0000000000000000e+00  4.4446808079571989e+00 6.5507453648955165e+00 0.0000000000000000e+00  4.3520215727065965e+00 6.7168210791217833e+00 0.0000000000000000e+00  4.2436614568833813e+00 6.8430918795987816e+00 0.0000000000000000e+00  4.1606182267087135e+00 7.0043337378310415e+00 0.0000000000000000e+00  4.0246531444978846e+00 7.1830173803310728e+00 0.0000000000000000e+00  3.9871422416544786e+00 7.2792461306268539e+00 0.0000000000000000e+00  3.8390922173537825e+00 7.5064657372713652e+00 0.0000000000000000e+00  3.7645256842936612e+00 7.6213583683634401e+00 0.0000000000000000e+00  3.6362118236396430e+00 7.7783367867297182e+00 0.0000000000000000e+00  3.6578981585651484e+00 7.7475622996021833e+00 0.0000000000000000e+00  3.8839920166468547e+00 7.3979556263391011e+00 0.0000000000000000e+00  3.9048483058973362e+00 7.3625815030004498e+00 0.0000000000000000e+00  3.8546413856320454e+00 7.4259069280448307e+00 0.0000000000000000e+00  3.8487042177634780e+00 7.4307834480462693e+00 0.0000000000000000e+00  3.8663170108361582e+00 7.4081006813869683e+00 0.0000000000000000e+00  3.8917461666689568e+00 7.3784716167700255e+00 0.0000000000000000e+00  3.9089807727029333e+00 7.3590154150451248e+00 0.0000000000000000e+00  3.9107059356308693e+00 7.3594565130037903e+00 0.0000000000000000e+00  3.9052710618790765e+00 7.3678466009149313e+00 0.0000000000000000e+00  3.9093917738148760e+00 7.3619964688066286e+00 0.0000000000000000e+00  3.9220419866606466e+00 7.3464608214786615e+00 0.0000000000000000e+00  3.9351236555701425e+00 7.3324691061351004e+00 0.0000000000000000e+00  3.9406317577302841e+00 7.3272628331364054e+00 0.0000000000000000e+00  3.9346289286013483e+00 7.3345982881478520e+00 0.0000000000000000e+00  3.9246763048353128e+00 7.3442647838884962e+00 0.0000000000000000e+00  3.9201887394919619e+00 7.3458260576710996e+00 0.0000000000000000e+00  3.9208267518026161e+00 7.3424251951390529e+00 0.0000000000000000e+00  3.9239576930765803e+00 7.3373838354882297e+00 0.0000000000000000e+00  3.9264590964772084e+00 7.3332249089009816e+00 0.0000000000000000e+00  3.9253588629503700e+00 7.3330306828018541e+00 0.0000000000000000e+00  3.9232212084715341e+00 7.3327518125116873e+00 0.0000000000000000e+00  3.9225551038286524e+00 7.3301528564178762e+00 0.0000000000000000e+00  3.9221144192538064e+00 7.3285047620868937e+00 0.0000000000000000e+00  3.9225076537105554e+00 7.3271389656032850e+00 0.0000000000000000e+00  3.9242065453240742e+00 7.3259168227812337e+00 0.0000000000000000e+00  3.9253548630672426e+00 7.3274715888910071e+00 0.0000000000000000e+00  3.9259530245886802e+00 7.3301129418543072e+00 0.0000000000000000e+00  3.9266808066474321e+00 7.3316240839381432e+00 0.0000000000000000e+00  3.9263669252553277e+00 7.3318916299285117e+00 0.0000000000000000e+00  3.9240752998269541e+00 7.3280317282914336e+00 0.0000000000000000e+00  3.9182333971806562e+00 7.3154787757941699e+00 0.0000000000000000e+00  3.9033179116576555e+00 7.2863602559979919e+00 0.0000000000000000e+00  3.8687820708610392e+00 7.2234540822480158e+00 0.0000000000000000e+00  3.7939263115237347e+00 7.0929864265487632e+00 0.0000000000000000e+00  3.6340328903745682e+00 6.8168872948752250e+00 0.0000000000000000e+00  3.3099634688197748e+00 6.2324505167536586e+00 0.0000000000000000e+00  2.6966598093731151e+00 4.9883712760703336e+00 0.0000000000000000e+00  1.7557132068575481e+00 2.5084845546119423e+00 0.0000000000000000e+00  1.0699950112892171e+00 1.7426506659916313e-01 0.0000000000000000e+00  9.9849109524098312e-01 6.4636686638427001e-03 0.0000000000000000e+00  1.0001030386972201e+00 -2.1378097006404280e-04 0.0000000000000000e+00  1.0001148683142829e+00 -3.4559537254775537e-04 0.0000000000000000e+00  9.9997910034027582e-01 6.2495492978499199e-05 0.0000000000000000e+00  9.9996662492593613e-01 1.0815317072486508e-04 0.0000000000000000e+00  1.0000373578411015e+00 -1.2007052109551644e-04 0.0000000000000000e+00  9.9997342244018950e-01 8.5517567001212395e-05 0.0000000000000000e+00  1.0000197819386094e+00 -6.3227106014508583e-05 0.0000000000000000e+00  9.9998104307810209e-01 5.9643442466400980e-05 0.0000000000000000e+00  1.0000200121200116e+00 -6.2115841467162656e-05 0.0000000000000000e+00  9.9998033318741997e-01 6.0433256185685461e-05 0.0000000000000000e+00  1.0000172955197477e+00 -5.2608788538947207e-05 0.0000000000000000e+00  9.9998608247661436e-01 4.1789896041968402e-05 0.0000000000000000e+00  1.0000106987705468e+00 -3.1590399652988323e-05 0.0000000000000000e+00  9.9999180828317458e-01 2.3726695880663900e-05 0.0000000000000000e+00  1.0000063697146335e+00 -1.8104297048384965e-05 0.0000000000000000e+00  9.9999501760429632e-01 1.3923770312199621e-05 0.0000000000000000e+00  1.0000038312107205e+00 -1.0537507963158963e-05 0.0000000000000000e+00  9.9999715502377662e-01 7.6931935840285381e-06 0.0000000000000000e+00  1.0000020294775156e+00 -5.3818598813177718e-06 0.0000000000000000e+00  9.9999860146207498e-01 3.6274091895351507e-06 0.0000000000000000e+00  1.0000009412902338e+00 -2.3849521922620210e-06 0.0000000000000000e+00  9.9999937505307135e-01 1.5483145674781423e-06 0.0000000000000000e+00  1.0000004108364251e+00 -9.9780604922451331e-07 0.0000000000000000e+00  9.9999973346292659e-01 6.3603794753410048e-07 0.0000000000000000e+00  1.0000001694705489e+00 -3.9752406227717903e-07 0.0000000000000000e+00  9.9999989498960618e-01 2.4174388689255918e-07 0.0000000000000000e+00  1.0000000633524899e+00 -1.4277472987692802e-07 0.0000000000000000e+00  9.9999996262047797e-01 8.2344229191222581e-08 0.0000000000000000e+00  1.0000000217437390e+00 -4.6887747666112683e-08 0.0000000000000000e+00  9.9999998743204321e-01 2.6660578123679411e-08 0.0000000000000000e+00  1.0000000072451327e+00 -1.5223580825752700e-08 0.0000000000000000e+00  9.9999999584157706e-01 8.7048295649050323e-09 0.0000000000000000e+00  1.0000000023647255e+00 -4.9438081003776720e-09 0.0000000000000000e+00  9.9999999867287470e-01 2.7696039455864848e-09 0.0000000000000000e+00  1.0000000007353076e+00 -1.5294378724872389e-09 0.0000000000000000e+00  9.9999999959580466e-01 8.3775987931680795e-10 0.0000000000000000e+00  1.0000000002219085e+00 -4.5934937418004675e-10 0.0000000000000000e+00  9.9999999987786425e-01 2.5339863697065957e-10 0.0000000000000000e+00  1.0000000000672256e+00 -1.4008728023337501e-10 0.0000000000000000e+00  9.9999999996328293e-01 7.6719115107445289e-11 0.0000000000000000e+00  1.0000000000197238e+00 -4.1092041812622020e-11 0.0000000000000000e+00  9.9999999998963718e-01 2.1354291897631402e-11 0.0000000000000000e+00  1.0000000000053264e+00 -1.0769937869389955e-11 0.0000000000000000e+00  9.9999999999731271e-01 5.3010908913582593e-12 0.0000000000000000e+00  1.0000000000013436e+00 -2.5826865156496693e-12 0.0000000000000000e+00  9.9999999999934253e-01 1.2221234585225913e-12 0.0000000000000000e+00  1.0000000000003184e+00 -5.7385971968698559e-13 0.0000000000000000e+00  9.9999999999985767e-01 2.3463825835395530e-13 0.0000000000000000e+00  1.0000000000000622e+00 -9.3098368698887361e-14 0.0000000000000000e+00  9.9999999999996902e-01 1.9224289137392316e-14 0.0000000000000000e+00  1.0000000000000100e+00 0.0000000000000000e+00 -5.4553841915208054e-15  1.0000000000000839e+00 0.0000000000000000e+00 -9.9847063539847637e-14  1.0000000000000262e+00 0.0000000000000000e+00 8.9723161715158326e-14  9.9999999999995803e-01 0.0000000000000000e+00 -9.9442219290032551e-14  1.0000000000000242e+00 0.0000000000000000e+00 -3.6916490041520479e-14  1.0000000000001694e+00 0.0000000000000000e+00 -2.3051563055464354e-13  1.0000000000000420e+00 0.0000000000000000e+00 1.7078053274669558e-13  9.9999999999996170e-01 0.0000000000000000e+00 -1.5547241788250112e-13  1.0000000000000484e+00 0.0000000000000000e+00 -4.0254497826635456e-14  1.0000000000002953e+00 0.0000000000000000e+00 -3.3191745606374917e-13  1.0000000000000169e+00 0.0000000000000000e+00 -2.4744002425822089e-14  1.0000000000001401e+00 0.0000000000000000e+00 -2.0751508734002853e-13  1.0000000000003533e+00 0.0000000000000000e+00 2.1203751889003743e-13  1.0000000000002609e+00 0.0000000000000000e+00 -1.3238529039554877e-13  9.9999999999985745e-01 0.0000000000000000e+00 3.4963918437191922e-13  1.0000000000002118e+00 0.0000000000000000e+00 -2.3743331948217811e-13  1.0000000000001243e+00 0.0000000000000000e+00 8.6727464134581112e-14  9.9999999999999156e-01 0.0000000000000000e+00 -8.8168517365907805e-14  9.9999999999999889e-01 0.0000000000000000e+00 1.4889654403895743e-13  1.0000000000002209e+00 0.0000000000000000e+00 -3.4333501696601490e-13  9.9999999999998834e-01 0.0000000000000000e+00 2.5114398565345626e-13  1.0000000000000155e+00 0.0000000000000000e+00 -7.9657437613241559e-14  9.9999999999999611e-01 0.0000000000000000e+00 4.7344782879163473e-14  1.0000000000000540e+00 0.0000000000000000e+00 -8.8683183704624882e-14  9.9999999999999190e-01 0.0000000000000000e+00 6.5018133872366463e-14  1.0000000000000049e+00 0.0000000000000000e+00 -1.4980649311124677e-14  9.9999999999999478e-01 0.0000000000000000e+00 1.0759183968460000e-14  1.0000000000000033e+00 0.0000000000000000e+00 -1.0335711446003926e-14  9.9999999999999711e-01 0.0000000000000000e+00 8.6597827858206741e-15  9.9999999999999978e-01 0.0000000000000000e+00 -5.3632787849189904e-15  9.9999999999999822e-01 0.0000000000000000e+00 2.3868511245633875e-15  1.0000000000000002e+00 0.0000000000000000e+00 -3.0273271576414281e-15  1.0000000000000000e+00 0.0000000000000000e+00 8.4647746318724385e-16  9.9999999999999911e-01 0.0000000000000000e+00 -2.4464075475950370e-16  9.9999999999999967e-01 0.0000000000000000e+00 1.9313028329312161e-16  9.9999999999999911e-01 0.0000000000000000e+00 -3.1450015430503144e-16  1.0000000000000007e+00 0.0000000000000000e+00 -8.5866528761668559e-18  9.9999999999999967e-01 0.0000000000000000e+00 -3.7765420855346257e-17  1.0000000000000011e+00 0.0000000000000000e+00 1.2535588227321219e-15  1.0000000000000013e+00 -1.1678165873538911e-15 0.0000000000000000e+00  9.9999999999999856e-01 4.2239267772258371e-15 0.0000000000000000e+00  1.0000000000000020e+00 -4.9796520103819933e-15 0.0000000000000000e+00  9.9999999999999978e-01 4.4352759939561150e-15 0.0000000000000000e+00  9.9999999999999445e-01 1.4544822264876738e-14 0.0000000000000000e+00  1.0000000000000193e+00 -5.9558470945386382e-14 0.0000000000000000e+00  9.9999999999997147e-01 1.0472826688755882e-13 0.0000000000000000e+00  1.0000000000000320e+00 -1.2229234718678847e-13 0.0000000000000000e+00  1.0000000000000311e+00 -8.0367056886453162e-14 0.0000000000000000e+00  9.9999999999978240e-01 5.6187146728320314e-13 0.0000000000000000e+00  1.0000000000003786e+00 -1.3601587081977284e-12 0.0000000000000000e+00  9.9999999999957001e-01 1.5509775770687284e-12 0.0000000000000000e+00  9.9999999999961908e-01 5.9846394214307687e-13 0.0000000000000000e+00  1.0000000000023157e+00 -6.1029229759845833e-12 0.0000000000000000e+00  9.9999999999538636e-01 1.2839064359710212e-11 0.0000000000000000e+00  1.0000000000041855e+00 -1.6323455512584754e-11 0.0000000000000000e+00  1.0000000000003859e+00 7.4140152988998801e-12 0.0000000000000000e+00  9.9999999998922784e-01 3.9602329450358566e-11 0.0000000000000000e+00  1.0000000000318972e+00 -1.2763884014984740e-10 0.0000000000000000e+00  9.9999999996003097e-01 1.0738695062461711e-10 0.0000000000000000e+00  9.9999999992718103e-01 1.7686972701886782e-10 0.0000000000000000e+00  1.0000000002730531e+00 -7.9719732736648657e-10 0.0000000000000000e+00  9.9999999955980212e-01 1.3135010523066653e-09 0.0000000000000000e+00  1.0000000001358542e+00 -2.6392251850196041e-10 0.0000000000000000e+00  1.0000000011254861e+00 -3.7968785803548163e-09 0.0000000000000000e+00  9.9999999717578614e-01 7.5708056202863742e-09 0.0000000000000000e+00  1.0000000011809245e+00 -1.5806613251344003e-09 0.0000000000000000e+00  1.0000000058124408e+00 -3.5953450544195159e-08 0.0000000000000000e+00  9.9999997689601916e-01 6.8518884093537712e-08 0.0000000000000000e+00  9.9999999368563364e-01 -7.0319229827646447e-08 0.0000000000000000e+00  1.0000000712121526e+00 -1.1798929561016672e-07 0.0000000000000000e+00  9.9999972596418329e-01 6.9596778638199981e-07 0.0000000000000000e+00  1.0000005526916007e+00 -1.4136349114079798e-06 0.0000000000000000e+00  9.9999925081095353e-01 1.8293152846357998e-06 0.0000000000000000e+00  1.0000005934083973e+00 -1.8888980157573255e-06 0.0000000000000000e+00  9.9999923019347381e-01 3.1477420932506486e-06 0.0000000000000000e+00  1.0000022531154711e+00 -4.5707410411865118e-06 0.0000000000000000e+00  9.9999870868870278e-01 -2.8865424398781912e-06 0.0000000000000000e+00  9.9999812497926976e-01 7.0319489551138126e-06 0.0000000000000000e+00  9.9999487881311511e-01 -2.6194850491565647e-06 0.0000000000000000e+00  1.0000219035792361e+00 -3.8915143559653771e-05 0.00000000000