<?xml version="1.0"?>
<VTKFile type="UnstructuredGrid"  version="0.1"  >
<UnstructuredGrid>
<Piece  NumberOfPoints="9509" NumberOfCells="18536">
<Points>
<DataArray  type="Float64"  NumberOfComponents="3"  format="ascii">-5 -1 0  5 -1 0  5 1 0  -5 1 0  -4.949999999999965 -1 0  -4.899999999999877 -1 0  -4.849999999999826 -1 0  -4.799999999999754 -1 0  -4.749999999999695 -1 0  -4.69999999999963 -1 0  -4.649999999999565 -1 0  -4.599999999999507 -1 0  -4.549999999999454 -1 0  -4.499999999999384 -1 0  -4.449999999999317 -1 0  -4.399999999999261 -1 0  -4.349999999999206 -1 0  -4.299999999999137 -1 0  -4.249999999999075 -1 0  -4.199999999999013 -1 0  -4.149999999998934 -1 0  -4.09999999999889 -1 0  -4.049999999998847 -1 0  -3.999999999998767 -1 0  -3.949999999998706 -1 0  -3.899999999998644 -1 0  -3.849999999998594 -1 0  -3.799999999998552 -1 0  -3.749999999998549 -1 0  -3.699999999998651 -1 0  -3.649999999998804 -1 0  -3.59999999999894 -1 0  -3.549999999999097 -1 0  -3.499999999999261 -1 0  -3.449999999999394 -1 0  -3.399999999999582 -1 0  -3.349999999999742 -1 0  -3.299999999999902 -1 0  -3.25000000000006 -1 0  -3.200000000000223 -1 0  -3.150000000000369 -1 0  -3.100000000000544 -1 0  -3.050000000000704 -1 0  -3.000000000000864 -1 0  -2.950000000001029 -1 0  -2.900000000001185 -1 0  -2.850000000001347 -1 0  -2.800000000001506 -1 0  -2.750000000001665 -1 0  -2.700000000001827 -1 0  -2.650000000001979 -1 0  -2.600000000002148 -1 0  -2.550000000002311 -1 0  -2.500000000002468 -1 0  -2.450000000002635 -1 0  -2.400000000002789 -1 0  -2.35000000000295 -1 0  -2.30000000000311 -1 0  -2.250000000003253 -1 0  -2.200000000003431 -1 0  -2.150000000003601 -1 0  -2.100000000003752 -1 0  -2.050000000003922 -1 0  -2.000000000004072 -1 0  -1.950000000004237 -1 0  -1.900000000004393 -1 0  -1.850000000004541 -1 0  -1.800000000004714 -1 0  -1.750000000004886 -1 0  -1.700000000005035 -1 0  -1.650000000005206 -1 0  -1.600000000005355 -1 0  -1.550000000005516 -1 0  -1.500000000005676 -1 0  -1.450000000005824 -1 0  -1.400000000005996 -1 0  -1.350000000006146 -1 0  -1.300000000006318 -1 0  -1.250000000006505 -1 0  -1.200000000006638 -1 0  -1.150000000006797 -1 0  -1.100000000006959 -1 0  -1.050000000007106 -1 0  -1.000000000007245 -1 0  -0.9500000000072193 -1 0  -0.9000000000072612 -1 0  -0.8500000000071966 -1 0  -0.8000000000071381 -1 0  -0.750000000007085 -1 0  -0.700000000007015 -1 0  -0.6500000000069521 -1 0  -0.6000000000068919 -1 0  -0.5500000000068104 -1 0  -0.5000000000067688 -1 0  -0.4500000000067104 -1 0  -0.4000000000066457 -1 0  -0.3500000000065757 -1 0  -0.3000000000065226 -1 0  -0.2500000000064961 -1 0  -0.2000000000063995 -1 0  -0.1500000000063775 -1 0  -0.1000000000062764 -1 0  -0.0500000000062597 -1 0  -6.153300091682468e-12 -1 0  0.04999999999390781 -1 0  0.09999999999396891 -1 0  0.14999999999403 -1 0  0.1999999999940929 -1 0  0.2499999999941318 -1 0  0.299999999994216 -1 0  0.349999999994254 -1 0  0.3999999999943391 -1 0  0.4499999999944038 -1 0  0.4999999999944613 -1 0  0.5499999999945429 -1 0  0.5999999999945853 -1 0  0.6499999999946606 -1 0  0.6999999999947084 -1 0  0.7499999999947651 -1 0  0.7999999999948315 -1 0  0.8499999999948926 -1 0  0.8999999999949537 -1 0  0.9499999999950148 -1 0  0.9999999999950768 -1 0  1.049999999995139 -1 0  1.0999999999952 -1 0  1.149999999995266 -1 0  1.199999999995324 -1 0  1.249999999995385 -1 0  1.299999999995446 -1 0  1.349999999995488 -1 0  1.399999999995569 -1 0  1.449999999995604 -1 0  1.499999999995692 -1 0  1.549999999995753 -1 0  1.599999999995816 -1 0  1.649999999995892 -1 0  1.699999999995939 -1 0  1.749999999996017 -1 0  1.799999999996063 -1 0  1.849999999996111 -1 0  1.899999999996185 -1 0  1.949999999996246 -1 0  1.999999999996308 -1 0  2.049999999996351 -1 0  2.099999999996431 -1 0  2.149999999996504 -1 0  2.199999999996555 -1 0  2.249999999996616 -1 0  2.299999999996677 -1 0  2.349999999996736 -1 0  2.3999999999968 -1 0  2.449999999996847 -1 0  2.499999999996923 -1 0  2.549999999997 -1 0  2.599999999997047 -1 0  2.649999999997093 -1 0  2.69999999999717 -1 0  2.749999999997245 -1 0  2.799999999997293 -1 0  2.849999999997344 -1 0  2.899999999997416 -1 0  2.949999999997469 -1 0  2.999999999997539 -1 0  3.049999999997576 -1 0  3.099999999997662 -1 0  3.149999999997725 -1 0  3.199999999997784 -1 0  3.249999999997829 -1 0  3.299999999997908 -1 0  3.349999999997921 -1 0  3.39999999999803 -1 0  3.4499999999981 -1 0  3.499999999998153 -1 0  3.549999999998214 -1 0  3.599999999998277 -1 0  3.649999999998409 -1 0  3.699999999998401 -1 0  3.749999999998444 -1 0  3.799999999998523 -1 0  3.849999999998602 -1 0  3.899999999998645 -1 0  3.949999999998658 -1 0  3.999999999998769 -1 0  4.049999999998814 -1 0  4.099999999998893 -1 0  4.149999999998883 -1 0  4.199999999999015 -1 0  4.249999999999064 -1 0  4.299999999999137 -1 0  4.349999999999152 -1 0  4.399999999999261 -1 0  4.44999999999933 -1 0  4.499999999999385 -1 0  4.549999999999446 -1 0  4.599999999999508 -1 0  4.649999999999633 -1 0  4.699999999999632 -1 0  4.749999999999723 -1 0  4.799999999999754 -1 0  4.849999999999801 -1 0  4.899999999999876 -1 0  4.949999999999925 -1 0  5 -0.950000000000111 0  5 -0.9000000000002774 0  5 -0.8500000000004283 0  5 -0.8000000000005548 0  5 -0.7500000000006787 0  5 -0.7000000000008322 0  5 -0.6500000000009709 0  5 -0.6000000000011096 0  5 -0.5500000000012484 0  5 -0.500000000001387 0  5 -0.4500000000015256 0  5 -0.4000000000016644 0  5 -0.3500000000018031 0  5 -0.3000000000019418 0  5 -0.2500000000020806 0  5 -0.2000000000022192 0  5 -0.1500000000023578 0  5 -0.1000000000024964 0  5 -0.05000000000262439 0  5 -2.752242878045763e-12 0  5 0.0499999999973757 0  5 0.09999999999750342 0  5 0.1499999999976422 0  5 0.1999999999977808 0  5 0.2499999999979194 0  5 0.2999999999980583 0  5 0.3499999999981969 0  5 0.3999999999983355 0  5 0.4499999999984743 0  5 0.4999999999986129 0  5 0.5499999999987515 0  5 0.5999999999988903 0  5 0.6499999999990291 0  5 0.699999999999168 0  5 0.7499999999993068 0  5 0.7999999999994454 0  5 0.849999999999584 0  5 0.8999999999997226 0  5 0.9499999999998612 0  4.949999999999965 1 0  4.899999999999877 1 0  4.849999999999826 1 0  4.799999999999754 1 0  4.749999999999695 1 0  4.69999999999963 1 0  4.649999999999565 1 0  4.599999999999507 1 0  4.549999999999454 1 0  4.499999999999384 1 0  4.449999999999317 1 0  4.399999999999261 1 0  4.349999999999206 1 0  4.299999999999137 1 0  4.249999999999075 1 0  4.199999999999013 1 0  4.149999999998934 1 0  4.09999999999889 1 0  4.049999999998847 1 0  3.999999999998767 1 0  3.949999999998706 1 0  3.899999999998644 1 0  3.849999999998594 1 0  3.799999999998552 1 0  3.749999999998549 1 0  3.699999999998651 1 0  3.649999999998804 1 0  3.59999999999894 1 0  3.549999999999097 1 0  3.499999999999261 1 0  3.449999999999394 1 0  3.399999999999582 1 0  3.349999999999742 1 0  3.299999999999902 1 0  3.25000000000006 1 0  3.200000000000223 1 0  3.150000000000369 1 0  3.100000000000544 1 0  3.050000000000704 1 0  3.000000000000864 1 0  2.950000000001029 1 0  2.900000000001185 1 0  2.850000000001347 1 0  2.800000000001506 1 0  2.750000000001665 1 0  2.700000000001827 1 0  2.650000000001979 1 0  2.600000000002148 1 0  2.550000000002311 1 0  2.500000000002468 1 0  2.450000000002635 1 0  2.400000000002789 1 0  2.35000000000295 1 0  2.30000000000311 1 0  2.250000000003253 1 0  2.200000000003431 1 0  2.150000000003601 1 0  2.100000000003752 1 0  2.050000000003922 1 0  2.000000000004072 1 0  1.950000000004237 1 0  1.900000000004393 1 0  1.850000000004541 1 0  1.800000000004714 1 0  1.750000000004886 1 0  1.700000000005035 1 0  1.650000000005206 1 0  1.600000000005355 1 0  1.550000000005516 1 0  1.500000000005676 1 0  1.450000000005824 1 0  1.400000000005996 1 0  1.350000000006146 1 0  1.300000000006318 1 0  1.250000000006505 1 0  1.200000000006638 1 0  1.150000000006797 1 0  1.100000000006959 1 0  1.050000000007106 1 0  1.000000000007245 1 0  0.9500000000072193 1 0  0.9000000000072612 1 0  0.8500000000071966 1 0  0.8000000000071381 1 0  0.750000000007085 1 0  0.700000000007015 1 0  0.6500000000069521 1 0  0.6000000000068919 1 0  0.5500000000068104 1 0  0.5000000000067688 1 0  0.4500000000067104 1 0  0.4000000000066457 1 0  0.3500000000065757 1 0  0.3000000000065226 1 0  0.2500000000064961 1 0  0.2000000000063995 1 0  0.1500000000063775 1 0  0.1000000000062764 1 0  0.0500000000062597 1 0  6.153300091682468e-12 1 0  -0.04999999999390781 1 0  -0.09999999999396891 1 0  -0.14999999999403 1 0  -0.1999999999940929 1 0  -0.2499999999941318 1 0  -0.299999999994216 1 0  -0.349999999994254 1 0  -0.3999999999943391 1 0  -0.4499999999944038 1 0  -0.4999999999944613 1 0  -0.5499999999945429 1 0  -0.5999999999945853 1 0  -0.6499999999946606 1 0  -0.6999999999947084 1 0  -0.7499999999947651 1 0  -0.7999999999948315 1 0  -0.8499999999948926 1 0  -0.8999999999949537 1 0  -0.9499999999950148 1 0  -0.9999999999950768 1 0  -1.049999999995139 1 0  -1.0999999999952 1 0  -1.149999999995266 1 0  -1.199999999995324 1 0  -1.249999999995385 1 0  -1.299999999995446 1 0  -1.349999999995488 1 0  -1.399999999995569 1 0  -1.449999999995604 1 0  -1.499999999995692 1 0  -1.549999999995753 1 0  -1.599999999995816 1 0  -1.649999999995892 1 0  -1.699999999995939 1 0  -1.749999999996017 1 0  -1.799999999996063 1 0  -1.849999999996111 1 0  -1.899999999996185 1 0  -1.949999999996246 1 0  -1.999999999996308 1 0  -2.049999999996351 1 0  -2.099999999996431 1 0  -2.149999999996504 1 0  -2.199999999996555 1 0  -2.249999999996616 1 0  -2.299999999996677 1 0  -2.349999999996736 1 0  -2.3999999999968 1 0  -2.449999999996847 1 0  -2.499999999996923 1 0  -2.549999999997 1 0  -2.599999999997047 1 0  -2.649999999997093 1 0  -2.69999999999717 1 0  -2.749999999997245 1 0  -2.799999999997293 1 0  -2.849999999997344 1 0  -2.899999999997416 1 0  -2.949999999997469 1 0  -2.999999999997539 1 0  -3.049999999997576 1 0  -3.099999999997662 1 0  -3.149999999997725 1 0  -3.199999999997784 1 0  -3.249999999997829 1 0  -3.29999
[...]
<PointData  Vectors="(h, u)"> 
<DataArray  type="Float64"  Name="(h, u)"  NumberOfComponents="3" format="ascii">6.0805039101600622e+00 0.0000000000000000e+00 0.0000000000000000e+00  9.5032800323144784e+00 0.0000000000000000e+00 0.0000000000000000e+00  9.5166839775573067e+00 0.0000000000000000e+00 0.0000000000000000e+00  6.0687003657922522e+00 0.0000000000000000e+00 0.0000000000000000e+00  6.0761207674294972e+00 7.7889639853659001e-02 0.0000000000000000e+00  6.0800464209063936e+00 1.7689388621892232e-01 0.0000000000000000e+00  6.0773776388079579e+00 2.2767568464411891e-01 0.0000000000000000e+00  6.0803210904700045e+00 3.2997145417014417e-01 0.0000000000000000e+00  6.0722464314962501e+00 4.1379843694744206e-01 0.0000000000000000e+00  6.0780629184685964e+00 4.8898177580620583e-01 0.0000000000000000e+00  6.0735177632782138e+00 5.6872958920963534e-01 0.0000000000000000e+00  6.0731179794125572e+00 6.6871997070303157e-01 0.0000000000000000e+00  6.0688525050307431e+00 7.0048781448794029e-01 0.0000000000000000e+00  6.0740984821704362e+00 8.1792248975232451e-01 0.0000000000000000e+00  6.0589905708037675e+00 8.9294087615784923e-01 0.0000000000000000e+00  6.0693622971769940e+00 9.7755415224023456e-01 0.0000000000000000e+00  6.0606651727837502e+00 1.0232851909912466e+00 0.0000000000000000e+00  6.0570227042676965e+00 1.1818260798494242e+00 0.0000000000000000e+00  6.0533373887869804e+00 1.1733740073857493e+00 0.0000000000000000e+00  6.0613418915135995e+00 1.3041412376818522e+00 0.0000000000000000e+00  6.0371958376983965e+00 1.3917808595512622e+00 0.0000000000000000e+00  6.0525269118720679e+00 1.4493986587872025e+00 0.0000000000000000e+00  6.0428467523515854e+00 1.5002366858492457e+00 0.0000000000000000e+00  6.0327392718365793e+00 1.6899118252770011e+00 0.0000000000000000e+00  6.0322404033106718e+00 1.6313712892985257e+00 0.0000000000000000e+00  6.0394513681846123e+00 1.7903194281584924e+00 0.0000000000000000e+00  6.0090930929656707e+00 1.8943758634143326e+00 0.0000000000000000e+00  6.0274321608069625e+00 1.9048832402818150e+00 0.0000000000000000e+00  6.0158780873649800e+00 1.9952660268086693e+00 0.0000000000000000e+00  6.0016679387163121e+00 2.1621815922380452e+00 0.0000000000000000e+00  6.0018921809592998e+00 2.1269906553142284e+00 0.0000000000000000e+00  6.0091420705898555e+00 2.2254665260742446e+00 0.0000000000000000e+00  5.9731565767998154e+00 2.4252505381927651e+00 0.0000000000000000e+00  5.9937097011391067e+00 2.3093241787710808e+00 0.0000000000000000e+00  5.9803412375979352e+00 2.5297955403011687e+00 0.0000000000000000e+00  5.9628387766705799e+00 2.6005407017317830e+00 0.0000000000000000e+00  5.9627165490114011e+00 2.5601705413432043e+00 0.0000000000000000e+00  5.9691121946293002e+00 2.7895305358885114e+00 0.0000000000000000e+00  5.9285665367964828e+00 2.7911836458416981e+00 0.0000000000000000e+00  5.9498848654327006e+00 2.8051167619134194e+00 0.0000000000000000e+00  5.9328711189394880e+00 3.0418491593573167e+00 0.0000000000000000e+00  5.9127093034339264e+00 2.9637060286199004e+00 0.0000000000000000e+00  5.9123245683584704e+00 3.1006235619965534e+00 0.0000000000000000e+00  5.9135190793191095e+00 3.2034479687221347e+00 0.0000000000000000e+00  5.8736417619147865e+00 3.2313180781548647e+00 0.0000000000000000e+00  5.8897381998782175e+00 3.3046758309659272e+00 0.0000000000000000e+00  5.8712555952802754e+00 3.4324891109864035e+00 0.0000000000000000e+00  5.8488299583986638e+00 3.4429676033322072e+00 0.0000000000000000e+00  5.8459651699119313e+00 3.5433594869119123e+00 0.0000000000000000e+00  5.8394249584861742e+00 3.6208388237597249e+00 0.0000000000000000e+00  5.8064931232908430e+00 3.6920338424740033e+00 0.0000000000000000e+00  5.8107783400848323e+00 3.7302759675003059e+00 0.0000000000000000e+00  5.7907738558362531e+00 3.8578598713600405e+00 0.0000000000000000e+00  5.7707810097706513e+00 3.8724703997079160e+00 0.0000000000000000e+00  5.7630181620634797e+00 3.9764248911619315e+00 0.0000000000000000e+00  5.7428238809435550e+00 4.0342478865982789e+00 0.0000000000000000e+00  5.7259928360946182e+00 4.0912799505308746e+00 0.0000000000000000e+00  5.7142164409630594e+00 4.1801400523391496e+00 0.0000000000000000e+00  5.6866024933930817e+00 4.2325251956768151e+00 0.0000000000000000e+00  5.6771679898227054e+00 4.2877691453729065e+00 0.0000000000000000e+00  5.6612838869523525e+00 4.3885558934517643e+00 0.0000000000000000e+00  5.6220455831778242e+00 4.4081603959332991e+00 0.0000000000000000e+00  5.6261736701044258e+00 4.5064050327038014e+00 0.0000000000000000e+00  5.5991308078181836e+00 4.5481494303299002e+00 0.0000000000000000e+00  5.5587572786369686e+00 4.6262243619931054e+00 0.0000000000000000e+00  5.5615059089764740e+00 4.6699537093170065e+00 0.0000000000000000e+00  5.5409775096669822e+00 4.7381065763976666e+00 0.0000000000000000e+00  5.4851236565571915e+00 4.8082869728868838e+00 0.0000000000000000e+00  5.4968269611277965e+00 4.8416701576185428e+00 0.0000000000000000e+00  5.4701525077432533e+00 4.9139742964762334e+00 0.0000000000000000e+00  5.4195913765182855e+00 4.9841791291255042e+00 0.0000000000000000e+00  5.4116402729740063e+00 4.9971323010724129e+00 0.0000000000000000e+00  5.4012762712352895e+00 5.1216497928885794e+00 0.0000000000000000e+00  5.3458228916752617e+00 5.0869513653804743e+00 0.0000000000000000e+00  5.3242886489352035e+00 5.2353523911030679e+00 0.0000000000000000e+00  5.3182429627779317e+00 5.2264466361718362e+00 0.0000000000000000e+00  5.2783357229117325e+00 5.2863839399288741e+00 0.0000000000000000e+00  5.2279538341578817e+00 5.3598585155781278e+00 0.0000000000000000e+00  5.2334098202926658e+00 5.4286232940445052e+00 0.0000000000000000e+00  5.2025093485403318e+00 5.3948092740324167e+00 0.0000000000000000e+00  5.1401510357758369e+00 5.5416697668664741e+00 0.0000000000000000e+00  5.1439156267556285e+00 5.5650033110025250e+00 0.0000000000000000e+00  5.1158735700001357e+00 5.5632715316601473e+00 0.0000000000000000e+00  5.0664718269846345e+00 5.6479728454233840e+00 0.0000000000000000e+00  5.0549288697801309e+00 5.7405484507466182e+00 0.0000000000000000e+00  5.0147312317880228e+00 5.6992978567079282e+00 0.0000000000000000e+00  4.9903834597198680e+00 5.7905304916089424e+00 0.0000000000000000e+00  4.9735955230744233e+00 5.8709565647998927e+00 0.0000000000000000e+00  4.9086258568343650e+00 5.8519325574570713e+00 0.0000000000000000e+00  4.9020119689722810e+00 5.9400601599445260e+00 0.0000000000000000e+00  4.8861558431752670e+00 6.0037078080548572e+00 0.0000000000000000e+00  4.8076522828885659e+00 5.9930904650855927e+00 0.0000000000000000e+00  4.8146497209764982e+00 6.0886122991942493e+00 0.0000000000000000e+00  4.7687498692075589e+00 6.1651660975935236e+00 0.0000000000000000e+00  4.7447667817467716e+00 6.0901712118131295e+00 0.0000000000000000e+00  4.6760115472949879e+00 6.2935661600700490e+00 0.0000000000000000e+00  4.7326200014699307e+00 6.2220683513205470e+00 0.0000000000000000e+00  4.6273902941303664e+00 6.2491081817151377e+00 0.0000000000000000e+00  4.6162926754340772e+00 6.4021979955961870e+00 0.0000000000000000e+00  4.5958003477910401e+00 6.3960832365882245e+00 0.0000000000000000e+00  4.5616951141538760e+00 6.3728108417953973e+00 0.0000000000000000e+00  4.4746598961852557e+00 6.5814149646779647e+00 0.0000000000000000e+00  4.5392985777057238e+00 6.5066831131918441e+00 0.0000000000000000e+00  4.4530631258698259e+00 6.4955159346810714e+00 0.0000000000000000e+00  4.4012639207368611e+00 6.7264948087770113e+00 0.0000000000000000e+00  4.3664731706386117e+00 6.7175329698528170e+00 0.0000000000000000e+00  4.3734268195802715e+00 6.6514868357123982e+00 0.0000000000000000e+00  4.2899710679882599e+00 6.8659941123952510e+00 0.0000000000000000e+00  4.3132732332336534e+00 6.8004163422434853e+00 0.0000000000000000e+00  4.2394499491751745e+00 6.8577752380796602e+00 0.0000000000000000e+00  4.2802990136545001e+00 6.8830611841810443e+00 0.0000000000000000e+00  4.1664590301915876e+00 7.0129744057281433e+00 0.0000000000000000e+00  4.1693843720077473e+00 6.9860364778077955e+00 0.0000000000000000e+00  4.1547110978257100e+00 7.0542122183265645e+00 0.0000000000000000e+00  4.1735696327916161e+00 7.0178751536822332e+00 0.0000000000000000e+00  4.0869859191756959e+00 7.1347371997139248e+00 0.0000000000000000e+00  4.0237746965962744e+00 7.2186729863871166e+00 0.0000000000000000e+00  4.0772473738994508e+00 7.1848067856458986e+00 0.0000000000000000e+00  3.9948066819440262e+00 7.2569089345617250e+00 0.0000000000000000e+00  4.0406053884466182e+00 7.2170162592929508e+00 0.0000000000000000e+00  3.8688440772259063e+00 7.4798871695784506e+00 0.0000000000000000e+00  4.0018479721741498e+00 7.2924014305931593e+00 0.0000000000000000e+00  3.8364393702481738e+00 7.4691063596831260e+00 0.0000000000000000e+00  3.8864393799062835e+00 7.5281385903450024e+00 0.0000000000000000e+00  3.8655427360484107e+00 7.4136404776278439e+00 0.0000000000000000e+00  3.7945128188068300e+00 7.6355165625492134e+00 0.0000000000000000e+00  3.7195695734961487e+00 7.6849906188610833e+00 0.0000000000000000e+00  3.5500781671960295e+00 7.9757852008220738e+00 0.0000000000000000e+00  3.9324264435690970e+00 7.3569078802387535e+00 0.0000000000000000e+00  3.8112243534281860e+00 7.6159297573429141e+00 0.0000000000000000e+00  4.0524804670192234e+00 7.1742457239701993e+00 0.0000000000000000e+00  4.0484703664763089e+00 7.2298318781211863e+00 0.0000000000000000e+00  3.8997718481092911e+00 7.4113359129067673e+00 0.0000000000000000e+00  3.9927254166436885e+00 7.2987731965398934e+00 0.0000000000000000e+00  4.0711088979515830e+00 7.1436390465029058e+00 0.0000000000000000e+00  3.9416087046576251e+00 7.4122260962411053e+00 0.0000000000000000e+00  3.9229503075233145e+00 7.3335186008079125e+00 0.0000000000000000e+00  3.9692179399655156e+00 7.3527587447735323e+00 0.0000000000000000e+00  3.9181410388324780e+00 7.3922631762152191e+00 0.0000000000000000e+00  3.9635460343593101e+00 7.3247547819458427e+00 0.0000000000000000e+00  4.0207664191567396e+00 7.2490028218834706e+00 0.0000000000000000e+00  3.9132279384602326e+00 7.4242413769394284e+00 0.0000000000000000e+00  3.9516885363202663e+00 7.3241757820844944e+00 0.0000000000000000e+00  3.9730115030575432e+00 7.3203043275248971e+00 0.0000000000000000e+00  3.9267575183453109e+00 7.3970397417914997e+00 0.0000000000000000e+00  3.9971376270780561e+00 7.2743968902555149e+00 0.0000000000000000e+00  3.9596424226766538e+00 7.3335803379281348e+00 0.0000000000000000e+00  3.9790209402224535e+00 7.3325816854019861e+00 0.0000000000000000e+00  3.9724904936244432e+00 7.2983596379386722e+00 0.0000000000000000e+00  3.9576402742942092e+00 7.3426656532344614e+00 0.0000000000000000e+00  3.9365016141344484e+00 7.3882724874877708e+00 0.0000000000000000e+00  4.0028051172686947e+00 7.2518416004961486e+00 0.0000000000000000e+00  3.9677487274437877e+00 7.3492258329310953e+00 0.0000000000000000e+00  3.9482188704668979e+00 7.3350195140435455e+00 0.0000000000000000e+00  3.9686014523923006e+00 7.3298279815634890e+00 0.0000000000000000e+00  3.9680317586642766e+00 7.3184367219463375e+00 0.0000000000000000e+00  3.9382852191012621e+00 7.3714539995585415e+00 0.0000000000000000e+00  3.9708619024298732e+00 7.3125983742009115e+00 0.0000000000000000e+00  3.9780422758269811e+00 7.3132912753074280e+00 0.0000000000000000e+00  3.9488724421503774e+00 7.3634631013898133e+00 0.0000000000000000e+00  3.9311928872598991e+00 7.3509815230816695e+00 0.0000000000000000e+00  3.9891861453522885e+00 7.3082849988434448e+00 0.0000000000000000e+00  3.9672358478452110e+00 7.3317641673955407e+00 0.0000000000000000e+00  3.9394137815103947e+00 7.3583479741291624e+00 0.0000000000000000e+00  3.9480617021163904e+00 7.3526987408895730e+00 0.0000000000000000e+00  3.9833432599245175e+00 7.3198518689045429e+00 0.0000000000000000e+00  3.9442257788974997e+00 7.3437124733350219e+00 0.0000000000000000e+00  3.9737718774313393e+00 7.3352652621266135e+00 0.0000000000000000e+00  3.9517085761133446e+00 7.3342174065303896e+00 0.0000000000000000e+00  3.9709557230260510e+00 7.3478362630842264e+00 0.0000000000000000e+00  3.9399833907906259e+00 7.3547336184406822e+00 0.0000000000000000e+00  3.9794280497468129e+00 7.3094352961981750e+00 0.0000000000000000e+00  3.9642353871556000e+00 7.3415725831753891e+00 0.0000000000000000e+00  3.9594135165759177e+00 7.4108929875644778e+00 0.0000000000000000e+00  3.9283956290419453e+00 7.2575245150451693e+00 0.0000000000000000e+00  4.0279092213035330e+00 7.2380698351844686e+00 0.0000000000000000e+00  3.6024603696328961e+00 8.3166026412632075e+00 0.0000000000000000e+00  7.3212768007472651e+00 2.0323497384375608e+00 0.0000000000000000e+00  9.4074620657727852e+00 5.6930508759560711e-02 0.0000000000000000e+00  9.6251545689091653e+00 -1.0081925004407266e-01 0.0000000000000000e+00  9.2884277885526085e+00 2.3258264047375987e-01 0.0000000000000000e+00  9.6538590944205431e+00 -1.3004367506842762e-01 0.0000000000000000e+00  9.4081076748077948e+00 8.2016887550955375e-02 0.0000000000000000e+00  9.5495967514270781e+00 -1.7163390539419704e-02 0.0000000000000000e+00  9.4639888111355255e+00 3.3686817975787008e-02 0.0000000000000000e+00  9.5067155814834461e+00 1.7317361327083718e-02 0.0000000000000000e+00  9.4999156763619315e+00 1.4547982430940423e-03 0.0000000000000000e+00  9.5112753302310278e+00 1.9554305550758613e-02 0.0000000000000000e+00  9.4815323670565395e+00 7.4263117982649356e-03 0.0000000000000000e+00  9.5123294785580690e+00 3.0056545772121860e-02 0.0000000000000000e+00  9.4942687999587889e+00 -4.6814214401881271e-03 0.0000000000000000e+00  9.5043338781103550e+00 3.5566865417645213e-02 0.0000000000000000e+00  9.4846494674531190e+00 9.0144415856635105e-03 0.0000000000000000e+00  9.5076007824416600e+00 3.1824181625938718e-02 0.0000000000000000e+00  9.4811851122486654e+00 1.0841010500386473e-02 0.0000000000000000e+00  9.5025595419573605e+00 2.6587004629534429e-02 0.0000000000000000e+00  9.4803453852588326e+00 4.5467038610209872e-03 0.0000000000000000e+00  9.5016840041552406e+00 -2.5064775501617629e-03 0.0000000000000000e+00  9.4797095633682762e+00 3.6805675856807059e-02 0.0000000000000000e+00  9.5000508753749671e+00 -6.3354388000112574e-02 0.0000000000000000e+00  9.4835644469923217e+00 1.4313166873130907e-02 0.0000000000000000e+00  9.5012351633497634e+00 -3.6004406445790671e-02 0.0000000000000000e+00  9.4816372097940516e+00 -1.8029619137821373e-01 0.0000000000000000e+00  9.4859077260797431e+00 0.0000000000000000e+00 -7.2581423452291891e-02  9.5036467720482793e+00 0.0000000000000000e+00 -2.1442800609179646e-02  9.4862755650255366e+00 0.0000000000000000e+00 -3.0757728763333183e-02  9.5008127105892832e+00 0.0000000000000000e+00 -8.9590809128229559e-02  9.4891234599266117e+00 0.0000000000000000e+00 3.9214765904972221e-02  9.5009321602460748e+00 0.0000000000000000e+00 8.1732430221497981e-02  9.4831584889367573e+00 0.0000000000000000e+00 5.1391151175836950e-03  9.4997359843395195e+00 0.0000000000000000e+00 -9.3006214038255638e-02  9.4865282316531712e+00 0.0000000000000000e+00 -8.6760819127876268e-02  9.4996123855243138e+00 0.0000000000000000e+00 1.7145711898000043e-01  9.4790128842614632e+00 0.0000000000000000e+00 -9.2252957647387113e-03  9.4955708924154969e+00 0.0000000000000000e+00 3.7559805014291542e-02  9.4802136771874554e+00 0.0000000000000000e+00 -3.3152352710086541e-02  9.4984502147337793e+00 0.0000000000000000e+00 -1.8770038491533230e-02  9.4770715860422907e+00 0.0000000000000000e+00 -5.1158429456658973e-02  9.4992832602253952e+00 0.0000000000000000e+00 -1.3539666545555884e-01  9.4783555891639004e+00 0.0000000000000000e+00 -9.8601829553086578e-02  9.5079289252053059e+00 0.0000000000000000e+00 -2.7890039530434685e-01  9.4804017840473467e+00 0.0000000000000000e+00 6.5396296515301905e-02  9.5058896604905740e+00 0.0000000000000000e+00 1.0153694810062736e-01  9.4878863262807318e+00 0.0000000000000000e+00 -6.7522780740708305e-02  9.5226021404845529e+00 0.0000000000000000e+00 -1.8306336415647156e-01  9.4946961518004596e+00 0.0000000000000000e+00 -3.6940485170105244e-02  9.5141774742311416e+00 0.0000000000000000e+00 2.4938366258948214e-01  9.4941932521002830e+00 0.0000000000000000e+00 7.7176968493084094e-04  9.5227712936982751e+00 0.0000000000000000e+00 7.2836284704319243e-02  9.4987842332433576e+00 0.0000000000000000e+00 1.9084472732316050e-02  9.5109728233465169e+00 0.0000000000000000e+00 -1.0389486255988012e-01  9.4997248651431718e+00 0.0000000000000000e+00 -9.4188502649894659e-02  9.5101873479519661e+00 0.0000000000000000e+00 6.4728982042273495e-02  9.4948185089745643e+00 0.0000000000000000e+00 -7.5538420462447501e-03  9.5072532143181725e+00 0.0000000000000000e+00 -1.5483795681940163e-01  9.4973248827551089e+00 0.0000000000000000e+00 -3.9058268005039386e-02  9.5120110668263926e+00 0.0000000000000000e+00 -1.1355896757229013e-01  9.4857782040625356e+00 0.0000000000000000e+00 -9.5715931459591813e-02  9.5123488164194825e+00 0.0000000000000000e+00 -1.2015160193760580e-01  9.5035576912515403e+00 0.0000000000000000e+00 -1.2674986586069628e-01  9.4944083226857874e+00 0.0000000000000000e+00 -2.4862440373187433e-01  9.5069149489097047e+00 0.0000000000000000e+00 3.3653252346219915e-02  9.5283870131791790e+00 -3.6813096001352635e-01 0.0000000000000000e+00  9.5095215677901024e+00 -3.2148692087742742e-01 0.0000000000000000e+00  9.5149148243601225e+00 -1.9692630482418849e-01 0.0000000000000000e+00  9.5053061432089354e+00 -1.1945000061646320e-01 0.0000000000000000e+00  9.5364650137395301e+00 -5.3126982882096208e-01 0.0000000000000000e+00  9.4711873587113544e+00 -7.7358580805850841e-01 0.0000000000000000e+00  9.5204896739402578e+00 -3.5710570488624543e-01 0.0000000000000000e+00  9.4968623429008883e+00 -5.1439019917793771e-01 0.0000000000000000e+00  9.4963227345302155e+00 -4.9392670339088662e-01 0.0000000000000000e+00  9.5192859577360309e+00 -2.8612019194951466e-01 0.0000000000000000e+00  9.4911006666928230e+00 -1.4158745555208338e-01 0.0000000000000000e+00  9.5219324192378672e+00 -8.3225425412430429e-02 0.0000000000000000e+00  9.5029118701782096e+00 -5.5113198420797621e-02 0.0000000000000000e+00  9.5311251777473025e+00 1.6468294541839751e-01 0.0000000000000000e+00  9.4731410036985100e+00 8.8927425774225063e-02 0.0000000000000000e+00  9.5467253374436130e+00 1.4761356491909386e-01 0.0000000000000000e+00  9.5006192467746260e+00 1.3085473537431300e-01 0.0000000000000000e+00  9.5417967991212880e+00 1.3856229358196274e-02 0.0000000000000000e+00  9.4530964250920864e+00 -9.7124369742991740e-02 0.0000000000000000e+00  9.5631831993956311e+00 9.8708315720118525e-02 0.0000000000000000e+00  9.4215668425770946e+00 -1.6027239263914257e-02 0.0000000000000000e+00  9.6329197393174599e+00 -1.8659247241554158e-01 0.0000000000000000e+00  9.3412782373901617e+00 1.1662043000391678e-01 0.0000000000000000e+00  9.5878855486860015e+00 1.5752451170072984e-02 0.0000000000000000e+00  9.3846807125066007e+00 1.3165147616196166e-01 0.0000000000000000e+00  7.3389324255428390e+00 2.1469921792251760e+00 0.0000000000000000e+00  3.7077021530181478e+00 8.2528377581735750e+00 0.0000000000000000e+00  4.0335518617279984e+00 7.2012025524010248e+00 0.0000000000000000e+00  3.8874882193526634e+00 7.2181963759074677e+00 0.0000000000000000e+00  4.1274217347745372e+00 7.4193183554937088e+00 0.0000000000000000e+00  3.9856953489615088e+00 7.2528695275868156e+00 0.0000000000000000e+00  3.9757956185571048e+00 7.2513347874649838e+00 0.0000000000000000e+00  4.0559587401614747e+00 7.3862617381977884e+00 0.0000000000000000e+00  4.0148682068457067e+00 7.2162937122657453e+00 0.0000000000000000e+00  4.0075196019956829e+00 7.3316092690178616e+00 0.0000000000000000e+00  4.0223723821465374e+00 7.2823910419879603e+00 0.0000000000000000e+00  4.0724731841191497e+00 7.2223369530843442e+00 0.0000000000000000e+00  4.0053980802283755e+00 7.3122847517977947e+00 0.0000000000000000e+00  3.9775501054006215e+00 7.3392693980908916e+00 0.0000000000000000e+00  3.9570552958111427e+00 7.3467806406123994e+00 0.0000000000000000e+00  3.9843631320958930e+00 7.3152308872078695e+00 0.0000000000000000e+00  3.8999322336265045e+00 7.415