<?xml version="1.0"?>
<VTKFile type="UnstructuredGrid"  version="0.1"  >
<UnstructuredGrid>
<Piece  NumberOfPoints="9509" NumberOfCells="18536">
<Points>
<DataArray  type="Float64"  NumberOfComponents="3"  format="ascii">-5 -1 0  5 -1 0  5 1 0  -5 1 0  -4.949999999999965 -1 0  -4.899999999999877 -1 0  -4.849999999999826 -1 0  -4.799999999999754 -1 0  -4.749999999999695 -1 0  -4.69999999999963 -1 0  -4.649999999999565 -1 0  -4.599999999999507 -1 0  -4.549999999999454 -1 0  -4.499999999999384 -1 0  -4.449999999999317 -1 0  -4.399999999999261 -1 0  -4.349999999999206 -1 0  -4.299999999999137 -1 0  -4.249999999999075 -1 0  -4.199999999999013 -1 0  -4.149999999998934 -1 0  -4.09999999999889 -1 0  -4.049999999998847 -1 0  -3.999999999998767 -1 0  -3.949999999998706 -1 0  -3.899999999998644 -1 0  -3.849999999998594 -1 0  -3.799999999998552 -1 0  -3.749999999998549 -1 0  -3.699999999998651 -1 0  -3.649999999998804 -1 0  -3.59999999999894 -1 0  -3.549999999999097 -1 0  -3.499999999999261 -1 0  -3.449999999999394 -1 0  -3.399999999999582 -1 0  -3.349999999999742 -1 0  -3.299999999999902 -1 0  -3.25000000000006 -1 0  -3.200000000000223 -1 0  -3.150000000000369 -1 0  -3.100000000000544 -1 0  -3.050000000000704 -1 0  -3.000000000000864 -1 0  -2.950000000001029 -1 0  -2.900000000001185 -1 0  -2.850000000001347 -1 0  -2.800000000001506 -1 0  -2.750000000001665 -1 0  -2.700000000001827 -1 0  -2.650000000001979 -1 0  -2.600000000002148 -1 0  -2.550000000002311 -1 0  -2.500000000002468 -1 0  -2.450000000002635 -1 0  -2.400000000002789 -1 0  -2.35000000000295 -1 0  -2.30000000000311 -1 0  -2.250000000003253 -1 0  -2.200000000003431 -1 0  -2.150000000003601 -1 0  -2.100000000003752 -1 0  -2.050000000003922 -1 0  -2.000000000004072 -1 0  -1.950000000004237 -1 0  -1.900000000004393 -1 0  -1.850000000004541 -1 0  -1.800000000004714 -1 0  -1.750000000004886 -1 0  -1.700000000005035 -1 0  -1.650000000005206 -1 0  -1.600000000005355 -1 0  -1.550000000005516 -1 0  -1.500000000005676 -1 0  -1.450000000005824 -1 0  -1.400000000005996 -1 0  -1.350000000006146 -1 0  -1.300000000006318 -1 0  -1.250000000006505 -1 0  -1.200000000006638 -1 0  -1.150000000006797 -1 0  -1.100000000006959 -1 0  -1.050000000007106 -1 0  -1.000000000007245 -1 0  -0.9500000000072193 -1 0  -0.9000000000072612 -1 0  -0.8500000000071966 -1 0  -0.8000000000071381 -1 0  -0.750000000007085 -1 0  -0.700000000007015 -1 0  -0.6500000000069521 -1 0  -0.6000000000068919 -1 0  -0.5500000000068104 -1 0  -0.5000000000067688 -1 0  -0.4500000000067104 -1 0  -0.4000000000066457 -1 0  -0.3500000000065757 -1 0  -0.3000000000065226 -1 0  -0.2500000000064961 -1 0  -0.2000000000063995 -1 0  -0.1500000000063775 -1 0  -0.1000000000062764 -1 0  -0.0500000000062597 -1 0  -6.153300091682468e-12 -1 0  0.04999999999390781 -1 0  0.09999999999396891 -1 0  0.14999999999403 -1 0  0.1999999999940929 -1 0  0.2499999999941318 -1 0  0.299999999994216 -1 0  0.349999999994254 -1 0  0.3999999999943391 -1 0  0.4499999999944038 -1 0  0.4999999999944613 -1 0  0.5499999999945429 -1 0  0.5999999999945853 -1 0  0.6499999999946606 -1 0  0.6999999999947084 -1 0  0.7499999999947651 -1 0  0.7999999999948315 -1 0  0.8499999999948926 -1 0  0.8999999999949537 -1 0  0.9499999999950148 -1 0  0.9999999999950768 -1 0  1.049999999995139 -1 0  1.0999999999952 -1 0  1.149999999995266 -1 0  1.199999999995324 -1 0  1.249999999995385 -1 0  1.299999999995446 -1 0  1.349999999995488 -1 0  1.399999999995569 -1 0  1.449999999995604 -1 0  1.499999999995692 -1 0  1.549999999995753 -1 0  1.599999999995816 -1 0  1.649999999995892 -1 0  1.699999999995939 -1 0  1.749999999996017 -1 0  1.799999999996063 -1 0  1.849999999996111 -1 0  1.899999999996185 -1 0  1.949999999996246 -1 0  1.999999999996308 -1 0  2.049999999996351 -1 0  2.099999999996431 -1 0  2.149999999996504 -1 0  2.199999999996555 -1 0  2.249999999996616 -1 0  2.299999999996677 -1 0  2.349999999996736 -1 0  2.3999999999968 -1 0  2.449999999996847 -1 0  2.499999999996923 -1 0  2.549999999997 -1 0  2.599999999997047 -1 0  2.649999999997093 -1 0  2.69999999999717 -1 0  2.749999999997245 -1 0  2.799999999997293 -1 0  2.849999999997344 -1 0  2.899999999997416 -1 0  2.949999999997469 -1 0  2.999999999997539 -1 0  3.049999999997576 -1 0  3.099999999997662 -1 0  3.149999999997725 -1 0  3.199999999997784 -1 0  3.249999999997829 -1 0  3.299999999997908 -1 0  3.349999999997921 -1 0  3.39999999999803 -1 0  3.4499999999981 -1 0  3.499999999998153 -1 0  3.549999999998214 -1 0  3.599999999998277 -1 0  3.649999999998409 -1 0  3.699999999998401 -1 0  3.749999999998444 -1 0  3.799999999998523 -1 0  3.849999999998602 -1 0  3.899999999998645 -1 0  3.949999999998658 -1 0  3.999999999998769 -1 0  4.049999999998814 -1 0  4.099999999998893 -1 0  4.149999999998883 -1 0  4.199999999999015 -1 0  4.249999999999064 -1 0  4.299999999999137 -1 0  4.349999999999152 -1 0  4.399999999999261 -1 0  4.44999999999933 -1 0  4.499999999999385 -1 0  4.549999999999446 -1 0  4.599999999999508 -1 0  4.649999999999633 -1 0  4.699999999999632 -1 0  4.749999999999723 -1 0  4.799999999999754 -1 0  4.849999999999801 -1 0  4.899999999999876 -1 0  4.949999999999925 -1 0  5 -0.950000000000111 0  5 -0.9000000000002774 0  5 -0.8500000000004283 0  5 -0.8000000000005548 0  5 -0.7500000000006787 0  5 -0.7000000000008322 0  5 -0.6500000000009709 0  5 -0.6000000000011096 0  5 -0.5500000000012484 0  5 -0.500000000001387 0  5 -0.4500000000015256 0  5 -0.4000000000016644 0  5 -0.3500000000018031 0  5 -0.3000000000019418 0  5 -0.2500000000020806 0  5 -0.2000000000022192 0  5 -0.1500000000023578 0  5 -0.1000000000024964 0  5 -0.05000000000262439 0  5 -2.752242878045763e-12 0  5 0.0499999999973757 0  5 0.09999999999750342 0  5 0.1499999999976422 0  5 0.1999999999977808 0  5 0.2499999999979194 0  5 0.2999999999980583 0  5 0.3499999999981969 0  5 0.3999999999983355 0  5 0.4499999999984743 0  5 0.4999999999986129 0  5 0.5499999999987515 0  5 0.5999999999988903 0  5 0.6499999999990291 0  5 0.699999999999168 0  5 0.7499999999993068 0  5 0.7999999999994454 0  5 0.849999999999584 0  5 0.8999999999997226 0  5 0.9499999999998612 0  4.949999999999965 1 0  4.899999999999877 1 0  4.849999999999826 1 0  4.799999999999754 1 0  4.749999999999695 1 0  4.69999999999963 1 0  4.649999999999565 1 0  4.599999999999507 1 0  4.549999999999454 1 0  4.499999999999384 1 0  4.449999999999317 1 0  4.399999999999261 1 0  4.349999999999206 1 0  4.299999999999137 1 0  4.249999999999075 1 0  4.199999999999013 1 0  4.149999999998934 1 0  4.09999999999889 1 0  4.049999999998847 1 0  3.999999999998767 1 0  3.949999999998706 1 0  3.899999999998644 1 0  3.849999999998594 1 0  3.799999999998552 1 0  3.749999999998549 1 0  3.699999999998651 1 0  3.649999999998804 1 0  3.59999999999894 1 0  3.549999999999097 1 0  3.499999999999261 1 0  3.449999999999394 1 0  3.399999999999582 1 0  3.349999999999742 1 0  3.299999999999902 1 0  3.25000000000006 1 0  3.200000000000223 1 0  3.150000000000369 1 0  3.100000000000544 1 0  3.050000000000704 1 0  3.000000000000864 1 0  2.950000000001029 1 0  2.900000000001185 1 0  2.850000000001347 1 0  2.800000000001506 1 0  2.750000000001665 1 0  2.700000000001827 1 0  2.650000000001979 1 0  2.600000000002148 1 0  2.550000000002311 1 0  2.500000000002468 1 0  2.450000000002635 1 0  2.400000000002789 1 0  2.35000000000295 1 0  2.30000000000311 1 0  2.250000000003253 1 0  2.200000000003431 1 0  2.150000000003601 1 0  2.100000000003752 1 0  2.050000000003922 1 0  2.000000000004072 1 0  1.950000000004237 1 0  1.900000000004393 1 0  1.850000000004541 1 0  1.800000000004714 1 0  1.750000000004886 1 0  1.700000000005035 1 0  1.650000000005206 1 0  1.600000000005355 1 0  1.550000000005516 1 0  1.500000000005676 1 0  1.450000000005824 1 0  1.400000000005996 1 0  1.350000000006146 1 0  1.300000000006318 1 0  1.250000000006505 1 0  1.200000000006638 1 0  1.150000000006797 1 0  1.100000000006959 1 0  1.050000000007106 1 0  1.000000000007245 1 0  0.9500000000072193 1 0  0.9000000000072612 1 0  0.8500000000071966 1 0  0.8000000000071381 1 0  0.750000000007085 1 0  0.700000000007015 1 0  0.6500000000069521 1 0  0.6000000000068919 1 0  0.5500000000068104 1 0  0.5000000000067688 1 0  0.4500000000067104 1 0  0.4000000000066457 1 0  0.3500000000065757 1 0  0.3000000000065226 1 0  0.2500000000064961 1 0  0.2000000000063995 1 0  0.1500000000063775 1 0  0.1000000000062764 1 0  0.0500000000062597 1 0  6.153300091682468e-12 1 0  -0.04999999999390781 1 0  -0.09999999999396891 1 0  -0.14999999999403 1 0  -0.1999999999940929 1 0  -0.2499999999941318 1 0  -0.299999999994216 1 0  -0.349999999994254 1 0  -0.3999999999943391 1 0  -0.4499999999944038 1 0  -0.4999999999944613 1 0  -0.5499999999945429 1 0  -0.5999999999945853 1 0  -0.6499999999946606 1 0  -0.6999999999947084 1 0  -0.7499999999947651 1 0  -0.7999999999948315 1 0  -0.8499999999948926 1 0  -0.8999999999949537 1 0  -0.9499999999950148 1 0  -0.9999999999950768 1 0  -1.049999999995139 1 0  -1.0999999999952 1 0  -1.149999999995266 1 0  -1.199999999995324 1 0  -1.249999999995385 1 0  -1.299999999995446 1 0  -1.349999999995488 1 0  -1.399999999995569 1 0  -1.449999999995604 1 0  -1.499999999995692 1 0  -1.549999999995753 1 0  -1.599999999995816 1 0  -1.649999999995892 1 0  -1.699999999995939 1 0  -1.749999999996017 1 0  -1.799999999996063 1 0  -1.849999999996111 1 0  -1.899999999996185 1 0  -1.949999999996246 1 0  -1.999999999996308 1 0  -2.049999999996351 1 0  -2.099999999996431 1 0  -2.149999999996504 1 0  -2.199999999996555 1 0  -2.249999999996616 1 0  -2.299999999996677 1 0  -2.349999999996736 1 0  -2.3999999999968 1 0  -2.449999999996847 1 0  -2.499999999996923 1 0  -2.549999999997 1 0  -2.599999999997047 1 0  -2.649999999997093 1 0  -2.69999999999717 1 0  -2.749999999997245 1 0  -2.799999999997293 1 0  -2.849999999997344 1 0  -2.899999999997416 1 0  -2.949999999997469 1 0  -2.999999999997539 1 0  -3.049999999997576 1 0  -3.099999999997662 1 0  -3.149999999997725 1 0  -3.199999999997784 1 0  -3.249999999997829 1 0  -3.29999
[...]
<PointData  Vectors="(h, u)"> 
<DataArray  type="Float64"  Name="(h, u)"  NumberOfComponents="3" format="ascii">6.8661034401360030e+00 0.0000000000000000e+00 0.0000000000000000e+00  9.5194910416050558e+00 0.0000000000000000e+00 0.0000000000000000e+00  9.5670311181413297e+00 0.0000000000000000e+00 0.0000000000000000e+00  6.8568465608255131e+00 0.0000000000000000e+00 0.0000000000000000e+00  6.8587044108552062e+00 8.9364057746466233e-02 0.0000000000000000e+00  6.8658714921466419e+00 1.8211281420329956e-01 0.0000000000000000e+00  6.8567916722755919e+00 2.5627511070669429e-01 0.0000000000000000e+00  6.8631216372661150e+00 3.5449890206814649e-01 0.0000000000000000e+00  6.8551012870585728e+00 4.4695064661629491e-01 0.0000000000000000e+00  6.8590713654631603e+00 5.2227776345796872e-01 0.0000000000000000e+00  6.8487872696981764e+00 6.1237125940679349e-01 0.0000000000000000e+00  6.8543387028754825e+00 7.1866655660615841e-01 0.0000000000000000e+00  6.8433947343335664e+00 7.6185291968222280e-01 0.0000000000000000e+00  6.8494036078529925e+00 8.6742001593286144e-01 0.0000000000000000e+00  6.8335193469219053e+00 9.7981705149185705e-01 0.0000000000000000e+00  6.8416011073850536e+00 1.0324539536746227e+00 0.0000000000000000e+00  6.8252735430328695e+00 1.1220133782207655e+00 0.0000000000000000e+00  6.8298550069626982e+00 1.2444151646892010e+00 0.0000000000000000e+00  6.8134603583523594e+00 1.2878956362346248e+00 0.0000000000000000e+00  6.8201535683147245e+00 1.3853432910135586e+00 0.0000000000000000e+00  6.7981221568710701e+00 1.4979887412535178e+00 0.0000000000000000e+00  6.8055468333772646e+00 1.5557239469826611e+00 0.0000000000000000e+00  6.7853956090037704e+00 1.6235625985310589e+00 0.0000000000000000e+00  6.7879019272620287e+00 1.7816915248208993e+00 0.0000000000000000e+00  6.7660904498983214e+00 1.7725072032712061e+00 0.0000000000000000e+00  6.7739490344768756e+00 1.9201252031109595e+00 0.0000000000000000e+00  6.7442352920336663e+00 1.9875734990224059e+00 0.0000000000000000e+00  6.7518670746622993e+00 2.0739028020656325e+00 0.0000000000000000e+00  6.7267892105403533e+00 2.1098771001053565e+00 0.0000000000000000e+00  6.7274072334093216e+00 2.3007067346149834e+00 0.0000000000000000e+00  6.7000431365193753e+00 2.2522341945009692e+00 0.0000000000000000e+00  6.7073342011075523e+00 2.4091051426113568e+00 0.0000000000000000e+00  6.6720235880712710e+00 2.5180450128827094e+00 0.0000000000000000e+00  6.6762219919612376e+00 2.4797776531470448e+00 0.0000000000000000e+00  6.6474039258056221e+00 2.7087708229357408e+00 0.0000000000000000e+00  6.6451651510705734e+00 2.6573310264960517e+00 0.0000000000000000e+00  6.6122432086104137e+00 2.8244571508158063e+00 0.0000000000000000e+00  6.6147092802218008e+00 2.8483515887158668e+00 0.0000000000000000e+00  6.5807929275514061e+00 2.9447274040094218e+00 0.0000000000000000e+00  6.5728685422966882e+00 3.0151197504165750e+00 0.0000000000000000e+00  6.5467247762897367e+00 3.1083864859433890e+00 0.0000000000000000e+00  6.5369352001058925e+00 3.1235333252866759e+00 0.0000000000000000e+00  6.5031818734403481e+00 3.2724364766861713e+00 0.0000000000000000e+00  6.4921904835261879e+00 3.2919806180283726e+00 0.0000000000000000e+00  6.4679334869304155e+00 3.3720092945285529e+00 0.0000000000000000e+00  6.4420608380922220e+00 3.4356217300327270e+00 0.0000000000000000e+00  6.4155788933932518e+00 3.5492623039570259e+00 0.0000000000000000e+00  6.4027766782298903e+00 3.5415504595127487e+00 0.0000000000000000e+00  6.3639215762509815e+00 3.6541928836793258e+00 0.0000000000000000e+00  6.3371653320201000e+00 3.7493876058992113e+00 0.0000000000000000e+00  6.3252768886900821e+00 3.7276691335058478e+00 0.0000000000000000e+00  6.2803637949958286e+00 3.8623211203730001e+00 0.0000000000000000e+00  6.2515398313817858e+00 3.9344712455916762e+00 0.0000000000000000e+00  6.2377845491425150e+00 3.9177555221351921e+00 0.0000000000000000e+00  6.1945589618500065e+00 4.0435448162948999e+00 0.0000000000000000e+00  6.1542457258409637e+00 4.1319308871580391e+00 0.0000000000000000e+00  6.1488886733158372e+00 4.0832253868624120e+00 0.0000000000000000e+00  6.0958802104002636e+00 4.2339821200999781e+00 0.0000000000000000e+00  6.0614917966859947e+00 4.2941552271334693e+00 0.0000000000000000e+00  6.0427081211359122e+00 4.2742619858994031e+00 0.0000000000000000e+00  6.0026262964535215e+00 4.3962408614171657e+00 0.0000000000000000e+00  5.9573280718111796e+00 4.4544088271999227e+00 0.0000000000000000e+00  5.9366927005991030e+00 4.4640917815663039e+00 0.0000000000000000e+00  5.8978967156324185e+00 4.5449758121776513e+00 0.0000000000000000e+00  5.8586535761508625e+00 4.6229681654830035e+00 0.0000000000000000e+00  5.8183416671604498e+00 4.6278930917993177e+00 0.0000000000000000e+00  5.7929462402193392e+00 4.7204952478459496e+00 0.0000000000000000e+00  5.7592025747329627e+00 4.7528012330706400e+00 0.0000000000000000e+00  5.6964389891141334e+00 4.8175616905775289e+00 0.0000000000000000e+00  5.6897902363369024e+00 4.8638556831539566e+00 0.0000000000000000e+00  5.6551605248070951e+00 4.9028348216338795e+00 0.0000000000000000e+00  5.5850909649602176e+00 4.9670315907134963e+00 0.0000000000000000e+00  5.5738506253801132e+00 5.0515148059297079e+00 0.0000000000000000e+00  5.5610538556824523e+00 4.9893542868752192e+00 0.0000000000000000e+00  5.4630541783384894e+00 5.1935210164952705e+00 0.0000000000000000e+00  5.4697862136903455e+00 5.1411843363533993e+00 0.0000000000000000e+00  5.4398779788093181e+00 5.1969056662271198e+00 0.0000000000000000e+00  5.3674845669141096e+00 5.3043047216210697e+00 0.0000000000000000e+00  5.3422062534973378e+00 5.3209980383483524e+00 0.0000000000000000e+00  5.3293808540863319e+00 5.3554886914185325e+00 0.0000000000000000e+00  5.2577290337133693e+00 5.4393594239787086e+00 0.0000000000000000e+00  5.2371155781493837e+00 5.4862500159171521e+00 0.0000000000000000e+00  5.1958866984741094e+00 5.5141490168526781e+00 0.0000000000000000e+00  5.1675560237367355e+00 5.5842103430286496e+00 0.0000000000000000e+00  5.1282039248914968e+00 5.6201199278585756e+00 0.0000000000000000e+00  5.0816014893671202e+00 5.6799564044506043e+00 0.0000000000000000e+00  5.0629233424801958e+00 5.7240407967607956e+00 0.0000000000000000e+00  5.0211523088981274e+00 5.7714955811689226e+00 0.0000000000000000e+00  4.9868883363898746e+00 5.8077948391792056e+00 0.0000000000000000e+00  4.9399739483190164e+00 5.9029574068273751e+00 0.0000000000000000e+00  4.9311388543258099e+00 5.8864624769262930e+00 0.0000000000000000e+00  4.8719635305813780e+00 5.9860708582081248e+00 0.0000000000000000e+00  4.8396563905479617e+00 6.0244592782310038e+00 0.0000000000000000e+00  4.8147035122248001e+00 6.0718840771425802e+00 0.0000000000000000e+00  4.7852727725498010e+00 6.0944331448002123e+00 0.0000000000000000e+00  4.6904189832381320e+00 6.2415343105180554e+00 0.0000000000000000e+00  4.7584853468914474e+00 6.1583886325807784e+00 0.0000000000000000e+00  4.6565918572503868e+00 6.2676425981552990e+00 0.0000000000000000e+00  4.6373516812135547e+00 6.3327798438752740e+00 0.0000000000000000e+00  4.6066250977809604e+00 6.3662196164322227e+00 0.0000000000000000e+00  4.5919242822160333e+00 6.3764383999326544e+00 0.0000000000000000e+00  4.4697779978044059e+00 6.5593871111391513e+00 0.0000000000000000e+00  4.5682435455875945e+00 6.4526468945586686e+00 0.0000000000000000e+00  4.4532555012127721e+00 6.5383722144410390e+00 0.0000000000000000e+00  4.4163870572153447e+00 6.6869848256359976e+00 0.0000000000000000e+00  4.3548722546606173e+00 6.7112252868780802e+00 0.0000000000000000e+00  4.3767920817817352e+00 6.7055054942466876e+00 0.0000000000000000e+00  4.2965240442783088e+00 6.8191561450534461e+00 0.0000000000000000e+00  4.2964252404194800e+00 6.8302918788767251e+00 0.0000000000000000e+00  4.2076381352773513e+00 6.9301450704206404e+00 0.0000000000000000e+00  4.2621540590770195e+00 6.8909125594109195e+00 0.0000000000000000e+00  4.1388352955060377e+00 7.0518270105226133e+00 0.0000000000000000e+00  4.1442205455012449e+00 7.0600871483386687e+00 0.0000000000000000e+00  4.1095282734405219e+00 7.0727760513207789e+00 0.0000000000000000e+00  4.1471940892890613e+00 7.1124709811856270e+00 0.0000000000000000e+00  4.0376892479103104e+00 7.1677324085284218e+00 0.0000000000000000e+00  4.0452196619550307e+00 7.2329268273477405e+00 0.0000000000000000e+00  4.0272534589652791e+00 7.2490089658540926e+00 0.0000000000000000e+00  3.9609605644239543e+00 7.3112854817948847e+00 0.0000000000000000e+00  3.9451888772969972e+00 7.3597155686150275e+00 0.0000000000000000e+00  3.8495336908127311e+00 7.5504447835191204e+00 0.0000000000000000e+00  3.9851153348629720e+00 7.2611696998504582e+00 0.0000000000000000e+00  3.7663103638721505e+00 7.6542451437663814e+00 0.0000000000000000e+00  3.8505458290924275e+00 7.5315533903053211e+00 0.0000000000000000e+00  3.7571672809080394e+00 7.6202556661350931e+00 0.0000000000000000e+00  3.6670794819354247e+00 7.8127316581601836e+00 0.0000000000000000e+00  3.6452434794011461e+00 7.8551384668799642e+00 0.0000000000000000e+00  4.0226226640350067e+00 7.1771126597355277e+00 0.0000000000000000e+00  3.8868974955507212e+00 7.4954560725587189e+00 0.0000000000000000e+00  3.8036039870322180e+00 7.5559414413223989e+00 0.0000000000000000e+00  4.2340379118874862e+00 6.9088550718156672e+00 0.0000000000000000e+00  3.9670953711332415e+00 7.3748439071808765e+00 0.0000000000000000e+00  3.9382191814956968e+00 7.3678342988481038e+00 0.0000000000000000e+00  4.0071130999389677e+00 7.2320315739969594e+00 0.0000000000000000e+00  4.0827602724971088e+00 7.1830950185868891e+00 0.0000000000000000e+00  3.9306788245399478e+00 7.4136642255356309e+00 0.0000000000000000e+00  3.8914426475873967e+00 7.3536798685648543e+00 0.0000000000000000e+00  3.9716505069845423e+00 7.3507441107989866e+00 0.0000000000000000e+00  3.9455113349464122e+00 7.3829227512432851e+00 0.0000000000000000e+00  3.9253407939111984e+00 7.3294690775287288e+00 0.0000000000000000e+00  3.9844205850267369e+00 7.2917986838445099e+00 0.0000000000000000e+00  3.9944751917800465e+00 7.3881014994970009e+00 0.0000000000000000e+00  3.8937055784405805e+00 7.3078257130202537e+00 0.0000000000000000e+00  3.9896183398718712e+00 7.3438287608303012e+00 0.0000000000000000e+00  3.9474602183917682e+00 7.3993486284130272e+00 0.0000000000000000e+00  3.9570583817523977e+00 7.2734199035716092e+00 0.0000000000000000e+00  3.9686864411523981e+00 7.3312023847871384e+00 0.0000000000000000e+00  3.9837558656676233e+00 7.3810083620156028e+00 0.0000000000000000e+00  3.9803544390894743e+00 7.2379273753434923e+00 0.0000000000000000e+00  3.9431339970816182e+00 7.3772338780430351e+00 0.0000000000000000e+00  3.9471199945076467e+00 7.4061979454290201e+00 0.0000000000000000e+00  3.9955513787830412e+00 7.2617201005598151e+00 0.0000000000000000e+00  3.9785196095290649e+00 7.2810938258686821e+00 0.0000000000000000e+00  3.9847454150856167e+00 7.4106689279141902e+00 0.0000000000000000e+00  3.9489323556239984e+00 7.2850237264073021e+00 0.0000000000000000e+00  3.9780913572763836e+00 7.3074308515875490e+00 0.0000000000000000e+00  3.9699697712547208e+00 7.4138721970584793e+00 0.0000000000000000e+00  3.9491953892117846e+00 7.2859401012004188e+00 0.0000000000000000e+00  3.9567526239629163e+00 7.3515041516854733e+00 0.0000000000000000e+00  3.9886907778988880e+00 7.3625893545122114e+00 0.0000000000000000e+00  3.9670887302282112e+00 7.3030721661631652e+00 0.0000000000000000e+00  3.9484430259782490e+00 7.3207966614962166e+00 0.0000000000000000e+00  3.9497721386957010e+00 7.4674110832965672e+00 0.0000000000000000e+00  3.9871696235501548e+00 7.1939910106001710e+00 0.0000000000000000e+00  3.9291012282270765e+00 7.4652116297917406e+00 0.0000000000000000e+00  3.9788596535881218e+00 7.3015769257251248e+00 0.0000000000000000e+00  3.9732872706866980e+00 7.3222024512449098e+00 0.0000000000000000e+00  3.9618804200756723e+00 7.3589151502503212e+00 0.0000000000000000e+00  3.9327492006199565e+00 7.3852278662300970e+00 0.0000000000000000e+00  3.9901037914473410e+00 7.3125312265251772e+00 0.0000000000000000e+00  3.9461121266410961e+00 7.3532013237868945e+00 0.0000000000000000e+00  3.9578822975636281e+00 7.3902503757083711e+00 0.0000000000000000e+00  3.9754116602063845e+00 7.2917815988395231e+00 0.0000000000000000e+00  3.9514100071210825e+00 7.3864408559930430e+00 0.0000000000000000e+00  3.9453973063997010e+00 7.3683110611204530e+00 0.0000000000000000e+00  3.9906751149989756e+00 7.3074786061421246e+00 0.0000000000000000e+00  3.9527858723804292e+00 7.3552307634999252e+00 0.0000000000000000e+00  3.9498154670104557e+00 7.3837632590491546e+00 0.0000000000000000e+00  3.9685535797413887e+00 7.3245811294511940e+00 0.0000000000000000e+00  3.9643781343693352e+00 7.3676624272424576e+00 0.0000000000000000e+00  3.9349033004932026e+00 7.3397314752180485e+00 0.0000000000000000e+00  3.9803106043020646e+00 7.3476713379405050e+00 0.0000000000000000e+00  3.9511305908188170e+00 7.4948591336588350e+00 0.0000000000000000e+00  4.0912435996802889e+00 6.8873379484125943e+00 0.0000000000000000e+00  3.7146053739571689e+00 7.6465736798954707e+00 0.0000000000000000e+00  9.9368657984967932e+00 -3.1668520200548900e-01 0.0000000000000000e+00  8.9163891348502844e+00 5.9231367547633962e-01 0.0000000000000000e+00  9.7930983416223167e+00 -2.7673118631032712e-01 0.0000000000000000e+00  9.3638137596618236e+00 1.2357860502166443e-01 0.0000000000000000e+00  9.5747227217917601e+00 -3.9328569082172651e-02 0.0000000000000000e+00  9.5197577446017405e+00 -2.9112149178806664e-02 0.0000000000000000e+00  9.4828106603082922e+00 5.3607822268395770e-02 0.0000000000000000e+00  9.5069514841999396e+00 -1.4124149133396557e-02 0.0000000000000000e+00  9.4984496377784335e+00 4.2301830748683607e-02 0.0000000000000000e+00  9.5003219990524848e+00 -6.6154731265576361e-03 0.0000000000000000e+00  9.5044491813969376e+00 3.1084223151473432e-02 0.0000000000000000e+00  9.4777131640084242e+00 9.4515756274225256e-03 0.0000000000000000e+00  9.5069362688429422e+00 5.5641252455918011e-04 0.0000000000000000e+00  9.4924700950791774e+00 3.7237736084672284e-02 0.0000000000000000e+00  9.5091160005559345e+00 -6.0301059225308637e-02 0.0000000000000000e+00  9.4868003553599713e+00 2.3055400746969244e-02 0.0000000000000000e+00  9.5144173908724010e+00 -2.1303611112334777e-02 0.0000000000000000e+00  9.4877932382983836e+00 -1.8607337518485012e-01 0.0000000000000000e+00  9.4914570946830281e+00 0.0000000000000000e+00 -8.7196804700255121e-02  9.5177147152708503e+00 0.0000000000000000e+00 -1.9499591593968798e-02  9.4930279902909334e+00 0.0000000000000000e+00 -3.8255788576671675e-02  9.5122764368209509e+00 0.0000000000000000e+00 -9.6118908131702152e-02  9.4989503046425963e+00 0.0000000000000000e+00 3.7809192595041195e-02  9.5093018200304122e+00 0.0000000000000000e+00 6.6840726662559746e-02  9.4914262883285705e+00 0.0000000000000000e+00 -6.1533102777647126e-03  9.5176077266880252e+00 0.0000000000000000e+00 -8.5670213855506369e-02  9.4944014873260070e+00 0.0000000000000000e+00 -1.0084655573922006e-01  9.5197513668917964e+00 0.0000000000000000e+00 1.6072149968802468e-01  9.4821028808903627e+00 0.0000000000000000e+00 -2.7194143445067771e-02  9.5093559163580910e+00 0.0000000000000000e+00 3.5399924965454362e-02  9.4871144745314773e+00 0.0000000000000000e+00 -3.9116803407611950e-02  9.5086116250062780e+00 0.0000000000000000e+00 -2.8843874641080132e-02  9.4839241152898310e+00 0.0000000000000000e+00 -5.7877539573073455e-02  9.5063939127694450e+00 0.0000000000000000e+00 -1.3004281698409961e-01  9.4693012420666758e+00 0.0000000000000000e+00 -1.1367836806849974e-01  9.5158868565977368e+00 0.0000000000000000e+00 -2.8266048797091115e-01  9.4837420601425499e+00 0.0000000000000000e+00 6.1805654963369053e-02  9.5098833368696187e+00 0.0000000000000000e+00 1.1217276182766031e-01  9.4855467298089255e+00 0.0000000000000000e+00 -5.8924775142244194e-02  9.4941712821817497e+00 0.0000000000000000e+00 -1.6776157120941262e-01  9.4670654190160182e+00 0.0000000000000000e+00 -3.9013742194142359e-02  9.5071043126596759e+00 0.0000000000000000e+00 2.7824878930588270e-01  9.4790169591107709e+00 0.0000000000000000e+00 2.9363275211928556e-02  9.4924119267133467e+00 0.0000000000000000e+00 9.1719324708565725e-02  9.4520883466667271e+00 0.0000000000000000e+00 3.0020315761392389e-02  9.4753290866587214e+00 0.0000000000000000e+00 -8.5593404852725430e-02  9.4935822782942232e+00 0.0000000000000000e+00 -8.5183085021527397e-02  9.4911026838670551e+00 0.0000000000000000e+00 1.0265334889774494e-01  9.4534388991170886e+00 0.0000000000000000e+00 8.7145910684178537e-03  9.5199530287616465e+00 0.0000000000000000e+00 -1.5317223827500362e-01  9.4610780076058134e+00 0.0000000000000000e+00 -2.4520341043469476e-02  9.5008784336363199e+00 0.0000000000000000e+00 -9.5743450218090026e-02  9.4743576881545426e+00 0.0000000000000000e+00 -1.0037631759564036e-01  9.5069309417130832e+00 0.0000000000000000e+00 -8.4813321548476678e-02  9.4411267684769360e+00 0.0000000000000000e+00 -1.1093602823101777e-01  9.5606875967161109e+00 0.0000000000000000e+00 -2.1228516324724950e-01  9.4507288487779579e+00 0.0000000000000000e+00 4.0883137019419008e-02  9.4475790938795967e+00 -3.5625617137490745e-01 0.0000000000000000e+00  9.5648440598834661e+00 -3.0896571001812534e-01 0.0000000000000000e+00  9.4693850596074629e+00 -1.5490518250273849e-01 0.0000000000000000e+00  9.5349298363793871e+00 -1.9989504114163745e-01 0.0000000000000000e+00  9.4688309663295467e+00 -6.5367630866578441e-01 0.0000000000000000e+00  9.4602910296030061e+00 -7.4609796650867310e-01 0.0000000000000000e+00  9.5071450266295123e+00 -4.0003326465835082e-01 0.0000000000000000e+00  9.5203859633874330e+00 -4.6464227682340276e-01 0.0000000000000000e+00  9.4865750126011452e+00 -4.6066172252076876e-01 0.0000000000000000e+00  9.4692436459071860e+00 -2.4349034820965393e-01 0.0000000000000000e+00  9.6850468767649396e+00 -1.7731233922200695e-01 0.0000000000000000e+00  9.3429281264018922e+00 -1.9563633667741200e-02 0.0000000000000000e+00  9.6155794784410489e+00 -1.7853860526884294e-01 0.0000000000000000e+00  9.6272920614068269e+00 6.9857679812577192e-02 0.0000000000000000e+00  9.3381990365942169e+00 2.0228041903577165e-01 0.0000000000000000e+00  9.7208854839197514e+00 -1.1035832649007309e-01 0.0000000000000000e+00  9.0729355661727258e+00 7.2147855993830856e-01 0.0000000000000000e+00  9.9066958216168448e+00 -3.6799647197528240e-01 0.0000000000000000e+00  3.7577746059957717e+00 7.7546591249399430e+00 0.0000000000000000e+00  4.0696782026862701e+00 6.8940733215030034e+00 0.0000000000000000e+00  3.9608409646588929e+00 7.3905874261623161e+00 0.0000000000000000e+00  4.0431488687527919e+00 7.2530905851545500e+00 0.0000000000000000e+00  4.0167781882208118e+00 7.2947622594500698e+00 0.0000000000000000e+00  3.9129542172231133e+00 7.2620512409111315e+00 0.0000000000000000e+00  4.0614893788016637e+00 7.3174332395882447e+00 0.0000000000000000e+00  3.9407630486734639e+00 7.2527907960587674e+00 0.0000000000000000e+00  3.9714651751018089e+00 7.4123877888654253e+00 0.0000000000000000e+00  4.0457727948802766e+00 7.1220454097352519e+00 0.0000000000000000e+00  3.8999040795039277e+00 7.4696018716456063e+00 0.0000000000000000e+00  4.0089385464867249e+00 7.2771487435189774e+00 0.0000000000000000e+00  3.9513677418757776e+00 7.2751100550234673e+00 0.0000000000000000e+00  3.9379665166712949e+00 7.3530807361570751e+00 0.0000000000000000e+00  3.9945492766519450e+00 7.3415056577906039e+00 0.0000000000000000e+00  3.9382297173415548e+00 7.2282123979463995e+00 0.0000000000000000e+00  3.9542733738739080e+00 7.3763917237298795e+00 0.0000000000000000e+00  3.8603772493467687e+00 7.4355833502794884e+00 0.0000000000000000e+00  3.9307364830167524e+00 7.2977303844931170e+00 0.0000000000000000e+00  3.9427649634589068e+00 7.3336270754576622e+00 0.0000000000000000e+00  3.8712346584853399e+00 7.4219476480797191e+00 0.0000000000000000e+00  3.9478995693592793e+00 7.2941417236267325e+00 0.0000000000000000e+00  3.9083136903144737e+00 7.4207276810661975e+00 0.0000000000000000e+00  3.9576189197914684e+00 7.273