<?xml version="1.0"?>
<VTKFile type="UnstructuredGrid"  version="0.1"  >
<UnstructuredGrid>
<Piece  NumberOfPoints="9509" NumberOfCells="18536">
<Points>
<DataArray  type="Float64"  NumberOfComponents="3"  format="ascii">-5 -1 0  5 -1 0  5 1 0  -5 1 0  -4.949999999999965 -1 0  -4.899999999999877 -1 0  -4.849999999999826 -1 0  -4.799999999999754 -1 0  -4.749999999999695 -1 0  -4.69999999999963 -1 0  -4.649999999999565 -1 0  -4.599999999999507 -1 0  -4.549999999999454 -1 0  -4.499999999999384 -1 0  -4.449999999999317 -1 0  -4.399999999999261 -1 0  -4.349999999999206 -1 0  -4.299999999999137 -1 0  -4.249999999999075 -1 0  -4.199999999999013 -1 0  -4.149999999998934 -1 0  -4.09999999999889 -1 0  -4.049999999998847 -1 0  -3.999999999998767 -1 0  -3.949999999998706 -1 0  -3.899999999998644 -1 0  -3.849999999998594 -1 0  -3.799999999998552 -1 0  -3.749999999998549 -1 0  -3.699999999998651 -1 0  -3.649999999998804 -1 0  -3.59999999999894 -1 0  -3.549999999999097 -1 0  -3.499999999999261 -1 0  -3.449999999999394 -1 0  -3.399999999999582 -1 0  -3.349999999999742 -1 0  -3.299999999999902 -1 0  -3.25000000000006 -1 0  -3.200000000000223 -1 0  -3.150000000000369 -1 0  -3.100000000000544 -1 0  -3.050000000000704 -1 0  -3.000000000000864 -1 0  -2.950000000001029 -1 0  -2.900000000001185 -1 0  -2.850000000001347 -1 0  -2.800000000001506 -1 0  -2.750000000001665 -1 0  -2.700000000001827 -1 0  -2.650000000001979 -1 0  -2.600000000002148 -1 0  -2.550000000002311 -1 0  -2.500000000002468 -1 0  -2.450000000002635 -1 0  -2.400000000002789 -1 0  -2.35000000000295 -1 0  -2.30000000000311 -1 0  -2.250000000003253 -1 0  -2.200000000003431 -1 0  -2.150000000003601 -1 0  -2.100000000003752 -1 0  -2.050000000003922 -1 0  -2.000000000004072 -1 0  -1.950000000004237 -1 0  -1.900000000004393 -1 0  -1.850000000004541 -1 0  -1.800000000004714 -1 0  -1.750000000004886 -1 0  -1.700000000005035 -1 0  -1.650000000005206 -1 0  -1.600000000005355 -1 0  -1.550000000005516 -1 0  -1.500000000005676 -1 0  -1.450000000005824 -1 0  -1.400000000005996 -1 0  -1.350000000006146 -1 0  -1.300000000006318 -1 0  -1.250000000006505 -1 0  -1.200000000006638 -1 0  -1.150000000006797 -1 0  -1.100000000006959 -1 0  -1.050000000007106 -1 0  -1.000000000007245 -1 0  -0.9500000000072193 -1 0  -0.9000000000072612 -1 0  -0.8500000000071966 -1 0  -0.8000000000071381 -1 0  -0.750000000007085 -1 0  -0.700000000007015 -1 0  -0.6500000000069521 -1 0  -0.6000000000068919 -1 0  -0.5500000000068104 -1 0  -0.5000000000067688 -1 0  -0.4500000000067104 -1 0  -0.4000000000066457 -1 0  -0.3500000000065757 -1 0  -0.3000000000065226 -1 0  -0.2500000000064961 -1 0  -0.2000000000063995 -1 0  -0.1500000000063775 -1 0  -0.1000000000062764 -1 0  -0.0500000000062597 -1 0  -6.153300091682468e-12 -1 0  0.04999999999390781 -1 0  0.09999999999396891 -1 0  0.14999999999403 -1 0  0.1999999999940929 -1 0  0.2499999999941318 -1 0  0.299999999994216 -1 0  0.349999999994254 -1 0  0.3999999999943391 -1 0  0.4499999999944038 -1 0  0.4999999999944613 -1 0  0.5499999999945429 -1 0  0.5999999999945853 -1 0  0.6499999999946606 -1 0  0.6999999999947084 -1 0  0.7499999999947651 -1 0  0.7999999999948315 -1 0  0.8499999999948926 -1 0  0.8999999999949537 -1 0  0.9499999999950148 -1 0  0.9999999999950768 -1 0  1.049999999995139 -1 0  1.0999999999952 -1 0  1.149999999995266 -1 0  1.199999999995324 -1 0  1.249999999995385 -1 0  1.299999999995446 -1 0  1.349999999995488 -1 0  1.399999999995569 -1 0  1.449999999995604 -1 0  1.499999999995692 -1 0  1.549999999995753 -1 0  1.599999999995816 -1 0  1.649999999995892 -1 0  1.699999999995939 -1 0  1.749999999996017 -1 0  1.799999999996063 -1 0  1.849999999996111 -1 0  1.899999999996185 -1 0  1.949999999996246 -1 0  1.999999999996308 -1 0  2.049999999996351 -1 0  2.099999999996431 -1 0  2.149999999996504 -1 0  2.199999999996555 -1 0  2.249999999996616 -1 0  2.299999999996677 -1 0  2.349999999996736 -1 0  2.3999999999968 -1 0  2.449999999996847 -1 0  2.499999999996923 -1 0  2.549999999997 -1 0  2.599999999997047 -1 0  2.649999999997093 -1 0  2.69999999999717 -1 0  2.749999999997245 -1 0  2.799999999997293 -1 0  2.849999999997344 -1 0  2.899999999997416 -1 0  2.949999999997469 -1 0  2.999999999997539 -1 0  3.049999999997576 -1 0  3.099999999997662 -1 0  3.149999999997725 -1 0  3.199999999997784 -1 0  3.249999999997829 -1 0  3.299999999997908 -1 0  3.349999999997921 -1 0  3.39999999999803 -1 0  3.4499999999981 -1 0  3.499999999998153 -1 0  3.549999999998214 -1 0  3.599999999998277 -1 0  3.649999999998409 -1 0  3.699999999998401 -1 0  3.749999999998444 -1 0  3.799999999998523 -1 0  3.849999999998602 -1 0  3.899999999998645 -1 0  3.949999999998658 -1 0  3.999999999998769 -1 0  4.049999999998814 -1 0  4.099999999998893 -1 0  4.149999999998883 -1 0  4.199999999999015 -1 0  4.249999999999064 -1 0  4.299999999999137 -1 0  4.349999999999152 -1 0  4.399999999999261 -1 0  4.44999999999933 -1 0  4.499999999999385 -1 0  4.549999999999446 -1 0  4.599999999999508 -1 0  4.649999999999633 -1 0  4.699999999999632 -1 0  4.749999999999723 -1 0  4.799999999999754 -1 0  4.849999999999801 -1 0  4.899999999999876 -1 0  4.949999999999925 -1 0  5 -0.950000000000111 0  5 -0.9000000000002774 0  5 -0.8500000000004283 0  5 -0.8000000000005548 0  5 -0.7500000000006787 0  5 -0.7000000000008322 0  5 -0.6500000000009709 0  5 -0.6000000000011096 0  5 -0.5500000000012484 0  5 -0.500000000001387 0  5 -0.4500000000015256 0  5 -0.4000000000016644 0  5 -0.3500000000018031 0  5 -0.3000000000019418 0  5 -0.2500000000020806 0  5 -0.2000000000022192 0  5 -0.1500000000023578 0  5 -0.1000000000024964 0  5 -0.05000000000262439 0  5 -2.752242878045763e-12 0  5 0.0499999999973757 0  5 0.09999999999750342 0  5 0.1499999999976422 0  5 0.1999999999977808 0  5 0.2499999999979194 0  5 0.2999999999980583 0  5 0.3499999999981969 0  5 0.3999999999983355 0  5 0.4499999999984743 0  5 0.4999999999986129 0  5 0.5499999999987515 0  5 0.5999999999988903 0  5 0.6499999999990291 0  5 0.699999999999168 0  5 0.7499999999993068 0  5 0.7999999999994454 0  5 0.849999999999584 0  5 0.8999999999997226 0  5 0.9499999999998612 0  4.949999999999965 1 0  4.899999999999877 1 0  4.849999999999826 1 0  4.799999999999754 1 0  4.749999999999695 1 0  4.69999999999963 1 0  4.649999999999565 1 0  4.599999999999507 1 0  4.549999999999454 1 0  4.499999999999384 1 0  4.449999999999317 1 0  4.399999999999261 1 0  4.349999999999206 1 0  4.299999999999137 1 0  4.249999999999075 1 0  4.199999999999013 1 0  4.149999999998934 1 0  4.09999999999889 1 0  4.049999999998847 1 0  3.999999999998767 1 0  3.949999999998706 1 0  3.899999999998644 1 0  3.849999999998594 1 0  3.799999999998552 1 0  3.749999999998549 1 0  3.699999999998651 1 0  3.649999999998804 1 0  3.59999999999894 1 0  3.549999999999097 1 0  3.499999999999261 1 0  3.449999999999394 1 0  3.399999999999582 1 0  3.349999999999742 1 0  3.299999999999902 1 0  3.25000000000006 1 0  3.200000000000223 1 0  3.150000000000369 1 0  3.100000000000544 1 0  3.050000000000704 1 0  3.000000000000864 1 0  2.950000000001029 1 0  2.900000000001185 1 0  2.850000000001347 1 0  2.800000000001506 1 0  2.750000000001665 1 0  2.700000000001827 1 0  2.650000000001979 1 0  2.600000000002148 1 0  2.550000000002311 1 0  2.500000000002468 1 0  2.450000000002635 1 0  2.400000000002789 1 0  2.35000000000295 1 0  2.30000000000311 1 0  2.250000000003253 1 0  2.200000000003431 1 0  2.150000000003601 1 0  2.100000000003752 1 0  2.050000000003922 1 0  2.000000000004072 1 0  1.950000000004237 1 0  1.900000000004393 1 0  1.850000000004541 1 0  1.800000000004714 1 0  1.750000000004886 1 0  1.700000000005035 1 0  1.650000000005206 1 0  1.600000000005355 1 0  1.550000000005516 1 0  1.500000000005676 1 0  1.450000000005824 1 0  1.400000000005996 1 0  1.350000000006146 1 0  1.300000000006318 1 0  1.250000000006505 1 0  1.200000000006638 1 0  1.150000000006797 1 0  1.100000000006959 1 0  1.050000000007106 1 0  1.000000000007245 1 0  0.9500000000072193 1 0  0.9000000000072612 1 0  0.8500000000071966 1 0  0.8000000000071381 1 0  0.750000000007085 1 0  0.700000000007015 1 0  0.6500000000069521 1 0  0.6000000000068919 1 0  0.5500000000068104 1 0  0.5000000000067688 1 0  0.4500000000067104 1 0  0.4000000000066457 1 0  0.3500000000065757 1 0  0.3000000000065226 1 0  0.2500000000064961 1 0  0.2000000000063995 1 0  0.1500000000063775 1 0  0.1000000000062764 1 0  0.0500000000062597 1 0  6.153300091682468e-12 1 0  -0.04999999999390781 1 0  -0.09999999999396891 1 0  -0.14999999999403 1 0  -0.1999999999940929 1 0  -0.2499999999941318 1 0  -0.299999999994216 1 0  -0.349999999994254 1 0  -0.3999999999943391 1 0  -0.4499999999944038 1 0  -0.4999999999944613 1 0  -0.5499999999945429 1 0  -0.5999999999945853 1 0  -0.6499999999946606 1 0  -0.6999999999947084 1 0  -0.7499999999947651 1 0  -0.7999999999948315 1 0  -0.8499999999948926 1 0  -0.8999999999949537 1 0  -0.9499999999950148 1 0  -0.9999999999950768 1 0  -1.049999999995139 1 0  -1.0999999999952 1 0  -1.149999999995266 1 0  -1.199999999995324 1 0  -1.249999999995385 1 0  -1.299999999995446 1 0  -1.349999999995488 1 0  -1.399999999995569 1 0  -1.449999999995604 1 0  -1.499999999995692 1 0  -1.549999999995753 1 0  -1.599999999995816 1 0  -1.649999999995892 1 0  -1.699999999995939 1 0  -1.749999999996017 1 0  -1.799999999996063 1 0  -1.849999999996111 1 0  -1.899999999996185 1 0  -1.949999999996246 1 0  -1.999999999996308 1 0  -2.049999999996351 1 0  -2.099999999996431 1 0  -2.149999999996504 1 0  -2.199999999996555 1 0  -2.249999999996616 1 0  -2.299999999996677 1 0  -2.349999999996736 1 0  -2.3999999999968 1 0  -2.449999999996847 1 0  -2.499999999996923 1 0  -2.549999999997 1 0  -2.599999999997047 1 0  -2.649999999997093 1 0  -2.69999999999717 1 0  -2.749999999997245 1 0  -2.799999999997293 1 0  -2.849999999997344 1 0  -2.899999999997416 1 0  -2.949999999997469 1 0  -2.999999999997539 1 0  -3.049999999997576 1 0  -3.099999999997662 1 0  -3.149999999997725 1 0  -3.199999999997784 1 0  -3.249999999997829 1 0  -3.29999
[...]
<PointData  Vectors="(h, u)"> 
<DataArray  type="Float64"  Name="(h, u)"  NumberOfComponents="3" format="ascii">5.0631335327196334e+00 0.0000000000000000e+00 0.0000000000000000e+00  9.4979701979742543e+00 0.0000000000000000e+00 0.0000000000000000e+00  9.5139270054155141e+00 0.0000000000000000e+00 0.0000000000000000e+00  5.0673124251924264e+00 0.0000000000000000e+00 0.0000000000000000e+00  5.0800901945461048e+00 6.4031658723056689e-02 0.0000000000000000e+00  5.0632779719397165e+00 1.5650330399186654e-01 0.0000000000000000e+00  5.0779093935554531e+00 2.1110666158535468e-01 0.0000000000000000e+00  5.0610078988867437e+00 2.5707886415220632e-01 0.0000000000000000e+00  5.0794895130346083e+00 3.5989996006292740e-01 0.0000000000000000e+00  5.0648206407170466e+00 4.4402937382216046e-01 0.0000000000000000e+00  5.0717384527955094e+00 4.7290531202818603e-01 0.0000000000000000e+00  5.0631082801593896e+00 6.0429856034821983e-01 0.0000000000000000e+00  5.0754583165357436e+00 6.3248430193674643e-01 0.0000000000000000e+00  5.0554060903994404e+00 6.9038922161907268e-01 0.0000000000000000e+00  5.0742395477599578e+00 7.8691975975084150e-01 0.0000000000000000e+00  5.0620755174392329e+00 8.7944941056376480e-01 0.0000000000000000e+00  5.0608650666447756e+00 8.3952505032319724e-01 0.0000000000000000e+00  5.0624355900339770e+00 1.0865504653214586e+00 0.0000000000000000e+00  5.0676835521904824e+00 1.0016517463039185e+00 0.0000000000000000e+00  5.0481131011743736e+00 1.1401532527452198e+00 0.0000000000000000e+00  5.0652757469315546e+00 1.2048928437089312e+00 0.0000000000000000e+00  5.0593249864241940e+00 1.3144809451937869e+00 0.0000000000000000e+00  5.0458047938992872e+00 1.2577872334611409e+00 0.0000000000000000e+00  5.0580346892811407e+00 1.4611208009274128e+00 0.0000000000000000e+00  5.0572161169195917e+00 1.5221937726562351e+00 0.0000000000000000e+00  5.0373919491750039e+00 1.4492344806528579e+00 0.0000000000000000e+00  5.0542480481171896e+00 1.6844129891551824e+00 0.0000000000000000e+00  5.0510673009860456e+00 1.7106682675780527e+00 0.0000000000000000e+00  5.0307531205834159e+00 1.6824548379880639e+00 0.0000000000000000e+00  5.0482734172983221e+00 1.9026367256819661e+00 0.0000000000000000e+00  5.0438298358673146e+00 1.8609692128413673e+00 0.0000000000000000e+00  5.0254398372393521e+00 1.9644375162336540e+00 0.0000000000000000e+00  5.0376721815047274e+00 2.0806266247761487e+00 0.0000000000000000e+00  5.0409015728877726e+00 2.0600422154454834e+00 0.0000000000000000e+00  5.0124439008959483e+00 2.1892422549604631e+00 0.0000000000000000e+00  5.0341250658261441e+00 2.2784834243506822e+00 0.0000000000000000e+00  5.0267745401743431e+00 2.2785527812241146e+00 0.0000000000000000e+00  5.0101763811234772e+00 2.3902599777777493e+00 0.0000000000000000e+00  5.0167668983036240e+00 2.4792483076252272e+00 0.0000000000000000e+00  5.0248464026568742e+00 2.5039137450778912e+00 0.0000000000000000e+00  4.9934550811240799e+00 2.5982118746367080e+00 0.0000000000000000e+00  5.0128854023104932e+00 2.6685146253716048e+00 0.0000000000000000e+00  5.0063724979018449e+00 2.7379668887726174e+00 0.0000000000000000e+00  4.9927265580713582e+00 2.7966322279311515e+00 0.0000000000000000e+00  4.9910151826526938e+00 2.8618128071192843e+00 0.0000000000000000e+00  5.0036232383631862e+00 2.9737113128372692e+00 0.0000000000000000e+00  4.9746085281590773e+00 2.9770306935813666e+00 0.0000000000000000e+00  4.9840477976220026e+00 3.0843225048918415e+00 0.0000000000000000e+00  4.9838465436329979e+00 3.1740698439346433e+00 0.0000000000000000e+00  4.9707867214414394e+00 3.1802983628402015e+00 0.0000000000000000e+00  4.9618211415902911e+00 3.2998046603314752e+00 0.0000000000000000e+00  4.9763642352112560e+00 3.3602004735331485e+00 0.0000000000000000e+00  4.9540301826928896e+00 3.4090226966076709e+00 0.0000000000000000e+00  4.9493244671102623e+00 3.4750187264228987e+00 0.0000000000000000e+00  4.9579171285510499e+00 3.5886974847559792e+00 0.0000000000000000e+00  4.9442096402284959e+00 3.5925161019981049e+00 0.0000000000000000e+00  4.9285737030643126e+00 3.6893307260241603e+00 0.0000000000000000e+00  4.9431806312679223e+00 3.7888615653488840e+00 0.0000000000000000e+00  4.9288023585288592e+00 3.7837882263097247e+00 0.0000000000000000e+00  4.9106626542775258e+00 3.9093576001953636e+00 0.0000000000000000e+00  4.9239918308209303e+00 3.9694580275646500e+00 0.0000000000000000e+00  4.9132830627250828e+00 3.9975524276018599e+00 0.0000000000000000e+00  4.8924014145750201e+00 4.1029212882802257e+00 0.0000000000000000e+00  4.9031127251222175e+00 4.1674965710177583e+00 0.0000000000000000e+00  4.8944057270523125e+00 4.1962631496745413e+00 0.0000000000000000e+00  4.8733447718371972e+00 4.3076761570478102e+00 0.0000000000000000e+00  4.8801105880762119e+00 4.3469349348818387e+00 0.0000000000000000e+00  4.8696196222772308e+00 4.4201773081226436e+00 0.0000000000000000e+00  4.8549758167830914e+00 4.4762159555743564e+00 0.0000000000000000e+00  4.8529001501057367e+00 4.5615905642851438e+00 0.0000000000000000e+00  4.8435024810529494e+00 4.6028207864070438e+00 0.0000000000000000e+00  4.8346601254045147e+00 4.6768294649930322e+00 0.0000000000000000e+00  4.8308479679476202e+00 4.7303664259718277e+00 0.0000000000000000e+00  4.8062699090946870e+00 4.8250020460940783e+00 0.0000000000000000e+00  4.8204296000269666e+00 4.8341552221790574e+00 0.0000000000000000e+00  4.8023911061862341e+00 4.9267793770958344e+00 0.0000000000000000e+00  4.7793177999382319e+00 5.0072616835480179e+00 0.0000000000000000e+00  4.7909407175824636e+00 5.0220624889206888e+00 0.0000000000000000e+00  4.7859741753193230e+00 5.0857387928836673e+00 0.0000000000000000e+00  4.7444890709704648e+00 5.2144473229316839e+00 0.0000000000000000e+00  4.7562662412722228e+00 5.1787359528415120e+00 0.0000000000000000e+00  4.7531074522103278e+00 5.3036005983204699e+00 0.0000000000000000e+00  4.7228195894712091e+00 5.3395691136363279e+00 0.0000000000000000e+00  4.7081167099445143e+00 5.4076742347688400e+00 0.0000000000000000e+00  4.7037033008443956e+00 5.4728456881589107e+00 0.0000000000000000e+00  4.7095111638734819e+00 5.5062213283635240e+00 0.0000000000000000e+00  4.6523999743735640e+00 5.5774674742833747e+00 0.0000000000000000e+00  4.6658211853731091e+00 5.6768085087544655e+00 0.0000000000000000e+00  4.6508713996228233e+00 5.6683715418807994e+00 0.0000000000000000e+00  4.6341805128260534e+00 5.7453059646943165e+00 0.0000000000000000e+00  4.6040530791801784e+00 5.8458731255345286e+00 0.0000000000000000e+00  4.6070890264940427e+00 5.8561407282031404e+00 0.0000000000000000e+00  4.5617374305842366e+00 5.9208593685065738e+00 0.0000000000000000e+00  4.5892052585303720e+00 6.0058468251585451e+00 0.0000000000000000e+00  4.5224698518795714e+00 6.0049002872306740e+00 0.0000000000000000e+00  4.5453008818579601e+00 6.1164818202622486e+00 0.0000000000000000e+00  4.5202261410752715e+00 6.0985839701709921e+00 0.0000000000000000e+00  4.5257326438752816e+00 6.1667620541042396e+00 0.0000000000000000e+00  4.4358557328115209e+00 6.2813220168445776e+00 0.0000000000000000e+00  4.5051028692946824e+00 6.2595347142450803e+00 0.0000000000000000e+00  4.4226520766864867e+00 6.3323955154988436e+00 0.0000000000000000e+00  4.4111400276496191e+00 6.4469142152166201e+00 0.0000000000000000e+00  4.4152673007355796e+00 6.3889415942810297e+00 0.0000000000000000e+00  4.4164323963359040e+00 6.4735028611036238e+00 0.0000000000000000e+00  4.2905965084507418e+00 6.6114604708980895e+00 0.0000000000000000e+00  4.3548020381204520e+00 6.5904034843765880e+00 0.0000000000000000e+00  4.3011566422251910e+00 6.6532368416440306e+00 0.0000000000000000e+00  4.2867556318507010e+00 6.6924679013358990e+00 0.0000000000000000e+00  4.2824560620943419e+00 6.7276504981051666e+00 0.0000000000000000e+00  4.2787467948619184e+00 6.7424970009173899e+00 0.0000000000000000e+00  4.2565588845397953e+00 6.7748856359093717e+00 0.0000000000000000e+00  4.1891728589283774e+00 6.9153546386587905e+00 0.0000000000000000e+00  4.1969387640522076e+00 6.8840433901789018e+00 0.0000000000000000e+00  4.1497819371510936e+00 6.9734032319369446e+00 0.0000000000000000e+00  4.2221591014165911e+00 6.8935319757430173e+00 0.0000000000000000e+00  4.0839608249491066e+00 7.0858101110248164e+00 0.0000000000000000e+00  4.0922989483054151e+00 7.0667010626371010e+00 0.0000000000000000e+00  4.0348194168306719e+00 7.2128668434589214e+00 0.0000000000000000e+00  4.0715771227480797e+00 7.0889245601935427e+00 0.0000000000000000e+00  4.0797703982762989e+00 7.1482041549896875e+00 0.0000000000000000e+00  4.0169387316255776e+00 7.2258505594094009e+00 0.0000000000000000e+00  3.9838402208648382e+00 7.2774212445720261e+00 0.0000000000000000e+00  3.9348785183427131e+00 7.3394137549368930e+00 0.0000000000000000e+00  3.9457323574496046e+00 7.3613668930562293e+00 0.0000000000000000e+00  3.8893635594918132e+00 7.4441324844864347e+00 0.0000000000000000e+00  3.9158239097554977e+00 7.3449005843484336e+00 0.0000000000000000e+00  3.8513333792458724e+00 7.5734099598437323e+00 0.0000000000000000e+00  3.8519474259044606e+00 7.4269500596388784e+00 0.0000000000000000e+00  3.7778524444017925e+00 7.6624511314045591e+00 0.0000000000000000e+00  3.8257635436248014e+00 7.5566556366063056e+00 0.0000000000000000e+00  3.7719124099286940e+00 7.6305575625930357e+00 0.0000000000000000e+00  3.6808942328558998e+00 7.7438660729214615e+00 0.0000000000000000e+00  3.9132206105963374e+00 7.4401820873880746e+00 0.0000000000000000e+00  3.9740866926664169e+00 7.2964147749483788e+00 0.0000000000000000e+00  4.0100191806606569e+00 7.2624309754624132e+00 0.0000000000000000e+00  4.0231098763797846e+00 7.2514931384681631e+00 0.0000000000000000e+00  4.0077133849600344e+00 7.2746014277968456e+00 0.0000000000000000e+00  3.9214665851613826e+00 7.3740623306820483e+00 0.0000000000000000e+00  3.9325154041874364e+00 7.3842654183783099e+00 0.0000000000000000e+00  3.9975484845971470e+00 7.3051386014211035e+00 0.0000000000000000e+00  3.9566745117297892e+00 7.2959511852398480e+00 0.0000000000000000e+00  3.9220288878510736e+00 7.4375026546123157e+00 0.0000000000000000e+00  3.9779450350250376e+00 7.2677264293215842e+00 0.0000000000000000e+00  3.9515412455430616e+00 7.3779483427309733e+00 0.0000000000000000e+00  3.9426262547583182e+00 7.3354212582736453e+00 0.0000000000000000e+00  3.9702742749935291e+00 7.3433826993311300e+00 0.0000000000000000e+00  3.9442970560448223e+00 7.3235979736690133e+00 0.0000000000000000e+00  3.9950411710411089e+00 7.3182686995094821e+00 0.0000000000000000e+00  3.9270764880209517e+00 7.3502952368652270e+00 0.0000000000000000e+00  3.9692872192295479e+00 7.3285459836956832e+00 0.0000000000000000e+00  3.9518943894333320e+00 7.3373375077637455e+00 0.0000000000000000e+00  3.9403317334552215e+00 7.3633240034608693e+00 0.0000000000000000e+00  3.9412459554807904e+00 7.3441506068486513e+00 0.0000000000000000e+00  3.9720747598497406e+00 7.3251450532053353e+00 0.0000000000000000e+00  3.9517635729565752e+00 7.3335480800796073e+00 0.0000000000000000e+00  3.9622740790632971e+00 7.3336473578785162e+00 0.0000000000000000e+00  3.9605655131186617e+00 7.3338791646436619e+00 0.0000000000000000e+00  3.9644086247463464e+00 7.3168714636553407e+00 0.0000000000000000e+00  3.9437956507708112e+00 7.3545862488169167e+00 0.0000000000000000e+00  3.9538843075386745e+00 7.3635867362115963e+00 0.0000000000000000e+00  3.9715114000046525e+00 7.2826101635102169e+00 0.0000000000000000e+00  3.9504483061117721e+00 7.3025202182829094e+00 0.0000000000000000e+00  3.9360783072859915e+00 7.5746623904168624e+00 0.0000000000000000e+00  4.0816560364314425e+00 6.9205795199466245e+00 0.0000000000000000e+00  4.0525382233086615e+00 6.8316986607041024e+00 0.0000000000000000e+00  1.0064415449711461e+01 -4.4875607653226096e-01 0.0000000000000000e+00  8.9211422710841326e+00 5.7683632671520968e-01 0.0000000000000000e+00  9.6694266567009741e+00 -1.7879804763073934e-01 0.0000000000000000e+00  9.3981540847147542e+00 1.0861030789110737e-01 0.0000000000000000e+00  9.4752169973234732e+00 4.0402632743094351e-03 0.0000000000000000e+00  9.5030514811411830e+00 -1.1773439114854903e-02 0.0000000000000000e+00  9.4389022716109263e+00 6.5316957375786397e-02 0.0000000000000000e+00  9.4974246021993949e+00 -1.7755485191839563e-02 0.0000000000000000e+00  9.4651510253033670e+00 2.2717245965640578e-02 0.0000000000000000e+00  9.4877399132267328e+00 1.3211734578664047e-02 0.0000000000000000e+00  9.4731161130864106e+00 1.2050534215698109e-02 0.0000000000000000e+00  9.4814954177797652e+00 2.1819164775872906e-02 0.0000000000000000e+00  9.4827521753070094e+00 1.0742048783127466e-02 0.0000000000000000e+00  9.4829342800421514e+00 9.1047445567905717e-03 0.0000000000000000e+00  9.4824163032357198e+00 1.9919685250084081e-02 0.0000000000000000e+00  9.4849600193197130e+00 2.4364364567213751e-02 0.0000000000000000e+00  9.4870966504753067e+00 4.7851308139730681e-03 0.0000000000000000e+00  9.4857680437685481e+00 1.6616703538028608e-02 0.0000000000000000e+00  9.4875892926473870e+00 1.1735683865517059e-02 0.0000000000000000e+00  9.4912986089414844e+00 9.9670131011830605e-03 0.0000000000000000e+00  9.4881978104146238e+00 2.1047060520285564e-02 0.0000000000000000e+00  9.4884429017538334e+00 8.3092342016337344e-03 0.0000000000000000e+00  9.4943192272196679e+00 1.2668091843225869e-02 0.0000000000000000e+00  9.4880419613607163e+00 7.3821722815506832e-03 0.0000000000000000e+00  9.4900628645914580e+00 2.0594441414743668e-02 0.0000000000000000e+00  9.4933474945913670e+00 -1.7048648801537066e-03 0.0000000000000000e+00  9.4902634767846621e+00 2.9332666386199312e-02 0.0000000000000000e+00  9.4897933067480054e+00 -3.9528512998128360e-04 0.0000000000000000e+00  9.4961755507888075e+00 2.7613969168101441e-02 0.0000000000000000e+00  9.4883839953010298e+00 5.5837933079934928e-03 0.0000000000000000e+00  9.4947317606222388e+00 1.5806220364039683e-02 0.0000000000000000e+00  9.4934108497998686e+00 -6.2557176188623542e-04 0.0000000000000000e+00  9.4923740770504885e+00 -6.9637950123226560e-03 0.0000000000000000e+00  9.4911709026225370e+00 3.0037570315313955e-02 0.0000000000000000e+00  9.4983085124857141e+00 -6.7671398283127168e-02 0.0000000000000000e+00  9.4864778260187403e+00 1.5585496703615198e-02 0.0000000000000000e+00  9.4989531411340398e+00 -4.3148039337465985e-02 0.0000000000000000e+00  9.4901435719381766e+00 -1.8947813010343176e-01 0.0000000000000000e+00  9.4867449098773218e+00 0.0000000000000000e+00 -7.4665153754046865e-02  9.4964198872099406e+00 0.0000000000000000e+00 -2.8980671904930550e-02  9.4861567493641523e+00 0.0000000000000000e+00 -4.2289695784818504e-02  9.5012927352687484e+00 0.0000000000000000e+00 -1.0881843055982822e-01  9.4868159814302420e+00 0.0000000000000000e+00 2.3505855938866151e-02  9.4978683563092154e+00 0.0000000000000000e+00 6.2647959272071757e-02  9.4899442334159207e+00 0.0000000000000000e+00 -2.3565470934061906e-02  9.5012326211984899e+00 0.0000000000000000e+00 -1.2309495342578249e-01  9.4903757025410478e+00 0.0000000000000000e+00 -1.0827538287503502e-01  9.4957028157814953e+00 0.0000000000000000e+00 1.3758573456424014e-01  9.4976703676946475e+00 0.0000000000000000e+00 -3.6211795211173535e-02  9.4951008110740727e+00 0.0000000000000000e+00 -9.8672115627012110e-03  9.4986446022354105e+00 0.0000000000000000e+00 -5.7816890324766494e-02  9.4975898334343487e+00 0.0000000000000000e+00 -4.8743358872982138e-02  9.4919703778165427e+00 0.0000000000000000e+00 -8.8597901290230568e-02  9.4975384814667976e+00 0.0000000000000000e+00 -1.8078432382874376e-01  9.5013792274725528e+00 0.0000000000000000e+00 -1.1154079042761497e-01  9.4922380929687407e+00 0.0000000000000000e+00 -2.8540142555597980e-01  9.4950962999708199e+00 0.0000000000000000e+00 5.1109559330969639e-02  9.4990772900159488e+00 0.0000000000000000e+00 6.3350286053547381e-02  9.5028933572788254e+00 0.0000000000000000e+00 -7.4783089966769509e-02  9.4997659556194467e+00 0.0000000000000000e+00 -2.2739019977392433e-01  9.4975292643566700e+00 0.0000000000000000e+00 -3.6592907529741418e-02  9.5018323054864027e+00 0.0000000000000000e+00 2.1179050180313938e-01  9.5031337886160703e+00 0.0000000000000000e+00 -1.5465002846995759e-03  9.5048847125557874e+00 0.0000000000000000e+00 5.3772229587760359e-02  9.5009423788035985e+00 0.0000000000000000e+00 -5.4872287705019064e-03  9.5015154603308023e+00 0.0000000000000000e+00 -1.2579281121183794e-01  9.5051398425500118e+00 0.0000000000000000e+00 -1.1000345411475008e-01  9.5084693773331885e+00 0.0000000000000000e+00 7.7553969487098334e-02  9.4966068694067545e+00 0.0000000000000000e+00 -3.7901979240875752e-02  9.5079151573915599e+00 0.0000000000000000e+00 -1.5654559639714538e-01  9.5098219179370673e+00 0.0000000000000000e+00 -4.0911271784929273e-02  9.5053174391354922e+00 0.0000000000000000e+00 -1.2365150979666809e-01  9.5057874732755216e+00 0.0000000000000000e+00 -1.0912844406261704e-01  9.5147413759080486e+00 0.0000000000000000e+00 -1.3070385362179418e-01  9.5050743158342019e+00 0.0000000000000000e+00 -1.4334857899341460e-01  9.5083076525157963e+00 0.0000000000000000e+00 -2.1346863750189624e-01  9.5064282784091638e+00 0.0000000000000000e+00 6.7031584945024597e-03  9.5028673179817549e+00 -3.6525946701154977e-01 0.0000000000000000e+00  9.5051383619639278e+00 -4.3632061817874340e-01 0.0000000000000000e+00  9.5000246614399462e+00 -2.4508448612605382e-01 0.0000000000000000e+00  9.5110724054404230e+00 6.3236301461838309e-03 0.0000000000000000e+00  9.5167813173980118e+00 -2.3971675107999305e-01 0.0000000000000000e+00  9.4890250135176846e+00 -7.8748401039039739e-01 0.0000000000000000e+00  9.4996843391407975e+00 -3.3029288688632102e-01 0.0000000000000000e+00  9.5152071006045951e+00 -4.9069022749649749e-01 0.0000000000000000e+00  9.4929172669062130e+00 -5.3858612744055279e-01 0.0000000000000000e+00  9.5049160302308540e+00 -3.4109820497618970e-01 0.0000000000000000e+00  9.5104885566961848e+00 -2.1019643067832128e-01 0.0000000000000000e+00  9.5019628561535523e+00 -6.2643407568114470e-02 0.0000000000000000e+00  9.5137439381779298e+00 -6.3935697331394800e-02 0.0000000000000000e+00  9.5034880428990984e+00 1.6578127781043228e-01 0.0000000000000000e+00  9.5126505968446509e+00 7.2060527846610684e-02 0.0000000000000000e+00  9.5000618616080690e+00 1.7475319939230088e-01 0.0000000000000000e+00  9.5169420036124368e+00 7.4033400565328922e-02 0.0000000000000000e+00  9.4972104676873315e+00 3.0007400375739412e-02 0.0000000000000000e+00  9.5286325454943004e+00 -6.7382963660020598e-02 0.0000000000000000e+00  9.4886955154861852e+00 1.1676323016617655e-01 0.0000000000000000e+00  9.5164478228588045e+00 -7.5632989144556101e-02 0.0000000000000000e+00  9.5150190665494261e+00 -8.4626960040404695e-02 0.0000000000000000e+00  9.5041298615064846e+00 -1.6926803677360883e-02 0.0000000000000000e+00  9.5049632247526628e+00 5.1172148389715795e-02 0.0000000000000000e+00  9.5420778534738950e+00 5.4510150878205543e-02 0.0000000000000000e+00  9.4623650807294020e+00 1.5425914241618346e-01 0.0000000000000000e+00  9.5400225367915414e+00 9.1381876491069866e-02 0.0000000000000000e+00  9.4971071417436423e+00 1.6547983547577699e-01 0.0000000000000000e+00  9.5040194196020717e+00 -3.3213632461382023e-02 0.0000000000000000e+00  9.4942712846026591e+00 1.6925087878761130e-03 0.0000000000000000e+00  9.4669215237546105e+00 -6.7666188364383414e-02 0.0000000000000000e+00  9.6152436332557567e+00 -5.6979178606197237e-02 0.0000000000000000e+00  9.2253484733257842e+00 3.0757989762306198e-01 0.0000000000000000e+00  9.8686055534769128e+00 -4.5598747562648704e-03 0.0000000000000000e+00  9.2775268191767033e+00 2.0899972939017605e-01 0.0000000000000000e+00  9.8730535650519737e+00 -3.2461895101710914e-01 0.0000000000000000e+00  8.7715521515826218e+00 6.6369855826727830e-01 0.0000000000000000e+00  1.0119969314311463e+01 -5.9617496073992282e-01 0.0000000000000000e+00  4.3152161581861206e+00 6.4504174804355303e+00 0.0000000000000000e+00  4.0894960593657093e+00 7.0065564375003113e+00 0.0000000000000000e+00  4.0213074080827758e+00 7.5561198593628536e+00 0.0000000000000000e+00  4.0673271521034