<?xml version="1.0"?>
<VTKFile type="UnstructuredGrid"  version="0.1"  >
<UnstructuredGrid>
<Piece  NumberOfPoints="9509" NumberOfCells="18536">
<Points>
<DataArray  type="Float64"  NumberOfComponents="3"  format="ascii">-5 -1 0  5 -1 0  5 1 0  -5 1 0  -4.949999999999965 -1 0  -4.899999999999877 -1 0  -4.849999999999826 -1 0  -4.799999999999754 -1 0  -4.749999999999695 -1 0  -4.69999999999963 -1 0  -4.649999999999565 -1 0  -4.599999999999507 -1 0  -4.549999999999454 -1 0  -4.499999999999384 -1 0  -4.449999999999317 -1 0  -4.399999999999261 -1 0  -4.349999999999206 -1 0  -4.299999999999137 -1 0  -4.249999999999075 -1 0  -4.199999999999013 -1 0  -4.149999999998934 -1 0  -4.09999999999889 -1 0  -4.049999999998847 -1 0  -3.999999999998767 -1 0  -3.949999999998706 -1 0  -3.899999999998644 -1 0  -3.849999999998594 -1 0  -3.799999999998552 -1 0  -3.749999999998549 -1 0  -3.699999999998651 -1 0  -3.649999999998804 -1 0  -3.59999999999894 -1 0  -3.549999999999097 -1 0  -3.499999999999261 -1 0  -3.449999999999394 -1 0  -3.399999999999582 -1 0  -3.349999999999742 -1 0  -3.299999999999902 -1 0  -3.25000000000006 -1 0  -3.200000000000223 -1 0  -3.150000000000369 -1 0  -3.100000000000544 -1 0  -3.050000000000704 -1 0  -3.000000000000864 -1 0  -2.950000000001029 -1 0  -2.900000000001185 -1 0  -2.850000000001347 -1 0  -2.800000000001506 -1 0  -2.750000000001665 -1 0  -2.700000000001827 -1 0  -2.650000000001979 -1 0  -2.600000000002148 -1 0  -2.550000000002311 -1 0  -2.500000000002468 -1 0  -2.450000000002635 -1 0  -2.400000000002789 -1 0  -2.35000000000295 -1 0  -2.30000000000311 -1 0  -2.250000000003253 -1 0  -2.200000000003431 -1 0  -2.150000000003601 -1 0  -2.100000000003752 -1 0  -2.050000000003922 -1 0  -2.000000000004072 -1 0  -1.950000000004237 -1 0  -1.900000000004393 -1 0  -1.850000000004541 -1 0  -1.800000000004714 -1 0  -1.750000000004886 -1 0  -1.700000000005035 -1 0  -1.650000000005206 -1 0  -1.600000000005355 -1 0  -1.550000000005516 -1 0  -1.500000000005676 -1 0  -1.450000000005824 -1 0  -1.400000000005996 -1 0  -1.350000000006146 -1 0  -1.300000000006318 -1 0  -1.250000000006505 -1 0  -1.200000000006638 -1 0  -1.150000000006797 -1 0  -1.100000000006959 -1 0  -1.050000000007106 -1 0  -1.000000000007245 -1 0  -0.9500000000072193 -1 0  -0.9000000000072612 -1 0  -0.8500000000071966 -1 0  -0.8000000000071381 -1 0  -0.750000000007085 -1 0  -0.700000000007015 -1 0  -0.6500000000069521 -1 0  -0.6000000000068919 -1 0  -0.5500000000068104 -1 0  -0.5000000000067688 -1 0  -0.4500000000067104 -1 0  -0.4000000000066457 -1 0  -0.3500000000065757 -1 0  -0.3000000000065226 -1 0  -0.2500000000064961 -1 0  -0.2000000000063995 -1 0  -0.1500000000063775 -1 0  -0.1000000000062764 -1 0  -0.0500000000062597 -1 0  -6.153300091682468e-12 -1 0  0.04999999999390781 -1 0  0.09999999999396891 -1 0  0.14999999999403 -1 0  0.1999999999940929 -1 0  0.2499999999941318 -1 0  0.299999999994216 -1 0  0.349999999994254 -1 0  0.3999999999943391 -1 0  0.4499999999944038 -1 0  0.4999999999944613 -1 0  0.5499999999945429 -1 0  0.5999999999945853 -1 0  0.6499999999946606 -1 0  0.6999999999947084 -1 0  0.7499999999947651 -1 0  0.7999999999948315 -1 0  0.8499999999948926 -1 0  0.8999999999949537 -1 0  0.9499999999950148 -1 0  0.9999999999950768 -1 0  1.049999999995139 -1 0  1.0999999999952 -1 0  1.149999999995266 -1 0  1.199999999995324 -1 0  1.249999999995385 -1 0  1.299999999995446 -1 0  1.349999999995488 -1 0  1.399999999995569 -1 0  1.449999999995604 -1 0  1.499999999995692 -1 0  1.549999999995753 -1 0  1.599999999995816 -1 0  1.649999999995892 -1 0  1.699999999995939 -1 0  1.749999999996017 -1 0  1.799999999996063 -1 0  1.849999999996111 -1 0  1.899999999996185 -1 0  1.949999999996246 -1 0  1.999999999996308 -1 0  2.049999999996351 -1 0  2.099999999996431 -1 0  2.149999999996504 -1 0  2.199999999996555 -1 0  2.249999999996616 -1 0  2.299999999996677 -1 0  2.349999999996736 -1 0  2.3999999999968 -1 0  2.449999999996847 -1 0  2.499999999996923 -1 0  2.549999999997 -1 0  2.599999999997047 -1 0  2.649999999997093 -1 0  2.69999999999717 -1 0  2.749999999997245 -1 0  2.799999999997293 -1 0  2.849999999997344 -1 0  2.899999999997416 -1 0  2.949999999997469 -1 0  2.999999999997539 -1 0  3.049999999997576 -1 0  3.099999999997662 -1 0  3.149999999997725 -1 0  3.199999999997784 -1 0  3.249999999997829 -1 0  3.299999999997908 -1 0  3.349999999997921 -1 0  3.39999999999803 -1 0  3.4499999999981 -1 0  3.499999999998153 -1 0  3.549999999998214 -1 0  3.599999999998277 -1 0  3.649999999998409 -1 0  3.699999999998401 -1 0  3.749999999998444 -1 0  3.799999999998523 -1 0  3.849999999998602 -1 0  3.899999999998645 -1 0  3.949999999998658 -1 0  3.999999999998769 -1 0  4.049999999998814 -1 0  4.099999999998893 -1 0  4.149999999998883 -1 0  4.199999999999015 -1 0  4.249999999999064 -1 0  4.299999999999137 -1 0  4.349999999999152 -1 0  4.399999999999261 -1 0  4.44999999999933 -1 0  4.499999999999385 -1 0  4.549999999999446 -1 0  4.599999999999508 -1 0  4.649999999999633 -1 0  4.699999999999632 -1 0  4.749999999999723 -1 0  4.799999999999754 -1 0  4.849999999999801 -1 0  4.899999999999876 -1 0  4.949999999999925 -1 0  5 -0.950000000000111 0  5 -0.9000000000002774 0  5 -0.8500000000004283 0  5 -0.8000000000005548 0  5 -0.7500000000006787 0  5 -0.7000000000008322 0  5 -0.6500000000009709 0  5 -0.6000000000011096 0  5 -0.5500000000012484 0  5 -0.500000000001387 0  5 -0.4500000000015256 0  5 -0.4000000000016644 0  5 -0.3500000000018031 0  5 -0.3000000000019418 0  5 -0.2500000000020806 0  5 -0.2000000000022192 0  5 -0.1500000000023578 0  5 -0.1000000000024964 0  5 -0.05000000000262439 0  5 -2.752242878045763e-12 0  5 0.0499999999973757 0  5 0.09999999999750342 0  5 0.1499999999976422 0  5 0.1999999999977808 0  5 0.2499999999979194 0  5 0.2999999999980583 0  5 0.3499999999981969 0  5 0.3999999999983355 0  5 0.4499999999984743 0  5 0.4999999999986129 0  5 0.5499999999987515 0  5 0.5999999999988903 0  5 0.6499999999990291 0  5 0.699999999999168 0  5 0.7499999999993068 0  5 0.7999999999994454 0  5 0.849999999999584 0  5 0.8999999999997226 0  5 0.9499999999998612 0  4.949999999999965 1 0  4.899999999999877 1 0  4.849999999999826 1 0  4.799999999999754 1 0  4.749999999999695 1 0  4.69999999999963 1 0  4.649999999999565 1 0  4.599999999999507 1 0  4.549999999999454 1 0  4.499999999999384 1 0  4.449999999999317 1 0  4.399999999999261 1 0  4.349999999999206 1 0  4.299999999999137 1 0  4.249999999999075 1 0  4.199999999999013 1 0  4.149999999998934 1 0  4.09999999999889 1 0  4.049999999998847 1 0  3.999999999998767 1 0  3.949999999998706 1 0  3.899999999998644 1 0  3.849999999998594 1 0  3.799999999998552 1 0  3.749999999998549 1 0  3.699999999998651 1 0  3.649999999998804 1 0  3.59999999999894 1 0  3.549999999999097 1 0  3.499999999999261 1 0  3.449999999999394 1 0  3.399999999999582 1 0  3.349999999999742 1 0  3.299999999999902 1 0  3.25000000000006 1 0  3.200000000000223 1 0  3.150000000000369 1 0  3.100000000000544 1 0  3.050000000000704 1 0  3.000000000000864 1 0  2.950000000001029 1 0  2.900000000001185 1 0  2.850000000001347 1 0  2.800000000001506 1 0  2.750000000001665 1 0  2.700000000001827 1 0  2.650000000001979 1 0  2.600000000002148 1 0  2.550000000002311 1 0  2.500000000002468 1 0  2.450000000002635 1 0  2.400000000002789 1 0  2.35000000000295 1 0  2.30000000000311 1 0  2.250000000003253 1 0  2.200000000003431 1 0  2.150000000003601 1 0  2.100000000003752 1 0  2.050000000003922 1 0  2.000000000004072 1 0  1.950000000004237 1 0  1.900000000004393 1 0  1.850000000004541 1 0  1.800000000004714 1 0  1.750000000004886 1 0  1.700000000005035 1 0  1.650000000005206 1 0  1.600000000005355 1 0  1.550000000005516 1 0  1.500000000005676 1 0  1.450000000005824 1 0  1.400000000005996 1 0  1.350000000006146 1 0  1.300000000006318 1 0  1.250000000006505 1 0  1.200000000006638 1 0  1.150000000006797 1 0  1.100000000006959 1 0  1.050000000007106 1 0  1.000000000007245 1 0  0.9500000000072193 1 0  0.9000000000072612 1 0  0.8500000000071966 1 0  0.8000000000071381 1 0  0.750000000007085 1 0  0.700000000007015 1 0  0.6500000000069521 1 0  0.6000000000068919 1 0  0.5500000000068104 1 0  0.5000000000067688 1 0  0.4500000000067104 1 0  0.4000000000066457 1 0  0.3500000000065757 1 0  0.3000000000065226 1 0  0.2500000000064961 1 0  0.2000000000063995 1 0  0.1500000000063775 1 0  0.1000000000062764 1 0  0.0500000000062597 1 0  6.153300091682468e-12 1 0  -0.04999999999390781 1 0  -0.09999999999396891 1 0  -0.14999999999403 1 0  -0.1999999999940929 1 0  -0.2499999999941318 1 0  -0.299999999994216 1 0  -0.349999999994254 1 0  -0.3999999999943391 1 0  -0.4499999999944038 1 0  -0.4999999999944613 1 0  -0.5499999999945429 1 0  -0.5999999999945853 1 0  -0.6499999999946606 1 0  -0.6999999999947084 1 0  -0.7499999999947651 1 0  -0.7999999999948315 1 0  -0.8499999999948926 1 0  -0.8999999999949537 1 0  -0.9499999999950148 1 0  -0.9999999999950768 1 0  -1.049999999995139 1 0  -1.0999999999952 1 0  -1.149999999995266 1 0  -1.199999999995324 1 0  -1.249999999995385 1 0  -1.299999999995446 1 0  -1.349999999995488 1 0  -1.399999999995569 1 0  -1.449999999995604 1 0  -1.499999999995692 1 0  -1.549999999995753 1 0  -1.599999999995816 1 0  -1.649999999995892 1 0  -1.699999999995939 1 0  -1.749999999996017 1 0  -1.799999999996063 1 0  -1.849999999996111 1 0  -1.899999999996185 1 0  -1.949999999996246 1 0  -1.999999999996308 1 0  -2.049999999996351 1 0  -2.099999999996431 1 0  -2.149999999996504 1 0  -2.199999999996555 1 0  -2.249999999996616 1 0  -2.299999999996677 1 0  -2.349999999996736 1 0  -2.3999999999968 1 0  -2.449999999996847 1 0  -2.499999999996923 1 0  -2.549999999997 1 0  -2.599999999997047 1 0  -2.649999999997093 1 0  -2.69999999999717 1 0  -2.749999999997245 1 0  -2.799999999997293 1 0  -2.849999999997344 1 0  -2.899999999997416 1 0  -2.949999999997469 1 0  -2.999999999997539 1 0  -3.049999999997576 1 0  -3.099999999997662 1 0  -3.149999999997725 1 0  -3.199999999997784 1 0  -3.249999999997829 1 0  -3.29999
[...]
<PointData  Vectors="(h, u)"> 
<DataArray  type="Float64"  Name="(h, u)"  NumberOfComponents="3" format="ascii">9.9644974112393410e+00 0.0000000000000000e+00 0.0000000000000000e+00  9.9999999880448787e-01 0.0000000000000000e+00 0.0000000000000000e+00  9.9999999995680489e-01 0.0000000000000000e+00 0.0000000000000000e+00  9.9759608163387927e+00 0.0000000000000000e+00 0.0000000000000000e+00  1.0013733861828952e+01 -6.9882955661796659e-03 0.0000000000000000e+00  9.9643251048666457e+00 -2.2655504814885694e-02 0.0000000000000000e+00  1.0010867079236402e+01 -1.8845296656056719e-03 0.0000000000000000e+00  9.9574431407478823e+00 1.1521350587649137e-02 0.0000000000000000e+00  1.0019050135743219e+01 -4.3624501288050998e-03 0.0000000000000000e+00  9.9594063078035830e+00 4.5008462552382205e-03 0.0000000000000000e+00  1.0006575329245647e+01 6.5729179682426303e-03 0.0000000000000000e+00  9.9747502503947523e+00 -6.3080220031989723e-02 0.0000000000000000e+00  9.9944685281276708e+00 4.5813641767318468e-02 0.0000000000000000e+00  9.9594663137664003e+00 1.2185823115678193e-02 0.0000000000000000e+00  1.0026077261288922e+01 -4.6416269853761682e-02 0.0000000000000000e+00  9.9487107056921076e+00 2.8561200950242661e-02 0.0000000000000000e+00  9.9955424357207807e+00 1.5397733821737520e-02 0.0000000000000000e+00  9.9963035749198195e+00 -2.4458487667506600e-02 0.0000000000000000e+00  9.9815199751182195e+00 1.5428414224729969e-02 0.0000000000000000e+00  9.9580894612941542e+00 2.1747180344699711e-02 0.0000000000000000e+00  1.0031514903814976e+01 -7.8620209144681773e-03 0.0000000000000000e+00  9.9473894096257052e+00 8.8613392335864533e-03 0.0000000000000000e+00  9.9807841243337059e+00 3.1931245627592468e-02 0.0000000000000000e+00  9.9966762318090066e+00 3.1565883492723984e-03 0.0000000000000000e+00  9.9694198123354756e+00 1.9722644684900325e-02 0.0000000000000000e+00  9.9361586697926079e+00 3.3083524355662128e-02 0.0000000000000000e+00  1.0009127020734450e+01 3.5198934159032962e-02 0.0000000000000000e+00  9.9227411707070008e+00 2.7554430111515697e-02 0.0000000000000000e+00  9.9379352678905128e+00 5.9394960954743642e-02 0.0000000000000000e+00  9.9471257190457933e+00 6.7870759074256617e-02 0.0000000000000000e+00  9.9169657095390757e+00 6.6050224037121658e-02 0.0000000000000000e+00  9.8646609001908132e+00 9.2917427278314355e-02 0.0000000000000000e+00  9.9198591322494671e+00 1.3382975733594257e-01 0.0000000000000000e+00  9.8299245554027799e+00 1.1811957249552259e-01 0.0000000000000000e+00  9.8246401577076448e+00 1.6568451212085672e-01 0.0000000000000000e+00  9.8069124689473721e+00 2.1566451247701462e-01 0.0000000000000000e+00  9.7707056784960749e+00 2.1261455430442011e-01 0.0000000000000000e+00  9.6970739277042686e+00 2.5898580098619606e-01 0.0000000000000000e+00  9.7202349596328972e+00 3.3976383797720400e-01 0.0000000000000000e+00  9.6204663913183701e+00 3.3019073302435320e-01 0.0000000000000000e+00  9.5949309448902760e+00 3.9832699481761236e-01 0.0000000000000000e+00  9.5446958974189258e+00 4.8479866644147745e-01 0.0000000000000000e+00  9.4936604416562052e+00 4.9243242233719464e-01 0.0000000000000000e+00  9.4060536850466114e+00 5.5899645701021317e-01 0.0000000000000000e+00  9.3941239893476798e+00 6.7061411042302321e-01 0.0000000000000000e+00  9.2837844008619594e+00 6.7569047956516604e-01 0.0000000000000000e+00  9.2411273293654634e+00 7.6088897511518316e-01 0.0000000000000000e+00  9.1681429937226113e+00 8.7455111142352304e-01 0.0000000000000000e+00  9.0973907969010295e+00 8.9440817351541313e-01 0.0000000000000000e+00  9.0063517673931752e+00 9.8006473415650419e-01 0.0000000000000000e+00  8.9659896957023530e+00 1.1076774013854478e+00 0.0000000000000000e+00  8.8491456583007864e+00 1.1304682666858563e+00 0.0000000000000000e+00  8.7928085344313516e+00 1.2266424961256932e+00 0.0000000000000000e+00  8.7104281907751577e+00 1.3576489197694452e+00 0.0000000000000000e+00  8.6215759506612564e+00 1.3880141845249685e+00 0.0000000000000000e+00  8.5318372833469098e+00 1.4873002572866520e+00 0.0000000000000000e+00  8.4741295117512969e+00 1.6256413805317600e+00 0.0000000000000000e+00  8.3542428043562715e+00 1.6558624478055217e+00 0.0000000000000000e+00  8.2882194675771927e+00 1.7689877528893041e+00 0.0000000000000000e+00  8.2033941631088414e+00 1.8996373201600922e+00 0.0000000000000000e+00  8.1045378663482666e+00 1.9473295136418929e+00 0.0000000000000000e+00  8.0144160517673679e+00 2.0486387676677631e+00 0.0000000000000000e+00  7.9486948614934292e+00 2.1981198220204843e+00 0.0000000000000000e+00  7.8293199518294072e+00 2.2349911004409093e+00 0.0000000000000000e+00  7.7564556384847396e+00 2.3469899547363933e+00 0.0000000000000000e+00  7.6707467824017348e+00 2.5058798023733995e+00 0.0000000000000000e+00  7.5704818849815503e+00 2.5230214231394608e+00 0.0000000000000000e+00  7.4782000717889163e+00 2.6736342565425364e+00 0.0000000000000000e+00  7.4083269660085467e+00 2.7857627430885690e+00 0.0000000000000000e+00  7.2933154888324925e+00 2.8727172846365052e+00 0.0000000000000000e+00  7.2176470043006473e+00 2.9264638364262843e+00 0.0000000000000000e+00  7.1282093450558985e+00 3.1744767370261568e+00 0.0000000000000000e+00  7.0349651378213958e+00 3.0962046740781592e+00 0.0000000000000000e+00  6.9417267903465287e+00 3.3430831454769319e+00 0.0000000000000000e+00  6.8672991687923588e+00 3.3773998103639049e+00 0.0000000000000000e+00  6.7619200238143957e+00 3.5345710967942998e+00 0.0000000000000000e+00  6.6866655799048793e+00 3.5495773131839328e+00 0.0000000000000000e+00  6.5903951085527641e+00 3.7862586288760602e+00 0.0000000000000000e+00  6.5107037091442166e+00 3.7871786930698366e+00 0.0000000000000000e+00  6.4135990459036556e+00 3.9292046101661793e+00 0.0000000000000000e+00  6.3358283066451691e+00 4.0640241666467292e+00 0.0000000000000000e+00  6.2388456079421148e+00 4.1558757016365675e+00 0.0000000000000000e+00  6.1650839237148274e+00 4.2213185718413948e+00 0.0000000000000000e+00  6.0570107481190822e+00 4.4320024379712946e+00 0.0000000000000000e+00  5.9958023641831621e+00 4.4530619013481907e+00 0.0000000000000000e+00  5.8913245309669895e+00 4.5820113107164273e+00 0.0000000000000000e+00  5.8080913023267220e+00 4.7390452453036280e+00 0.0000000000000000e+00  5.7312064463220480e+00 4.8082741545587240e+00 0.0000000000000000e+00  5.6499717819087865e+00 4.8888452868787375e+00 0.0000000000000000e+00  5.5374544571414308e+00 5.0988145923974022e+00 0.0000000000000000e+00  5.5018657693130866e+00 5.0960755470523784e+00 0.0000000000000000e+00  5.3925691377382821e+00 5.2583071638726606e+00 0.0000000000000000e+00  5.2970782796064819e+00 5.3824024716699643e+00 0.0000000000000000e+00  5.2552804736190071e+00 5.4670810884073120e+00 0.0000000000000000e+00  5.1785388968914869e+00 5.5141921822066911e+00 0.0000000000000000e+00  5.0360921060006874e+00 5.7744476211841693e+00 0.0000000000000000e+00  5.0341989281537813e+00 5.7336186400344271e+00 0.0000000000000000e+00  4.9512050963458405e+00 5.8710579851962059e+00 0.0000000000000000e+00  4.7665575212740743e+00 6.1111054856399587e+00 0.0000000000000000e+00  4.8131392965760122e+00 6.0835106553975207e+00 0.0000000000000000e+00  4.7245147053179384e+00 6.1553123734505402e+00 0.0000000000000000e+00  4.4998947106785119e+00 6.5315576542955442e+00 0.0000000000000000e+00  4.5667515582721920e+00 6.3952467104396753e+00 0.0000000000000000e+00  4.4941804108796655e+00 6.5368911468791779e+00 0.0000000000000000e+00  4.3615952729860306e+00 6.6909299734688092e+00 0.0000000000000000e+00  4.3381505264796347e+00 6.7738982141362571e+00 0.0000000000000000e+00  4.2257629358802840e+00 6.9077532915181576e+00 0.0000000000000000e+00  4.1934418385018271e+00 6.9775527855935211e+00 0.0000000000000000e+00  4.0743875319229623e+00 7.1345606982888592e+00 0.0000000000000000e+00  4.0057938452612243e+00 7.2424727344096578e+00 0.0000000000000000e+00  3.8888028431562400e+00 7.4319834318304574e+00 0.0000000000000000e+00  3.8164919253276732e+00 7.5203876909685023e+00 0.0000000000000000e+00  3.8626288877687038e+00 7.5228781317290503e+00 0.0000000000000000e+00  3.7778984374722628e+00 7.5836689239678705e+00 0.0000000000000000e+00  3.7467763662706797e+00 7.7018461028535583e+00 0.0000000000000000e+00  3.6666595055781386e+00 7.7562981840034766e+00 0.0000000000000000e+00  3.8382356273280362e+00 7.5061197822712309e+00 0.0000000000000000e+00  3.8170674868650138e+00 7.5011718644574117e+00 0.0000000000000000e+00  3.9052663582973639e+00 7.3885653217869862e+00 0.0000000000000000e+00  3.8906206474451062e+00 7.4095084338227251e+00 0.0000000000000000e+00  3.8954090999016953e+00 7.3908366741364713e+00 0.0000000000000000e+00  3.8587993272823438e+00 7.4454777962176664e+00 0.0000000000000000e+00  3.8659957107798451e+00 7.4124307929861608e+00 0.0000000000000000e+00  3.8995300372778106e+00 7.3848126029217367e+00 0.0000000000000000e+00  3.8803947422014762e+00 7.3847430308754065e+00 0.0000000000000000e+00  3.8815807662810462e+00 7.3913431595589305e+00 0.0000000000000000e+00  3.8704491959334013e+00 7.3902411973158086e+00 0.0000000000000000e+00  3.8870131317719570e+00 7.3800855541977093e+00 0.0000000000000000e+00  3.8844662725962555e+00 7.3690585134180244e+00 0.0000000000000000e+00  3.8917927448213554e+00 7.3614461849699993e+00 0.0000000000000000e+00  3.8713816646781130e+00 7.3746630909827884e+00 0.0000000000000000e+00  3.8543911310537680e+00 7.3918988806387507e+00 0.0000000000000000e+00  3.8440186397691560e+00 7.3948292603735801e+00 0.0000000000000000e+00  3.8618958187539616e+00 7.3711344493877196e+00 0.0000000000000000e+00  3.8821412319943849e+00 7.3445322363715713e+00 0.0000000000000000e+00  3.8915738421592359e+00 7.3341185910752769e+00 0.0000000000000000e+00  3.8898859872864815e+00 7.3353440132767735e+00 0.0000000000000000e+00  3.8927611567668108e+00 7.3313886732697444e+00 0.0000000000000000e+00  3.9016203830871112e+00 7.3218975688387076e+00 0.0000000000000000e+00  3.9104949579007302e+00 7.3144700799438036e+00 0.0000000000000000e+00  3.9149917043846161e+00 7.3122542110470166e+00 0.0000000000000000e+00  3.9167882882780924e+00 7.3120482972641954e+00 0.0000000000000000e+00  3.9198325684622168e+00 7.3097662387743805e+00 0.0000000000000000e+00  3.9246072025900141e+00 7.3054285462621209e+00 0.0000000000000000e+00  3.9286407949069422e+00 7.3020905653446624e+00 0.0000000000000000e+00  3.9298662667359632e+00 7.3020493627893028e+00 0.0000000000000000e+00  3.9283108978437751e+00 7.3050468840090836e+00 0.0000000000000000e+00  3.9264971177565049e+00 7.3077098139574757e+00 0.0000000000000000e+00  3.9268581799960360e+00 7.3078587039895773e+00 0.0000000000000000e+00  3.9288256136283848e+00 7.3072538456253362e+00 0.0000000000000000e+00  3.9304615953660642e+00 7.3078937649214559e+00 0.0000000000000000e+00  3.9314539804724369e+00 7.3092830360334942e+00 0.0000000000000000e+00  3.9311520845964636e+00 7.3118647193912878e+00 0.0000000000000000e+00  3.9295396621458676e+00 7.3146793476806797e+00 0.0000000000000000e+00  3.9276466038847042e+00 7.3159724527186922e+00 0.0000000000000000e+00  3.9263607962803384e+00 7.3147566325900319e+00 0.0000000000000000e+00  3.9247054511358375e+00 7.3120999683359997e+00 0.0000000000000000e+00  3.9228474162649380e+00 7.3069371757443022e+00 0.0000000000000000e+00  3.9206089264508006e+00 7.2995011657822628e+00 0.0000000000000000e+00  3.9170772418738258e+00 7.2882110514269947e+00 0.0000000000000000e+00  3.9095357187558184e+00 7.2712624352826740e+00 0.0000000000000000e+00  3.8945180413038631e+00 7.2408311546960951e+00 0.0000000000000000e+00  3.8635975183840876e+00 7.1847598895032716e+00 0.0000000000000000e+00  3.7977957895491801e+00 7.0707331084915728e+00 0.0000000000000000e+00  3.6541317243750870e+00 6.8268979849220006e+00 0.0000000000000000e+00  3.3587543596692071e+00 6.3029805120957985e+00 0.0000000000000000e+00  2.7912446368015322e+00 5.1818584121732574e+00 0.0000000000000000e+00  1.9060134013858907e+00 2.9573186409353966e+00 0.0000000000000000e+00  1.1183977673080707e+00 3.2562521843788600e-01 0.0000000000000000e+00  9.9555468508855183e-01 5.0814407338535149e-03 0.0000000000000000e+00  1.0005278534688835e+00 -2.2107386033689267e-03 0.0000000000000000e+00  1.0000876763672759e+00 -2.6492198185860928e-04 0.0000000000000000e+00  9.9983935496767062e-01 4.5331134252808036e-04 0.0000000000000000e+00  1.0001148385404173e+00 -3.0849914029906940e-04 0.0000000000000000e+00  9.9991950130365137e-01 2.0136244392555863e-04 0.0000000000000000e+00  1.0000607737135725e+00 -1.4297008015915345e-04 0.0000000000000000e+00  9.9995344401979991e-01 1.0369687473817510e-04 0.0000000000000000e+00  1.0000348479563590e+00 -7.3201426451538395e-05 0.0000000000000000e+00  9.9997439151977607e-01 5.0629316974553599e-05 0.0000000000000000e+00  1.0000187371593099e+00 -3.5133764956614122e-05 0.0000000000000000e+00  9.9998636274625685e-01 2.4535556182037008e-05 0.0000000000000000e+00  1.0000096993627288e+00 -1.6768064934305779e-05 0.0000000000000000e+00  9.9999340364839917e-01 1.0767612135056472e-05 0.0000000000000000e+00  1.0000042308059551e+00 -6.2669506001780614e-06 0.0000000000000000e+00  9.9999744201325302e-01 3.2163354996294672e-06 0.0000000000000000e+00  1.0000014777020929e+00 -1.4203461377770699e-06 0.0000000000000000e+00  9.9999916601799799e-01 5.1694633229967117e-07 0.0000000000000000e+00  1.0000004670140679e+00 -1.2397429025654329e-07 0.0000000000000000e+00  9.9999974391765944e-01 -3.6207948767773632e-08 0.0000000000000000e+00  1.0000001300041905e+00 1.0769603385836238e-07 0.0000000000000000e+00  9.9999994597007280e-01 -1.4109111869505198e-07 0.0000000000000000e+00  1.0000000115103709e+00 1.4746271944604786e-07 0.0000000000000000e+00  1.0000000082026466e+00 -1.3217640278974378e-07 0.0000000000000000e+00  9.9999998594448491e-01 1.0463245901520872e-07 0.0000000000000000e+00  1.0000000131945390e+00 -7.5177276452953470e-08 0.0000000000000000e+00  9.9999998971743775e-01 5.0695719966898471e-08 0.0000000000000000e+00  1.0000000074505941e+00 -3.3235954451755175e-08 0.0000000000000000e+00  9.9999999459033651e-01 2.1999777194179534e-08 0.0000000000000000e+00  1.0000000038626979e+00 -1.4617066433123512e-08 0.0000000000000000e+00  9.9999999717211652e-01 1.0054905872838814e-08 0.0000000000000000e+00  1.0000000018007844e+00 -6.3643080875953255e-09 0.0000000000000000e+00  9.9999999859632016e-01 4.9748731940202286e-09 0.0000000000000000e+00  1.0000000005741165e+00 -2.1563934807269578e-09 0.0000000000000000e+00  1.0000000001954350e+00 0.0000000000000000e+00 -9.7397817505653637e-10  1.0000000000590756e+00 0.0000000000000000e+00 -5.9910408921099114e-10  1.0000000001929259e+00 0.0000000000000000e+00 1.5366603945079216e-09  9.9999999864792588e-01 0.0000000000000000e+00 -2.7291568632869686e-09  1.0000000003199234e+00 0.0000000000000000e+00 -1.3614473018466603e-09  1.0000000023232340e+00 0.0000000000000000e+00 -4.3003790377514938e-09  1.0000000005217222e+00 0.0000000000000000e+00 4.3355396833931006e-09  9.9999999891586078e-01 0.0000000000000000e+00 -4.5307704484780760e-09  1.0000000008391481e+00 0.0000000000000000e+00 -1.5818832051105068e-09  1.0000000056884772e+00 0.0000000000000000e+00 -7.0092429371084917e-09  9.9999999976536569e-01 0.0000000000000000e+00 7.8241396697728641e-10  1.0000000023318931e+00 0.0000000000000000e+00 -6.0527353189329322e-09  1.0000000064186298e+00 0.0000000000000000e+00 5.6138296626107582e-09  1.0000000044132760e+00 0.0000000000000000e+00 -2.2841952819063586e-09  9.9999999653558513e-01 0.0000000000000000e+00 8.3866520127326663e-09  1.0000000046173583e+00 0.0000000000000000e+00 -7.1144995009768445e-09  1.0000000019437407e+00 0.0000000000000000e+00 4.0531728005667606e-09  9.9999999952085306e-01 0.0000000000000000e+00 -3.1463422036559815e-09  9.9999999986891197e-01 0.0000000000000000e+00 2.8115343213458075e-09  1.0000000050120017e+00 0.0000000000000000e+00 -8.5478374825216035e-09  9.9999999944332540e-01 0.0000000000000000e+00 7.5754949131236048e-09  1.0000000000624572e+00 0.0000000000000000e+00 -3.1950958160173274e-09  9.9999999985021759e-01 0.0000000000000000e+00 1.1338450017506647e-09  1.0000000017989905e+00 0.0000000000000000e+00 -3.0269652137361332e-09  9.9999999956350238e-01 0.0000000000000000e+00 2.6133853497672558e-09  1.0000000000613456e+00 0.0000000000000000e+00 -7.2061795455330027e-10  9.9999999977480536e-01 0.0000000000000000e+00 3.9629942207461025e-10  1.0000000002052924e+00 0.0000000000000000e+00 -4.6301735115354638e-10  9.9999999969755704e-01 0.0000000000000000e+00 6.3398370192059484e-10  9.9999999992639366e-01 0.0000000000000000e+00 -3.9183444845575983e-10  9.9999999983276600e-01 0.0000000000000000e+00 1.0461698263099035e-10  1.0000000000560056e+00 0.0000000000000000e+00 -2.6978343684205329e-10  9.9999999992697974e-01 0.0000000000000000e+00 1.7250324905280996e-10  9.9999999996761235e-01 0.0000000000000000e+00 -1.1633153892622455e-11  9.9999999990291477e-01 0.0000000000000000e+00 2.1922542429447631e-11  9.9999999993274880e-01 0.0000000000000000e+00 -7.8655501413758195e-11  9.9999999999482581e-01 0.0000000000000000e+00 -2.8370240078424213e-11  9.9999999997599132e-01 0.0000000000000000e+00 -1.1342551029674396e-10  1.0000000000413485e+00 0.0000000000000000e+00 1.4050559752828391e-10  1.0000000000881053e+00 -2.0716245922273114e-10 0.0000000000000000e+00  9.9999999983933474e-01 5.8290309753713991e-10 0.0000000000000000e+00  1.0000000002046967e+00 -6.5074287500348362e-10 0.0000000000000000e+00  9.9999999991228417e-01 5.7568390753151869e-10 0.0000000000000000e+00  9.9999999989943511e-01 2.8862283779660325e-10 0.0000000000000000e+00  1.0000000007730412e+00 -2.6210574169903572e-09 0.0000000000000000e+00  9.9999999900937531e-01 5.1773922034694477e-09 0.0000000000000000e+00  1.0000000005764267e+00 -5.9157797197857871e-09 0.0000000000000000e+00  1.0000000044075752e+00 -9.3332374706431958e-09 0.0000000000000000e+00  9.9999998218909691e-01 4.1932360699114283e-08 0.0000000000000000e+00  1.0000000316975650e+00 -1.0002858190153773e-07 0.0000000000000000e+00  9.9999995398167751e-01 1.4617494700596284e-07 0.0000000000000000e+00  1.0000000313263027e+00 -1.1792870395177342e-07 0.0000000000000000e+00  1.0000000151995576e+00 -4.0036523037634069e-09 0.0000000000000000e+00  9.9999993096176865e-01 1.7169925030131690e-07 0.0000000000000000e+00  1.0000000667197169e+00 -3.1751746013923321e-07 0.0000000000000000e+00  1.0000000083778828e+00 3.8855013785973144e-07 0.0000000000000000e+00  9.9999986150771525e-01 3.9162985856965103e-07 0.0000000000000000e+00  1.0000006644477049e+00 -2.5438388857658309e-06 0.0000000000000000e+00  9.9999864934622307e-01 3.0351922373952873e-06 0.0000000000000000e+00  1.0000004126888271e+00 -4.5799364981532971e-07 0.0000000000000000e+00  1.0000011110557721e+00 -7.2166209891654368e-06 0.0000000000000000e+00  9.9999731937598146e-01 1.4596954447625740e-05 0.0000000000000000e+00  9.9999818688581210e-01 -6.0764704941180409e-06 0.0000000000000000e+00  1.0000160420902460e+00 -3.4842764594242035e-05 0.0000000000000000e+00  9.9996029485824978e-01 8.8823698603015700e-05 0.0000000000000000e+00  1.0000521557455537e+00 -1.3401786561437838e-04 0.0000000000000000e+00  9.9994432648052944e-01 8.6930396393296194e-05 0.0000000000000000e+00  1.0000273855670487e+00 -4.8381551844859668e-05 0.0000000000000000e+00  9.9994945601534269e-01 -2.1752290539213400e-06 0.0000000000000000e+00  1.0001508883039893e+00 -1.9445210616298749e-04 0.0000000000000000e+00  9.9955195321495915e-01 9.9187829759047144e-04 0.0000000000000000e+00  1.0010658682010962e+00 -4.1917476290933443e-03 0.0000000000000000e+00  9.9393579225893713e-01 7.4137332562036219e-04 0.0000000000000000e+00  1.1712005892293396e+00 5.0626951127944952e-01 0.0000000000000000e+00  2.0211701625788994e+00 3.3011079533423566e+00 0.0000000000000000e+00  2.8964566758536821e+00 5.2882017450684211e+00 0.0000000000000000e+00  3.4233313725967487e+00 6.2445700360392671e+00 0.0000000000000000e+00  3.7230031767714968e+00 6.7843455751992670e+00 0.0000000000000000e+00  3.8090663885099887e+00 6.9402509927967815e+00 0.0000000000000000e+00  3.8815917390783605e+00 6.9954646106032818e+00 0.0000000000000000e+00  3.93986785