<?xml version="1.0"?>
<VTKFile type="UnstructuredGrid"  version="0.1"  >
<UnstructuredGrid>
<Piece  NumberOfPoints="9509" NumberOfCells="18536">
<Points>
<DataArray  type="Float64"  NumberOfComponents="3"  format="ascii">-5 -1 0  5 -1 0  5 1 0  -5 1 0  -4.949999999999965 -1 0  -4.899999999999877 -1 0  -4.849999999999826 -1 0  -4.799999999999754 -1 0  -4.749999999999695 -1 0  -4.69999999999963 -1 0  -4.649999999999565 -1 0  -4.599999999999507 -1 0  -4.549999999999454 -1 0  -4.499999999999384 -1 0  -4.449999999999317 -1 0  -4.399999999999261 -1 0  -4.349999999999206 -1 0  -4.299999999999137 -1 0  -4.249999999999075 -1 0  -4.199999999999013 -1 0  -4.149999999998934 -1 0  -4.09999999999889 -1 0  -4.049999999998847 -1 0  -3.999999999998767 -1 0  -3.949999999998706 -1 0  -3.899999999998644 -1 0  -3.849999999998594 -1 0  -3.799999999998552 -1 0  -3.749999999998549 -1 0  -3.699999999998651 -1 0  -3.649999999998804 -1 0  -3.59999999999894 -1 0  -3.549999999999097 -1 0  -3.499999999999261 -1 0  -3.449999999999394 -1 0  -3.399999999999582 -1 0  -3.349999999999742 -1 0  -3.299999999999902 -1 0  -3.25000000000006 -1 0  -3.200000000000223 -1 0  -3.150000000000369 -1 0  -3.100000000000544 -1 0  -3.050000000000704 -1 0  -3.000000000000864 -1 0  -2.950000000001029 -1 0  -2.900000000001185 -1 0  -2.850000000001347 -1 0  -2.800000000001506 -1 0  -2.750000000001665 -1 0  -2.700000000001827 -1 0  -2.650000000001979 -1 0  -2.600000000002148 -1 0  -2.550000000002311 -1 0  -2.500000000002468 -1 0  -2.450000000002635 -1 0  -2.400000000002789 -1 0  -2.35000000000295 -1 0  -2.30000000000311 -1 0  -2.250000000003253 -1 0  -2.200000000003431 -1 0  -2.150000000003601 -1 0  -2.100000000003752 -1 0  -2.050000000003922 -1 0  -2.000000000004072 -1 0  -1.950000000004237 -1 0  -1.900000000004393 -1 0  -1.850000000004541 -1 0  -1.800000000004714 -1 0  -1.750000000004886 -1 0  -1.700000000005035 -1 0  -1.650000000005206 -1 0  -1.600000000005355 -1 0  -1.550000000005516 -1 0  -1.500000000005676 -1 0  -1.450000000005824 -1 0  -1.400000000005996 -1 0  -1.350000000006146 -1 0  -1.300000000006318 -1 0  -1.250000000006505 -1 0  -1.200000000006638 -1 0  -1.150000000006797 -1 0  -1.100000000006959 -1 0  -1.050000000007106 -1 0  -1.000000000007245 -1 0  -0.9500000000072193 -1 0  -0.9000000000072612 -1 0  -0.8500000000071966 -1 0  -0.8000000000071381 -1 0  -0.750000000007085 -1 0  -0.700000000007015 -1 0  -0.6500000000069521 -1 0  -0.6000000000068919 -1 0  -0.5500000000068104 -1 0  -0.5000000000067688 -1 0  -0.4500000000067104 -1 0  -0.4000000000066457 -1 0  -0.3500000000065757 -1 0  -0.3000000000065226 -1 0  -0.2500000000064961 -1 0  -0.2000000000063995 -1 0  -0.1500000000063775 -1 0  -0.1000000000062764 -1 0  -0.0500000000062597 -1 0  -6.153300091682468e-12 -1 0  0.04999999999390781 -1 0  0.09999999999396891 -1 0  0.14999999999403 -1 0  0.1999999999940929 -1 0  0.2499999999941318 -1 0  0.299999999994216 -1 0  0.349999999994254 -1 0  0.3999999999943391 -1 0  0.4499999999944038 -1 0  0.4999999999944613 -1 0  0.5499999999945429 -1 0  0.5999999999945853 -1 0  0.6499999999946606 -1 0  0.6999999999947084 -1 0  0.7499999999947651 -1 0  0.7999999999948315 -1 0  0.8499999999948926 -1 0  0.8999999999949537 -1 0  0.9499999999950148 -1 0  0.9999999999950768 -1 0  1.049999999995139 -1 0  1.0999999999952 -1 0  1.149999999995266 -1 0  1.199999999995324 -1 0  1.249999999995385 -1 0  1.299999999995446 -1 0  1.349999999995488 -1 0  1.399999999995569 -1 0  1.449999999995604 -1 0  1.499999999995692 -1 0  1.549999999995753 -1 0  1.599999999995816 -1 0  1.649999999995892 -1 0  1.699999999995939 -1 0  1.749999999996017 -1 0  1.799999999996063 -1 0  1.849999999996111 -1 0  1.899999999996185 -1 0  1.949999999996246 -1 0  1.999999999996308 -1 0  2.049999999996351 -1 0  2.099999999996431 -1 0  2.149999999996504 -1 0  2.199999999996555 -1 0  2.249999999996616 -1 0  2.299999999996677 -1 0  2.349999999996736 -1 0  2.3999999999968 -1 0  2.449999999996847 -1 0  2.499999999996923 -1 0  2.549999999997 -1 0  2.599999999997047 -1 0  2.649999999997093 -1 0  2.69999999999717 -1 0  2.749999999997245 -1 0  2.799999999997293 -1 0  2.849999999997344 -1 0  2.899999999997416 -1 0  2.949999999997469 -1 0  2.999999999997539 -1 0  3.049999999997576 -1 0  3.099999999997662 -1 0  3.149999999997725 -1 0  3.199999999997784 -1 0  3.249999999997829 -1 0  3.299999999997908 -1 0  3.349999999997921 -1 0  3.39999999999803 -1 0  3.4499999999981 -1 0  3.499999999998153 -1 0  3.549999999998214 -1 0  3.599999999998277 -1 0  3.649999999998409 -1 0  3.699999999998401 -1 0  3.749999999998444 -1 0  3.799999999998523 -1 0  3.849999999998602 -1 0  3.899999999998645 -1 0  3.949999999998658 -1 0  3.999999999998769 -1 0  4.049999999998814 -1 0  4.099999999998893 -1 0  4.149999999998883 -1 0  4.199999999999015 -1 0  4.249999999999064 -1 0  4.299999999999137 -1 0  4.349999999999152 -1 0  4.399999999999261 -1 0  4.44999999999933 -1 0  4.499999999999385 -1 0  4.549999999999446 -1 0  4.599999999999508 -1 0  4.649999999999633 -1 0  4.699999999999632 -1 0  4.749999999999723 -1 0  4.799999999999754 -1 0  4.849999999999801 -1 0  4.899999999999876 -1 0  4.949999999999925 -1 0  5 -0.950000000000111 0  5 -0.9000000000002774 0  5 -0.8500000000004283 0  5 -0.8000000000005548 0  5 -0.7500000000006787 0  5 -0.7000000000008322 0  5 -0.6500000000009709 0  5 -0.6000000000011096 0  5 -0.5500000000012484 0  5 -0.500000000001387 0  5 -0.4500000000015256 0  5 -0.4000000000016644 0  5 -0.3500000000018031 0  5 -0.3000000000019418 0  5 -0.2500000000020806 0  5 -0.2000000000022192 0  5 -0.1500000000023578 0  5 -0.1000000000024964 0  5 -0.05000000000262439 0  5 -2.752242878045763e-12 0  5 0.0499999999973757 0  5 0.09999999999750342 0  5 0.1499999999976422 0  5 0.1999999999977808 0  5 0.2499999999979194 0  5 0.2999999999980583 0  5 0.3499999999981969 0  5 0.3999999999983355 0  5 0.4499999999984743 0  5 0.4999999999986129 0  5 0.5499999999987515 0  5 0.5999999999988903 0  5 0.6499999999990291 0  5 0.699999999999168 0  5 0.7499999999993068 0  5 0.7999999999994454 0  5 0.849999999999584 0  5 0.8999999999997226 0  5 0.9499999999998612 0  4.949999999999965 1 0  4.899999999999877 1 0  4.849999999999826 1 0  4.799999999999754 1 0  4.749999999999695 1 0  4.69999999999963 1 0  4.649999999999565 1 0  4.599999999999507 1 0  4.549999999999454 1 0  4.499999999999384 1 0  4.449999999999317 1 0  4.399999999999261 1 0  4.349999999999206 1 0  4.299999999999137 1 0  4.249999999999075 1 0  4.199999999999013 1 0  4.149999999998934 1 0  4.09999999999889 1 0  4.049999999998847 1 0  3.999999999998767 1 0  3.949999999998706 1 0  3.899999999998644 1 0  3.849999999998594 1 0  3.799999999998552 1 0  3.749999999998549 1 0  3.699999999998651 1 0  3.649999999998804 1 0  3.59999999999894 1 0  3.549999999999097 1 0  3.499999999999261 1 0  3.449999999999394 1 0  3.399999999999582 1 0  3.349999999999742 1 0  3.299999999999902 1 0  3.25000000000006 1 0  3.200000000000223 1 0  3.150000000000369 1 0  3.100000000000544 1 0  3.050000000000704 1 0  3.000000000000864 1 0  2.950000000001029 1 0  2.900000000001185 1 0  2.850000000001347 1 0  2.800000000001506 1 0  2.750000000001665 1 0  2.700000000001827 1 0  2.650000000001979 1 0  2.600000000002148 1 0  2.550000000002311 1 0  2.500000000002468 1 0  2.450000000002635 1 0  2.400000000002789 1 0  2.35000000000295 1 0  2.30000000000311 1 0  2.250000000003253 1 0  2.200000000003431 1 0  2.150000000003601 1 0  2.100000000003752 1 0  2.050000000003922 1 0  2.000000000004072 1 0  1.950000000004237 1 0  1.900000000004393 1 0  1.850000000004541 1 0  1.800000000004714 1 0  1.750000000004886 1 0  1.700000000005035 1 0  1.650000000005206 1 0  1.600000000005355 1 0  1.550000000005516 1 0  1.500000000005676 1 0  1.450000000005824 1 0  1.400000000005996 1 0  1.350000000006146 1 0  1.300000000006318 1 0  1.250000000006505 1 0  1.200000000006638 1 0  1.150000000006797 1 0  1.100000000006959 1 0  1.050000000007106 1 0  1.000000000007245 1 0  0.9500000000072193 1 0  0.9000000000072612 1 0  0.8500000000071966 1 0  0.8000000000071381 1 0  0.750000000007085 1 0  0.700000000007015 1 0  0.6500000000069521 1 0  0.6000000000068919 1 0  0.5500000000068104 1 0  0.5000000000067688 1 0  0.4500000000067104 1 0  0.4000000000066457 1 0  0.3500000000065757 1 0  0.3000000000065226 1 0  0.2500000000064961 1 0  0.2000000000063995 1 0  0.1500000000063775 1 0  0.1000000000062764 1 0  0.0500000000062597 1 0  6.153300091682468e-12 1 0  -0.04999999999390781 1 0  -0.09999999999396891 1 0  -0.14999999999403 1 0  -0.1999999999940929 1 0  -0.2499999999941318 1 0  -0.299999999994216 1 0  -0.349999999994254 1 0  -0.3999999999943391 1 0  -0.4499999999944038 1 0  -0.4999999999944613 1 0  -0.5499999999945429 1 0  -0.5999999999945853 1 0  -0.6499999999946606 1 0  -0.6999999999947084 1 0  -0.7499999999947651 1 0  -0.7999999999948315 1 0  -0.8499999999948926 1 0  -0.8999999999949537 1 0  -0.9499999999950148 1 0  -0.9999999999950768 1 0  -1.049999999995139 1 0  -1.0999999999952 1 0  -1.149999999995266 1 0  -1.199999999995324 1 0  -1.249999999995385 1 0  -1.299999999995446 1 0  -1.349999999995488 1 0  -1.399999999995569 1 0  -1.449999999995604 1 0  -1.499999999995692 1 0  -1.549999999995753 1 0  -1.599999999995816 1 0  -1.649999999995892 1 0  -1.699999999995939 1 0  -1.749999999996017 1 0  -1.799999999996063 1 0  -1.849999999996111 1 0  -1.899999999996185 1 0  -1.949999999996246 1 0  -1.999999999996308 1 0  -2.049999999996351 1 0  -2.099999999996431 1 0  -2.149999999996504 1 0  -2.199999999996555 1 0  -2.249999999996616 1 0  -2.299999999996677 1 0  -2.349999999996736 1 0  -2.3999999999968 1 0  -2.449999999996847 1 0  -2.499999999996923 1 0  -2.549999999997 1 0  -2.599999999997047 1 0  -2.649999999997093 1 0  -2.69999999999717 1 0  -2.749999999997245 1 0  -2.799999999997293 1 0  -2.849999999997344 1 0  -2.899999999997416 1 0  -2.949999999997469 1 0  -2.999999999997539 1 0  -3.049999999997576 1 0  -3.099999999997662 1 0  -3.149999999997725 1 0  -3.199999999997784 1 0  -3.249999999997829 1 0  -3.29999
[...]
<PointData  Vectors="(h, u)"> 
<DataArray  type="Float64"  Name="(h, u)"  NumberOfComponents="3" format="ascii">9.9886095496543117e+00 0.0000000000000000e+00 0.0000000000000000e+00  9.9999999999995770e-01 0.0000000000000000e+00 0.0000000000000000e+00  9.9999999999999400e-01 0.0000000000000000e+00 0.0000000000000000e+00  9.9784606662531861e+00 0.0000000000000000e+00 0.0000000000000000e+00  1.0000961187266986e+01 1.1310832827216252e-02 0.0000000000000000e+00  9.9843278997930884e+00 8.5967341907367267e-03 0.0000000000000000e+00  1.0004817408043222e+01 -1.1988051807248819e-03 0.0000000000000000e+00  1.0001632196312134e+01 1.0473993123810034e-02 0.0000000000000000e+00  9.9851376902390854e+00 -5.3428096322951446e-03 0.0000000000000000e+00  9.9954344542835827e+00 -2.4114830231133501e-03 0.0000000000000000e+00  1.0013069292412876e+01 2.0348399244711733e-02 0.0000000000000000e+00  9.9644083436324902e+00 6.8995002673718445e-03 0.0000000000000000e+00  1.0029748695465450e+01 -3.4113159404108195e-02 0.0000000000000000e+00  9.9985739200044641e+00 6.4490689789489224e-03 0.0000000000000000e+00  9.9606633898779560e+00 9.1311472468727992e-03 0.0000000000000000e+00  1.0017507035173720e+01 -2.9290301144426160e-02 0.0000000000000000e+00  1.0023713579146948e+01 2.0990865955034237e-02 0.0000000000000000e+00  9.9192538930578866e+00 -2.1056816501024412e-02 0.0000000000000000e+00  1.0046928869147713e+01 7.6876585045822718e-03 0.0000000000000000e+00  1.0002233916004171e+01 -2.8234639995803755e-03 0.0000000000000000e+00  9.9328861720273558e+00 -9.2299728189434802e-03 0.0000000000000000e+00  1.0023604120893346e+01 4.4191166766091548e-03 0.0000000000000000e+00  1.0031564251080136e+01 1.1618221626968137e-02 0.0000000000000000e+00  9.9016030420250924e+00 -2.7473323372413143e-02 0.0000000000000000e+00  1.0047410250645083e+01 2.8261833419335084e-02 0.0000000000000000e+00  1.0010497229593684e+01 -3.1836327364332408e-03 0.0000000000000000e+00  9.9245454504697577e+00 -1.0545953016827233e-02 0.0000000000000000e+00  1.0019547632716041e+01 1.3268962725673612e-02 0.0000000000000000e+00  1.0035510140792077e+01 1.9878689675184354e-02 0.0000000000000000e+00  9.9045074449629755e+00 -2.9711113923460243e-02 0.0000000000000000e+00  1.0034615806937532e+01 3.4339826187556141e-02 0.0000000000000000e+00  1.0012927616685568e+01 1.2597157267796363e-03 0.0000000000000000e+00  9.9312086208236661e+00 -1.4717970597260437e-03 0.0000000000000000e+00  1.0003621834154989e+01 8.4700184601629955e-03 0.0000000000000000e+00  1.0028521890544518e+01 3.0629856126567562e-02 0.0000000000000000e+00  9.9164021231965673e+00 -1.6769135254611545e-02 0.0000000000000000e+00  1.0008730374026142e+01 3.4159676370721571e-02 0.0000000000000000e+00  9.9986119077058415e+00 1.2756940950363079e-02 0.0000000000000000e+00  9.9341389238831681e+00 2.7466980057879065e-02 0.0000000000000000e+00  9.9699439859081149e+00 1.6302374288397401e-02 0.0000000000000000e+00  9.9927358526813954e+00 5.6441367001722885e-02 0.0000000000000000e+00  9.9038661690958829e+00 3.2613548467676827e-02 0.0000000000000000e+00  9.9511298320570489e+00 6.7567502977303170e-02 0.0000000000000000e+00  9.9341935729771791e+00 6.5389488771700990e-02 0.0000000000000000e+00  9.8824403687791555e+00 1.1194196668060166e-01 0.0000000000000000e+00  9.8767310675214830e+00 9.4853094911179436e-02 0.0000000000000000e+00  9.8773654608450734e+00 1.5488940386952618e-01 0.0000000000000000e+00  9.7959765583051119e+00 1.7364070620501432e-01 0.0000000000000000e+00  9.7977002173287921e+00 2.0800863183171373e-01 0.0000000000000000e+00  9.7530304655359448e+00 2.3578915988925964e-01 0.0000000000000000e+00  9.6954635566187353e+00 3.2206462893933918e-01 0.0000000000000000e+00  9.6479432290094014e+00 3.2141015159849434e-01 0.0000000000000000e+00  9.6139644861061822e+00 4.0619374184967999e-01 0.0000000000000000e+00  9.5204629720662268e+00 4.7484123353384688e-01 0.0000000000000000e+00  9.4820897054504787e+00 5.2004997583818868e-01 0.0000000000000000e+00  9.4041435322924389e+00 5.8544083419485660e-01 0.0000000000000000e+00  9.3288127520340929e+00 7.0656716584093271e-01 0.0000000000000000e+00  9.2480414625772269e+00 7.3135266199730697e-01 0.0000000000000000e+00  9.1827047992821669e+00 8.3810774813549582e-01 0.0000000000000000e+00  9.0722370294993180e+00 9.5338918177878174e-01 0.0000000000000000e+00  9.0055303177723989e+00 1.0038901527964352e+00 0.0000000000000000e+00  8.9039242736885935e+00 1.1091485091896887e+00 0.0000000000000000e+00  8.8094617147851064e+00 1.2480658801476350e+00 0.0000000000000000e+00  8.7117094187797566e+00 1.3006702252996472e+00 0.0000000000000000e+00  8.6236522562193638e+00 1.4154557781253800e+00 0.0000000000000000e+00  8.5012043938904469e+00 1.5748371971584578e+00 0.0000000000000000e+00  8.4183058812797196e+00 1.6146796136966073e+00 0.0000000000000000e+00  8.3059446149343614e+00 1.7620946316165675e+00 0.0000000000000000e+00  8.1941973680583740e+00 1.9017623179948300e+00 0.0000000000000000e+00  8.0936184295956686e+00 1.9783967958437407e+00 0.0000000000000000e+00  7.9915139822852916e+00 2.0927604671049460e+00 0.0000000000000000e+00  7.8613980706949587e+00 2.2908546076057172e+00 0.0000000000000000e+00  7.7726748366824321e+00 2.3116031303194831e+00 0.0000000000000000e+00  7.6574610459217647e+00 2.4901752221152074e+00 0.0000000000000000e+00  7.5325389728400118e+00 2.6433554969483910e+00 0.0000000000000000e+00  7.4362074581018955e+00 2.7108516450353481e+00 0.0000000000000000e+00  7.3295139667845950e+00 2.8453010956442357e+00 0.0000000000000000e+00  7.1908568665686454e+00 3.0597679780698810e+00 0.0000000000000000e+00  7.1066451225958573e+00 3.0721896665040762e+00 0.0000000000000000e+00  6.9928256039610295e+00 3.2564256067643393e+00 0.0000000000000000e+00  6.8566653745171733e+00 3.4336528576851362e+00 0.0000000000000000e+00  6.7690026509092371e+00 3.4980216148761958e+00 0.0000000000000000e+00  6.6662345462294361e+00 3.6144958071201923e+00 0.0000000000000000e+00  6.5143221322456517e+00 3.8759009058064633e+00 0.0000000000000000e+00  6.4399157197532810e+00 3.8603489191654501e+00 0.0000000000000000e+00  6.3354875837702274e+00 4.0637702834057565e+00 0.0000000000000000e+00  6.1784778668329681e+00 4.2372470740032453e+00 0.0000000000000000e+00  6.1065325997327857e+00 4.3197688175486011e+00 0.0000000000000000e+00  6.0159846131465242e+00 4.4219709877414690e+00 0.0000000000000000e+00  5.8347722375673055e+00 4.7066200665823450e+00 0.0000000000000000e+00  5.7879871087643942e+00 4.6892317362703499e+00 0.0000000000000000e+00  5.6942068590130228e+00 4.8640541715282035e+00 0.0000000000000000e+00  5.5028707393679088e+00 5.1071568358462045e+00 0.0000000000000000e+00  5.4731528350509366e+00 5.1274832104627235e+00 0.0000000000000000e+00  5.3889508684438727e+00 5.2435518964104624e+00 0.0000000000000000e+00  5.1675056423527668e+00 5.5696229753085245e+00 0.0000000000000000e+00  5.1845585965914305e+00 5.5055909181762619e+00 0.0000000000000000e+00  5.0918849101728627e+00 5.6560135389243573e+00 0.0000000000000000e+00  4.8609936723815261e+00 5.9875424893258131e+00 0.0000000000000000e+00  4.8787157727937176e+00 5.9332194669944620e+00 0.0000000000000000e+00  4.8170518875318438e+00 6.0470867258537222e+00 0.0000000000000000e+00  4.5407405933950340e+00 6.4320859661563619e+00 0.0000000000000000e+00  4.5639628474403873e+00 6.3924545994807866e+00 0.0000000000000000e+00  4.4664816136887291e+00 6.5339629996601305e+00 0.0000000000000000e+00  4.3724763405617253e+00 6.7040711420707169e+00 0.0000000000000000e+00  4.2597870354703460e+00 6.8300650764328861e+00 0.0000000000000000e+00  4.1900426064675829e+00 6.9714440851776462e+00 0.0000000000000000e+00  4.0859395330448587e+00 7.1037957405836600e+00 0.0000000000000000e+00  4.0526629197710919e+00 7.1929187102276542e+00 0.0000000000000000e+00  3.8706188364720258e+00 7.4396650367282371e+00 0.0000000000000000e+00  3.7753131699846727e+00 7.5970724477696647e+00 0.0000000000000000e+00  3.6833013815779179e+00 7.7026807683913256e+00 0.0000000000000000e+00  3.6752126706552204e+00 7.7546408494906913e+00 0.0000000000000000e+00  3.7679518994926173e+00 7.6156556369276691e+00 0.0000000000000000e+00  3.8928528392417490e+00 7.3985896724413998e+00 0.0000000000000000e+00  3.8580999915283201e+00 7.4367992593645855e+00 0.0000000000000000e+00  3.8590485532456746e+00 7.4333546136479542e+00 0.0000000000000000e+00  3.8754033793322553e+00 7.4110411401821734e+00 0.0000000000000000e+00  3.8974764612199531e+00 7.3760779718189635e+00 0.0000000000000000e+00  3.9105367516842531e+00 7.3588473660739453e+00 0.0000000000000000e+00  3.9060140764002274e+00 7.3617387532964704e+00 0.0000000000000000e+00  3.8952456533524229e+00 7.3740288218938943e+00 0.0000000000000000e+00  3.8977512022383669e+00 7.3656387054292081e+00 0.0000000000000000e+00  3.9135823529701166e+00 7.3439053213822048e+00 0.0000000000000000e+00  3.9244937160264968e+00 7.3293415644485984e+00 0.0000000000000000e+00  3.9210547196296086e+00 7.3319079677061056e+00 0.0000000000000000e+00  3.9058049639445955e+00 7.3478327170774040e+00 0.0000000000000000e+00  3.8944064559192855e+00 7.3580693104042281e+00 0.0000000000000000e+00  3.8967165464477178e+00 7.3523986331028279e+00 0.0000000000000000e+00  3.9063804098786745e+00 7.3407922077529841e+00 0.0000000000000000e+00  3.9136820727406740e+00 7.3336327818970206e+00 0.0000000000000000e+00  3.9133298280890267e+00 7.3346995283427230e+00 0.0000000000000000e+00  3.9066796964683781e+00 7.3417541520427507e+00 0.0000000000000000e+00  3.9013268171316038e+00 7.3451078297382821e+00 0.0000000000000000e+00  3.9014045111726778e+00 7.3414303116505222e+00 0.0000000000000000e+00  3.9039377179006962e+00 7.3362321818248226e+00 0.0000000000000000e+00  3.9071702834721029e+00 7.3306440638231818e+00 0.0000000000000000e+00  3.9105683247833825e+00 7.3249827584384635e+00 0.0000000000000000e+00  3.9126497754090424e+00 7.3221600373295193e+00 0.0000000000000000e+00  3.9138209526015482e+00 7.3211930569013211e+00 0.0000000000000000e+00  3.9151052781339821e+00 7.3208995220643880e+00 0.0000000000000000e+00  3.9161532562737587e+00 7.3225292939543234e+00 0.0000000000000000e+00  3.9169729520112750e+00 7.3250630494668583e+00 0.0000000000000000e+00  3.9179210228656935e+00 7.3271507887511493e+00 0.0000000000000000e+00  3.9188344370431283e+00 7.3286514169521366e+00 0.0000000000000000e+00  3.9193370379865256e+00 7.3280821246635579e+00 0.0000000000000000e+00  3.9186224861653853e+00 7.3242541971779600e+00 0.0000000000000000e+00  3.9156647577815749e+00 7.3151581016091507e+00 0.0000000000000000e+00  3.9078406874931093e+00 7.2954515581738990e+00 0.0000000000000000e+00  3.8884185575297816e+00 7.2557883856827070e+00 0.0000000000000000e+00  3.8443706069213546e+00 7.1764065638307137e+00 0.0000000000000000e+00  3.7509950136355141e+00 7.0134287856798512e+00 0.0000000000000000e+00  3.5511290573060541e+00 6.6653045371983506e+00 0.0000000000000000e+00  3.1452700646980385e+00 5.9150201834213769e+00 0.0000000000000000e+00  2.4320579142626069e+00 4.3720252507283996e+00 0.0000000000000000e+00  1.4588366084862601e+00 1.5303959123676212e+00 0.0000000000000000e+00  1.0135158086704070e+00 2.5874099977178027e-02 0.0000000000000000e+00  1.0005926857456837e+00 -1.1089969642064763e-03 0.0000000000000000e+00  9.9950688629416595e-01 1.5924162725316146e-03 0.0000000000000000e+00  1.0002081055017318e+00 -6.6165528824473866e-04 0.0000000000000000e+00  9.9991347830857646e-01 2.7829987207745851e-04 0.0000000000000000e+00  1.0000658204028463e+00 -2.0921400671706863e-04 0.0000000000000000e+00  9.9993503252158000e-01 2.0320119609220776e-04 0.0000000000000000e+00  1.0000587737399740e+00 -1.8117892756883516e-04 0.0000000000000000e+00  9.9995158770068826e-01 1.4680912254917239e-04 0.0000000000000000e+00  1.0000389224592499e+00 -1.1574438879002551e-04 0.0000000000000000e+00  9.9996787305842549e-01 9.3661124768006402e-05 0.0000000000000000e+00  1.0000272038196552e+00 -7.7931895179977138e-05 0.0000000000000000e+00  9.9997715597096326e-01 6.4418182247820261e-05 0.0000000000000000e+00  1.0000184617968635e+00 -5.1190081557446095e-05 0.0000000000000000e+00  9.9998578913532410e-01 3.8619890051662679e-05 0.0000000000000000e+00  1.0000104890410717e+00 -2.7831323093487865e-05 0.0000000000000000e+00  9.9999245981289442e-01 1.9488960384398584e-05 0.0000000000000000e+00  1.0000053577063577e+00 -1.3497617883679346e-05 0.0000000000000000e+00  9.9999621491955537e-01 9.3227342576790585e-06 0.0000000000000000e+00  1.0000026458432227e+00 -6.3897847435614291e-06 0.0000000000000000e+00  9.9999818882540037e-01 4.2910219771685736e-06 0.0000000000000000e+00  1.0000012038520181e+00 -2.7914500651640977e-06 0.0000000000000000e+00  9.9999922469307811e-01 1.7526754336613929e-06 0.0000000000000000e+00  1.0000004861824781e+00 -1.0682498959471629e-06 0.0000000000000000e+00  9.9999970031137386e-01 6.4022288010689176e-07 0.0000000000000000e+00  1.0000001832882124e+00 -3.8255964374418587e-07 0.0000000000000000e+00  9.9999988829569542e-01 2.2955432775679343e-07 0.0000000000000000e+00  1.0000000676806868e+00 -1.3786237493746118e-07 0.0000000000000000e+00  9.9999995947921627e-01 8.2048060759038930e-08 0.0000000000000000e+00  1.0000000238606961e+00 -4.7987093869021411e-08 0.0000000000000000e+00  9.9999998617181429e-01 2.7569262661529616e-08 0.0000000000000000e+00  1.0000000079385063e+00 -1.5693817841740863e-08 0.0000000000000000e+00  9.9999999544512630e-01 8.9665146204209462e-09 0.0000000000000000e+00  1.0000000026265226e+00 -5.1825520668094957e-09 0.0000000000000000e+00  9.9999999848108334e-01 3.0181664186120388e-09 0.0000000000000000e+00  1.0000000008732302e+00 -1.7462739122307577e-09 0.0000000000000000e+00  9.9999999950589902e-01 9.8847327867785181e-10 0.0000000000000000e+00  1.0000000002736229e+00 -5.4275082902248044e-10 0.0000000000000000e+00  9.9999999985152221e-01 2.8957981287135735e-10 0.0000000000000000e+00  1.0000000000795040e+00 -1.5175607906885324e-10 0.0000000000000000e+00  9.9999999995773714e-01 7.8962793525006812e-11 0.0000000000000000e+00  1.0000000000224232e+00 -4.1157079101784617e-11 0.0000000000000000e+00  9.9999999998837352e-01 2.0717661886038427e-11 0.0000000000000000e+00  1.0000000000059084e+00 -1.0191987372216823e-11 0.0000000000000000e+00  9.9999999999725375e-01 4.2503795428618627e-12 0.0000000000000000e+00  1.0000000000012299e+00 -1.6988977962273053e-12 0.0000000000000000e+00  9.9999999999931921e-01 3.4917116142390449e-13 0.0000000000000000e+00  1.0000000000002174e+00 0.0000000000000000e+00 -1.5008854499319638e-13  1.0000000000018499e+00 0.0000000000000000e+00 -2.3022865432435491e-12  1.0000000000005245e+00 0.0000000000000000e+00 2.2419240628431936e-12  9.9999999999912403e-01 0.0000000000000000e+00 -2.4160312142801816e-12  1.0000000000005373e+00 0.0000000000000000e+00 -9.3562409655228652e-13  1.0000000000038323e+00 0.0000000000000000e+00 -5.3937598708507548e-12  1.0000000000008682e+00 0.0000000000000000e+00 4.3034337238303744e-12  9.9999999999919476e-01 0.0000000000000000e+00 -3.8492678350915919e-12  1.0000000000010774e+00 0.0000000000000000e+00 -1.0997361285005172e-12  1.0000000000068048e+00 0.0000000000000000e+00 -7.8390728338813147e-12  1.0000000000002369e+00 0.0000000000000000e+00 -3.8613335867472881e-14  1.0000000000031448e+00 0.0000000000000000e+00 -5.1684276871318989e-12  1.0000000000077245e+00 0.0000000000000000e+00 5.0943080438137077e-12  1.0000000000058156e+00 0.0000000000000000e+00 -2.9029832832798704e-12  9.9999999999666300e-01 0.0000000000000000e+00 8.3408554491159037e-12  1.0000000000049705e+00 0.0000000000000000e+00 -5.9490200689983718e-12  1.0000000000026210e+00 0.0000000000000000e+00 2.5272519285149191e-12  9.9999999999988420e-01 0.0000000000000000e+00 -2.1552318228828289e-12  9.9999999999995803e-01 0.0000000000000000e+00 3.3284885146225112e-12  1.0000000000051403e+00 0.0000000000000000e+00 -8.0988062885547306e-12  9.9999999999966205e-01 0.0000000000000000e+00 6.1937190233487001e-12  1.0000000000004179e+00 0.0000000000000000e+00 -2.0386701368541665e-12  9.9999999999990263e-01 0.0000000000000000e+00 1.1677985695923743e-12  1.0000000000014004e+00 0.0000000000000000e+00 -2.3000457379586063e-12  9.9999999999976374e-01 0.0000000000000000e+00 1.7641347169412417e-12  1.0000000000001472e+00 0.0000000000000000e+00 -4.2791314434784962e-13  9.9999999999984790e-01 0.0000000000000000e+00 3.3331323537156995e-13  1.0000000000001183e+00 0.0000000000000000e+00 -3.1444956599661406e-13  9.9999999999988054e-01 0.0000000000000000e+00 2.8475922336825987e-13  1.0000000000000075e+00 0.0000000000000000e+00 -1.6752294560691047e-13  9.9999999999993094e-01 0.0000000000000000e+00 7.4658983585430194e-14  1.0000000000000213e+00 0.0000000000000000e+00 -9.4275232212607509e-14  9.9999999999998057e-01 0.0000000000000000e+00 4.5750256950854261e-14  9.9999999999999223e-01 0.0000000000000000e+00 -8.8547412644559374e-15  9.9999999999997691e-01 0.0000000000000000e+00 6.0424276749058205e-15  9.9999999999999112e-01 0.0000000000000000e+00 -2.3236108446937701e-14  1.0000000000000024e+00 0.0000000000000000e+00 -7.4109666743135747e-15  1.0000000000000018e+00 0.0000000000000000e+00 -1.3658730421391791e-14  1.0000000000000118e+00 0.0000000000000000e+00 2.5692502911291975e-14  1.0000000000000169e+00 -3.8090823022201350e-14 0.0000000000000000e+00  9.9999999999996880e-01 1.1901926153604894e-13 0.0000000000000000e+00  1.0000000000000391e+00 -1.3680797962936971e-13 0.0000000000000000e+00  1.0000000000000135e+00 9.5205926223108336e-14 0.0000000000000000e+00  9.9999999999985867e-01 3.6241469490238482e-13 0.0000000000000000e+00  1.0000000000004776e+00 -1.4552660012782675e-12 0.0000000000000000e+00  9.9999999999934519e-01 2.4811314019811900e-12 0.0000000000000000e+00  1.0000000000005824e+00 -2.6257626039349230e-12 0.0000000000000000e+00  1.0000000000013680e+00 -3.5801826525292733e-12 0.0000000000000000e+00  9.9999999999322420e-01 1.7382453666485579e-11 0.0000000000000000e+00  1.0000000000115943e+00 -3.9987362539930129e-11 0.0000000000000000e+00  9.9999999998623246e-01 4.7921903065983604e-11 0.0000000000000000e+00  9.9999999999459210e-01 2.0450060176537913e-12 0.0000000000000000e+00  1.0000000000515967e+00 -1.3082084972473836e-10 0.0000000000000000e+00  9.9999999989647048e-01 2.8300875720869582e-10 0.0000000000000000e+00  1.0000000000890332e+00 -3.4871117737526752e-10 0.0000000000000000e+00  1.0000000000247569e+00 1.7356329929574335e-10 0.0000000000000000e+00  9.9999999976875076e-01 8.5787114819760024e-10 0.0000000000000000e+00  1.0000000007065237e+00 -2.8735461331492687e-09 0.0000000000000000e+00  9.9999999904127301e-01 2.2663775427890681e-09 0.0000000000000000e+00  9.9999999851421895e-01 4.0229290043858840e-09 0.0000000000000000e+00  1.0000000053895304e+00 -1.7293473767154038e-08 0.0000000000000000e+00  9.9999999195832090e-01 2.6989779391007860e-08 0.0000000000000000e+00  9.9999999907832238e-01 -1.9610242146147574e-10 0.0000000000000000e+00  1.0000000323020795e+00 -9.6275823968393473e-08 0.0000000000000000e+00  9.9999992184578257e-01 2.0091924118067472e-07 0.0000000000000000e+00  1.0000000680134271e+00 -1.5628588564135964e-07 0.0000000000000000e+00  1.0000000234241089e+00 -4.1804624937074295e-07 0.0000000000000000e+00  9.9999971239083274e-01 9.1313158306862046e-07 0.0000000000000000e+00  9.9999984816970500e-01 -1.0647075314132564e-06 0.0000000000000000e+00  1.0000010630443541e+00 -1.5185091425955786e-06 0.0000000000000000e+00  9.9999621167099251e-01 9.2457079445958346e-06 0.0000000000000000e+00  1.0000072718163913e+00 -1.8094924873713287e-05 0.0000000000000000e+00  9.9999016575150201e-01 2.3426855174101837e-05 0.0000000000000000e+00  1.0000091543438614e+00 -2.7174447815777910e-05 0.0000000000000000e+00  9.9998594961292264e-01 4.6656173455619160e-05 0.0000000000000000e+00  1.0000342769812578e+00 -7.8734672386545512e-05 0.0000000000000000e+00  9.9996747921073670e-01 3.1041404376644572e-05 0.0000000000000000e+00  1.0000110579072192e+00 -1.8779977304571025e-06 0.0000000000000000e+00  9.9994850629162146e-01 1.7449173623364307e-05 0.0000000000000000e+00  1.0001483305380530e+00 -2.2133697466009635e-04 0.0000000000000000e+