<?xml version="1.0"?>
<VTKFile type="UnstructuredGrid"  version="0.1"  >
<UnstructuredGrid>
<Piece  NumberOfPoints="9509" NumberOfCells="18536">
<Points>
<DataArray  type="Float64"  NumberOfComponents="3"  format="ascii">-5 -1 0  5 -1 0  5 1 0  -5 1 0  -4.949999999999965 -1 0  -4.899999999999877 -1 0  -4.849999999999826 -1 0  -4.799999999999754 -1 0  -4.749999999999695 -1 0  -4.69999999999963 -1 0  -4.649999999999565 -1 0  -4.599999999999507 -1 0  -4.549999999999454 -1 0  -4.499999999999384 -1 0  -4.449999999999317 -1 0  -4.399999999999261 -1 0  -4.349999999999206 -1 0  -4.299999999999137 -1 0  -4.249999999999075 -1 0  -4.199999999999013 -1 0  -4.149999999998934 -1 0  -4.09999999999889 -1 0  -4.049999999998847 -1 0  -3.999999999998767 -1 0  -3.949999999998706 -1 0  -3.899999999998644 -1 0  -3.849999999998594 -1 0  -3.799999999998552 -1 0  -3.749999999998549 -1 0  -3.699999999998651 -1 0  -3.649999999998804 -1 0  -3.59999999999894 -1 0  -3.549999999999097 -1 0  -3.499999999999261 -1 0  -3.449999999999394 -1 0  -3.399999999999582 -1 0  -3.349999999999742 -1 0  -3.299999999999902 -1 0  -3.25000000000006 -1 0  -3.200000000000223 -1 0  -3.150000000000369 -1 0  -3.100000000000544 -1 0  -3.050000000000704 -1 0  -3.000000000000864 -1 0  -2.950000000001029 -1 0  -2.900000000001185 -1 0  -2.850000000001347 -1 0  -2.800000000001506 -1 0  -2.750000000001665 -1 0  -2.700000000001827 -1 0  -2.650000000001979 -1 0  -2.600000000002148 -1 0  -2.550000000002311 -1 0  -2.500000000002468 -1 0  -2.450000000002635 -1 0  -2.400000000002789 -1 0  -2.35000000000295 -1 0  -2.30000000000311 -1 0  -2.250000000003253 -1 0  -2.200000000003431 -1 0  -2.150000000003601 -1 0  -2.100000000003752 -1 0  -2.050000000003922 -1 0  -2.000000000004072 -1 0  -1.950000000004237 -1 0  -1.900000000004393 -1 0  -1.850000000004541 -1 0  -1.800000000004714 -1 0  -1.750000000004886 -1 0  -1.700000000005035 -1 0  -1.650000000005206 -1 0  -1.600000000005355 -1 0  -1.550000000005516 -1 0  -1.500000000005676 -1 0  -1.450000000005824 -1 0  -1.400000000005996 -1 0  -1.350000000006146 -1 0  -1.300000000006318 -1 0  -1.250000000006505 -1 0  -1.200000000006638 -1 0  -1.150000000006797 -1 0  -1.100000000006959 -1 0  -1.050000000007106 -1 0  -1.000000000007245 -1 0  -0.9500000000072193 -1 0  -0.9000000000072612 -1 0  -0.8500000000071966 -1 0  -0.8000000000071381 -1 0  -0.750000000007085 -1 0  -0.700000000007015 -1 0  -0.6500000000069521 -1 0  -0.6000000000068919 -1 0  -0.5500000000068104 -1 0  -0.5000000000067688 -1 0  -0.4500000000067104 -1 0  -0.4000000000066457 -1 0  -0.3500000000065757 -1 0  -0.3000000000065226 -1 0  -0.2500000000064961 -1 0  -0.2000000000063995 -1 0  -0.1500000000063775 -1 0  -0.1000000000062764 -1 0  -0.0500000000062597 -1 0  -6.153300091682468e-12 -1 0  0.04999999999390781 -1 0  0.09999999999396891 -1 0  0.14999999999403 -1 0  0.1999999999940929 -1 0  0.2499999999941318 -1 0  0.299999999994216 -1 0  0.349999999994254 -1 0  0.3999999999943391 -1 0  0.4499999999944038 -1 0  0.4999999999944613 -1 0  0.5499999999945429 -1 0  0.5999999999945853 -1 0  0.6499999999946606 -1 0  0.6999999999947084 -1 0  0.7499999999947651 -1 0  0.7999999999948315 -1 0  0.8499999999948926 -1 0  0.8999999999949537 -1 0  0.9499999999950148 -1 0  0.9999999999950768 -1 0  1.049999999995139 -1 0  1.0999999999952 -1 0  1.149999999995266 -1 0  1.199999999995324 -1 0  1.249999999995385 -1 0  1.299999999995446 -1 0  1.349999999995488 -1 0  1.399999999995569 -1 0  1.449999999995604 -1 0  1.499999999995692 -1 0  1.549999999995753 -1 0  1.599999999995816 -1 0  1.649999999995892 -1 0  1.699999999995939 -1 0  1.749999999996017 -1 0  1.799999999996063 -1 0  1.849999999996111 -1 0  1.899999999996185 -1 0  1.949999999996246 -1 0  1.999999999996308 -1 0  2.049999999996351 -1 0  2.099999999996431 -1 0  2.149999999996504 -1 0  2.199999999996555 -1 0  2.249999999996616 -1 0  2.299999999996677 -1 0  2.349999999996736 -1 0  2.3999999999968 -1 0  2.449999999996847 -1 0  2.499999999996923 -1 0  2.549999999997 -1 0  2.599999999997047 -1 0  2.649999999997093 -1 0  2.69999999999717 -1 0  2.749999999997245 -1 0  2.799999999997293 -1 0  2.849999999997344 -1 0  2.899999999997416 -1 0  2.949999999997469 -1 0  2.999999999997539 -1 0  3.049999999997576 -1 0  3.099999999997662 -1 0  3.149999999997725 -1 0  3.199999999997784 -1 0  3.249999999997829 -1 0  3.299999999997908 -1 0  3.349999999997921 -1 0  3.39999999999803 -1 0  3.4499999999981 -1 0  3.499999999998153 -1 0  3.549999999998214 -1 0  3.599999999998277 -1 0  3.649999999998409 -1 0  3.699999999998401 -1 0  3.749999999998444 -1 0  3.799999999998523 -1 0  3.849999999998602 -1 0  3.899999999998645 -1 0  3.949999999998658 -1 0  3.999999999998769 -1 0  4.049999999998814 -1 0  4.099999999998893 -1 0  4.149999999998883 -1 0  4.199999999999015 -1 0  4.249999999999064 -1 0  4.299999999999137 -1 0  4.349999999999152 -1 0  4.399999999999261 -1 0  4.44999999999933 -1 0  4.499999999999385 -1 0  4.549999999999446 -1 0  4.599999999999508 -1 0  4.649999999999633 -1 0  4.699999999999632 -1 0  4.749999999999723 -1 0  4.799999999999754 -1 0  4.849999999999801 -1 0  4.899999999999876 -1 0  4.949999999999925 -1 0  5 -0.950000000000111 0  5 -0.9000000000002774 0  5 -0.8500000000004283 0  5 -0.8000000000005548 0  5 -0.7500000000006787 0  5 -0.7000000000008322 0  5 -0.6500000000009709 0  5 -0.6000000000011096 0  5 -0.5500000000012484 0  5 -0.500000000001387 0  5 -0.4500000000015256 0  5 -0.4000000000016644 0  5 -0.3500000000018031 0  5 -0.3000000000019418 0  5 -0.2500000000020806 0  5 -0.2000000000022192 0  5 -0.1500000000023578 0  5 -0.1000000000024964 0  5 -0.05000000000262439 0  5 -2.752242878045763e-12 0  5 0.0499999999973757 0  5 0.09999999999750342 0  5 0.1499999999976422 0  5 0.1999999999977808 0  5 0.2499999999979194 0  5 0.2999999999980583 0  5 0.3499999999981969 0  5 0.3999999999983355 0  5 0.4499999999984743 0  5 0.4999999999986129 0  5 0.5499999999987515 0  5 0.5999999999988903 0  5 0.6499999999990291 0  5 0.699999999999168 0  5 0.7499999999993068 0  5 0.7999999999994454 0  5 0.849999999999584 0  5 0.8999999999997226 0  5 0.9499999999998612 0  4.949999999999965 1 0  4.899999999999877 1 0  4.849999999999826 1 0  4.799999999999754 1 0  4.749999999999695 1 0  4.69999999999963 1 0  4.649999999999565 1 0  4.599999999999507 1 0  4.549999999999454 1 0  4.499999999999384 1 0  4.449999999999317 1 0  4.399999999999261 1 0  4.349999999999206 1 0  4.299999999999137 1 0  4.249999999999075 1 0  4.199999999999013 1 0  4.149999999998934 1 0  4.09999999999889 1 0  4.049999999998847 1 0  3.999999999998767 1 0  3.949999999998706 1 0  3.899999999998644 1 0  3.849999999998594 1 0  3.799999999998552 1 0  3.749999999998549 1 0  3.699999999998651 1 0  3.649999999998804 1 0  3.59999999999894 1 0  3.549999999999097 1 0  3.499999999999261 1 0  3.449999999999394 1 0  3.399999999999582 1 0  3.349999999999742 1 0  3.299999999999902 1 0  3.25000000000006 1 0  3.200000000000223 1 0  3.150000000000369 1 0  3.100000000000544 1 0  3.050000000000704 1 0  3.000000000000864 1 0  2.950000000001029 1 0  2.900000000001185 1 0  2.850000000001347 1 0  2.800000000001506 1 0  2.750000000001665 1 0  2.700000000001827 1 0  2.650000000001979 1 0  2.600000000002148 1 0  2.550000000002311 1 0  2.500000000002468 1 0  2.450000000002635 1 0  2.400000000002789 1 0  2.35000000000295 1 0  2.30000000000311 1 0  2.250000000003253 1 0  2.200000000003431 1 0  2.150000000003601 1 0  2.100000000003752 1 0  2.050000000003922 1 0  2.000000000004072 1 0  1.950000000004237 1 0  1.900000000004393 1 0  1.850000000004541 1 0  1.800000000004714 1 0  1.750000000004886 1 0  1.700000000005035 1 0  1.650000000005206 1 0  1.600000000005355 1 0  1.550000000005516 1 0  1.500000000005676 1 0  1.450000000005824 1 0  1.400000000005996 1 0  1.350000000006146 1 0  1.300000000006318 1 0  1.250000000006505 1 0  1.200000000006638 1 0  1.150000000006797 1 0  1.100000000006959 1 0  1.050000000007106 1 0  1.000000000007245 1 0  0.9500000000072193 1 0  0.9000000000072612 1 0  0.8500000000071966 1 0  0.8000000000071381 1 0  0.750000000007085 1 0  0.700000000007015 1 0  0.6500000000069521 1 0  0.6000000000068919 1 0  0.5500000000068104 1 0  0.5000000000067688 1 0  0.4500000000067104 1 0  0.4000000000066457 1 0  0.3500000000065757 1 0  0.3000000000065226 1 0  0.2500000000064961 1 0  0.2000000000063995 1 0  0.1500000000063775 1 0  0.1000000000062764 1 0  0.0500000000062597 1 0  6.153300091682468e-12 1 0  -0.04999999999390781 1 0  -0.09999999999396891 1 0  -0.14999999999403 1 0  -0.1999999999940929 1 0  -0.2499999999941318 1 0  -0.299999999994216 1 0  -0.349999999994254 1 0  -0.3999999999943391 1 0  -0.4499999999944038 1 0  -0.4999999999944613 1 0  -0.5499999999945429 1 0  -0.5999999999945853 1 0  -0.6499999999946606 1 0  -0.6999999999947084 1 0  -0.7499999999947651 1 0  -0.7999999999948315 1 0  -0.8499999999948926 1 0  -0.8999999999949537 1 0  -0.9499999999950148 1 0  -0.9999999999950768 1 0  -1.049999999995139 1 0  -1.0999999999952 1 0  -1.149999999995266 1 0  -1.199999999995324 1 0  -1.249999999995385 1 0  -1.299999999995446 1 0  -1.349999999995488 1 0  -1.399999999995569 1 0  -1.449999999995604 1 0  -1.499999999995692 1 0  -1.549999999995753 1 0  -1.599999999995816 1 0  -1.649999999995892 1 0  -1.699999999995939 1 0  -1.749999999996017 1 0  -1.799999999996063 1 0  -1.849999999996111 1 0  -1.899999999996185 1 0  -1.949999999996246 1 0  -1.999999999996308 1 0  -2.049999999996351 1 0  -2.099999999996431 1 0  -2.149999999996504 1 0  -2.199999999996555 1 0  -2.249999999996616 1 0  -2.299999999996677 1 0  -2.349999999996736 1 0  -2.3999999999968 1 0  -2.449999999996847 1 0  -2.499999999996923 1 0  -2.549999999997 1 0  -2.599999999997047 1 0  -2.649999999997093 1 0  -2.69999999999717 1 0  -2.749999999997245 1 0  -2.799999999997293 1 0  -2.849999999997344 1 0  -2.899999999997416 1 0  -2.949999999997469 1 0  -2.999999999997539 1 0  -3.049999999997576 1 0  -3.099999999997662 1 0  -3.149999999997725 1 0  -3.199999999997784 1 0  -3.249999999997829 1 0  -3.29999
[...]
<PointData  Vectors="(h, u)"> 
<DataArray  type="Float64"  Name="(h, u)"  NumberOfComponents="3" format="ascii">4.8959055136367571e+00 0.0000000000000000e+00 0.0000000000000000e+00  9.5049858193981525e+00 0.0000000000000000e+00 0.0000000000000000e+00  9.5083108659449955e+00 0.0000000000000000e+00 0.0000000000000000e+00  4.8980362066711178e+00 0.0000000000000000e+00 0.0000000000000000e+00  4.9123500595919252e+00 5.9794017383165303e-02 0.0000000000000000e+00  4.8958110637307399e+00 1.5524725109441703e-01 0.0000000000000000e+00  4.9119011093344422e+00 2.1093427782527061e-01 0.0000000000000000e+00  4.8938135447845239e+00 2.3762430535254384e-01 0.0000000000000000e+00  4.9121125435180524e+00 3.5015153745896466e-01 0.0000000000000000e+00  4.8986998836665876e+00 4.4079102486510457e-01 0.0000000000000000e+00  4.9047985472699036e+00 4.4475921377368338e-01 0.0000000000000000e+00  4.9001243405887882e+00 6.0410518918727041e-01 0.0000000000000000e+00  4.9058747114749970e+00 6.1035310933785514e-01 0.0000000000000000e+00  4.8925988305142001e+00 6.6668340249354463e-01 0.0000000000000000e+00  4.9080229889871827e+00 7.6911762744647438e-01 0.0000000000000000e+00  4.8973832309183107e+00 8.6231985363585750e-01 0.0000000000000000e+00  4.8928216611404460e+00 7.9926296040877887e-01 0.0000000000000000e+00  4.9038904083091959e+00 1.0657348491912999e+00 0.0000000000000000e+00  4.8961889754647112e+00 9.8254223417984354e-01 0.0000000000000000e+00  4.8887102619062199e+00 1.0930111622478413e+00 0.0000000000000000e+00  4.8997441727511299e+00 1.1743155188076932e+00 0.0000000000000000e+00  4.8971172892291452e+00 1.2974325932368735e+00 0.0000000000000000e+00  4.8778020194884038e+00 1.2023355833432539e+00 0.0000000000000000e+00  4.9036625985373723e+00 1.4289607370982742e+00 0.0000000000000000e+00  4.8849608932138047e+00 1.4802583995898826e+00 0.0000000000000000e+00  4.8811767592848785e+00 1.4246672693389220e+00 0.0000000000000000e+00  4.8895854892134061e+00 1.6168599527930485e+00 0.0000000000000000e+00  4.8907781187083614e+00 1.6705866730243975e+00 0.0000000000000000e+00  4.8641699364680910e+00 1.6512186773217654e+00 0.0000000000000000e+00  4.8951810149013033e+00 1.8383572256849969e+00 0.0000000000000000e+00  4.8739652381360807e+00 1.8068195717604099e+00 0.0000000000000000e+00  4.8699691539300343e+00 1.9241978670690694e+00 0.0000000000000000e+00  4.8752145785529661e+00 2.0139809284457231e+00 0.0000000000000000e+00  4.8818924533469508e+00 2.0167620534030277e+00 0.0000000000000000e+00  4.8488936370706304e+00 2.1240241962560478e+00 0.0000000000000000e+00  4.8809279616617420e+00 2.2105495146899301e+00 0.0000000000000000e+00  4.8615793914415066e+00 2.2377662858956699e+00 0.0000000000000000e+00  4.8551472842195018e+00 2.3155986223880185e+00 0.0000000000000000e+00  4.8584345585064561e+00 2.4051542747679804e+00 0.0000000000000000e+00  4.8669923883040820e+00 2.4511455081922988e+00 0.0000000000000000e+00  4.8359890274458790e+00 2.5272112711478951e+00 0.0000000000000000e+00  4.8593436588315155e+00 2.5853477216354914e+00 0.0000000000000000e+00  4.8484397664606025e+00 2.6766139859523288e+00 0.0000000000000000e+00  4.8383913572807984e+00 2.7238226763019306e+00 0.0000000000000000e+00  4.8391119599586991e+00 2.7789991318885248e+00 0.0000000000000000e+00  4.8466616578363739e+00 2.8953329033565769e+00 0.0000000000000000e+00  4.8241842529836623e+00 2.9122917080184902e+00 0.0000000000000000e+00  4.8316149623975955e+00 2.9893662719684855e+00 0.0000000000000000e+00  4.8319829670836656e+00 3.0969782626139577e+00 0.0000000000000000e+00  4.8186742245086931e+00 3.1016295175805584e+00 0.0000000000000000e+00  4.8167015660571231e+00 3.2146514633204393e+00 0.0000000000000000e+00  4.8204448427336724e+00 3.2621927089632150e+00 0.0000000000000000e+00  4.8100857408450182e+00 3.3412782601773601e+00 0.0000000000000000e+00  4.8010118142343909e+00 3.3765945366227634e+00 0.0000000000000000e+00  4.8093879297625843e+00 3.4926527015333755e+00 0.0000000000000000e+00  4.7967105149258700e+00 3.5132765718384156e+00 0.0000000000000000e+00  4.7895706469639414e+00 3.5969556933206550e+00 0.0000000000000000e+00  4.7909179758762317e+00 3.6778951760590726e+00 0.0000000000000000e+00  4.7900206943037151e+00 3.7112847647936338e+00 0.0000000000000000e+00  4.7692182608384801e+00 3.8016891206550101e+00 0.0000000000000000e+00  4.7803497502431629e+00 3.8668689422347242e+00 0.0000000000000000e+00  4.7730039165361973e+00 3.9099838112317213e+00 0.0000000000000000e+00  4.7582207489562807e+00 3.9971547322738745e+00 0.0000000000000000e+00  4.7582161880071299e+00 4.0690876321571752e+00 0.0000000000000000e+00  4.7618385847125611e+00 4.0914684501268423e+00 0.0000000000000000e+00  4.7376936435080035e+00 4.2161132736952496e+00 0.0000000000000000e+00  4.7419053500908888e+00 4.2367178040457496e+00 0.0000000000000000e+00  4.7386977552025460e+00 4.3195415370841284e+00 0.0000000000000000e+00  4.7249058545058995e+00 4.3767862871129459e+00 0.0000000000000000e+00  4.7177544356731209e+00 4.4592420111423561e+00 0.0000000000000000e+00  4.7205042711442644e+00 4.4861553812399997e+00 0.0000000000000000e+00  4.7066270228340512e+00 4.5903550941433222e+00 0.0000000000000000e+00  4.7004120623570307e+00 4.6164667246298512e+00 0.0000000000000000e+00  4.6910860723451062e+00 4.7158755397356407e+00 0.0000000000000000e+00  4.6971220645467886e+00 4.7346912581201082e+00 0.0000000000000000e+00  4.6814276201089919e+00 4.8198223277422185e+00 0.0000000000000000e+00  4.6641199424481599e+00 4.8951794212184261e+00 0.0000000000000000e+00  4.6808835653344083e+00 4.9215393578926809e+00 0.0000000000000000e+00  4.6636113131789942e+00 4.9793107682948179e+00 0.0000000000000000e+00  4.6344968599101062e+00 5.1144000190652781e+00 0.0000000000000000e+00  4.6459595735865689e+00 5.0765826471480056e+00 0.0000000000000000e+00  4.6491835250009617e+00 5.1905192483103084e+00 0.0000000000000000e+00  4.6017340265923963e+00 5.2568467666926173e+00 0.0000000000000000e+00  4.6143515960025860e+00 5.3032448910103716e+00 0.0000000000000000e+00  4.6003732364626035e+00 5.3569704986604858e+00 0.0000000000000000e+00  4.6062078848246744e+00 5.4292456130732933e+00 0.0000000000000000e+00  4.5519584829913127e+00 5.4727545697218574e+00 0.0000000000000000e+00  4.5775890865272038e+00 5.5782220602226369e+00 0.0000000000000000e+00  4.5540882855336777e+00 5.5740784347883983e+00 0.0000000000000000e+00  4.5443638826518873e+00 5.6558327848135308e+00 0.0000000000000000e+00  4.5121751486645376e+00 5.7584824582169727e+00 0.0000000000000000e+00  4.5259907203822660e+00 5.7596188431827473e+00 0.0000000000000000e+00  4.4771599297705293e+00 5.8392710897040452e+00 0.0000000000000000e+00  4.5129312929577301e+00 5.9137884674661976e+00 0.0000000000000000e+00  4.4449181674879661e+00 5.9223700070496008e+00 0.0000000000000000e+00  4.4765207083144336e+00 6.0269991683005610e+00 0.0000000000000000e+00  4.4478813602748968e+00 6.0241804942054182e+00 0.0000000000000000e+00  4.4653263638036709e+00 6.0755222461803413e+00 0.0000000000000000e+00  4.3697043415095065e+00 6.2055265325614188e+00 0.0000000000000000e+00  4.4486714110626906e+00 6.1970435917732365e+00 0.0000000000000000e+00  4.3675597543731000e+00 6.2302571018590287e+00 0.0000000000000000e+00  4.3578597101708061e+00 6.3968578172557731e+00 0.0000000000000000e+00  4.3624841197359272e+00 6.3236981194361235e+00 0.0000000000000000e+00  4.3730093379181323e+00 6.3791289846543533e+00 0.0000000000000000e+00  4.2427700483771957e+00 6.5821855228370092e+00 0.0000000000000000e+00  4.3173167632773417e+00 6.5078707155050965e+00 0.0000000000000000e+00  4.2653017934566906e+00 6.5849181338885696e+00 0.0000000000000000e+00  4.2473170237353299e+00 6.6554516229442564e+00 0.0000000000000000e+00  4.2687906240009328e+00 6.6394761355655056e+00 0.0000000000000000e+00  4.2446753224269189e+00 6.6899562283367713e+00 0.0000000000000000e+00  4.2361623887488085e+00 6.7331752890466330e+00 0.0000000000000000e+00  4.1556326842529892e+00 6.8575689752751634e+00 0.0000000000000000e+00  4.1852396865609744e+00 6.8415660096312889e+00 0.0000000000000000e+00  4.1243739000644588e+00 6.9213585521166188e+00 0.0000000000000000e+00  4.2083162384569972e+00 6.8568000050135716e+00 0.0000000000000000e+00  4.0743621214232517e+00 7.0356342153095541e+00 0.0000000000000000e+00  4.0706824123685701e+00 7.0307705103343459e+00 0.0000000000000000e+00  4.0292743903982728e+00 7.1781419628291241e+00 0.0000000000000000e+00  4.0619135620911502e+00 7.0565978109519030e+00 0.0000000000000000e+00  4.0775874467829958e+00 7.0914790167989494e+00 0.0000000000000000e+00  4.0213409078173417e+00 7.2081672377560979e+00 0.0000000000000000e+00  3.9756651529092051e+00 7.2176311764288341e+00 0.0000000000000000e+00  3.9369903445486840e+00 7.3351408965068083e+00 0.0000000000000000e+00  3.9557904670818185e+00 7.2892060478643570e+00 0.0000000000000000e+00  3.8922634063982078e+00 7.4309065597739883e+00 0.0000000000000000e+00  3.9018695490906872e+00 7.3368281870832295e+00 0.0000000000000000e+00  3.8757630325570807e+00 7.5033132339893758e+00 0.0000000000000000e+00  3.8776041456020778e+00 7.3979696394984300e+00 0.0000000000000000e+00  3.7893019878842855e+00 7.5963639016379307e+00 0.0000000000000000e+00  3.8276277685018472e+00 7.5514635917995951e+00 0.0000000000000000e+00  3.7665327199900465e+00 7.6062327518429242e+00 0.0000000000000000e+00  3.7066328279249272e+00 7.7166437533566725e+00 0.0000000000000000e+00  3.8012355541834442e+00 7.5971182623094133e+00 0.0000000000000000e+00  3.9296720672057717e+00 7.3674719822365731e+00 0.0000000000000000e+00  4.0025052881424541e+00 7.2569167551709626e+00 0.0000000000000000e+00  4.0255714844466022e+00 7.2501775523736534e+00 0.0000000000000000e+00  4.0152397102591513e+00 7.2434572579086280e+00 0.0000000000000000e+00  3.9188030012541808e+00 7.3911498603049033e+00 0.0000000000000000e+00  3.9381862120422184e+00 7.3522698614511386e+00 0.0000000000000000e+00  3.9779229707037311e+00 7.3358251082840740e+00 0.0000000000000000e+00  3.9476087649532006e+00 7.3017927449332536e+00 0.0000000000000000e+00  3.9285140757185188e+00 7.4188109099967745e+00 0.0000000000000000e+00  3.9683565268572187e+00 7.2812728459398359e+00 0.0000000000000000e+00  3.9478705704189152e+00 7.3728731618207668e+00 0.0000000000000000e+00  3.9400852715407417e+00 7.3400655233822771e+00 0.0000000000000000e+00  3.9517815583216853e+00 7.3537266775127241e+00 0.0000000000000000e+00  3.9518041773169723e+00 7.3157281322480596e+00 0.0000000000000000e+00  3.9840059596565620e+00 7.3267423665986797e+00 0.0000000000000000e+00  3.9123692975301525e+00 7.3585757642662575e+00 0.0000000000000000e+00  3.9738830143465296e+00 7.3243631872106016e+00 0.0000000000000000e+00  3.9488477427277289e+00 7.3321382682127050e+00 0.0000000000000000e+00  3.9388527055863687e+00 7.3647638671050775e+00 0.0000000000000000e+00  3.9348610771667292e+00 7.3463972511021920e+00 0.0000000000000000e+00  3.9765966867436822e+00 7.3203457996217987e+00 0.0000000000000000e+00  3.9477803238177729e+00 7.3308793993959496e+00 0.0000000000000000e+00  3.9665546156447853e+00 7.3369224020660440e+00 0.0000000000000000e+00  3.9424349961157623e+00 7.3241143184406790e+00 0.0000000000000000e+00  3.9721036829837666e+00 7.3246650919661835e+00 0.0000000000000000e+00  3.9486175188504400e+00 7.3890671617872705e+00 0.0000000000000000e+00  3.9412512045814161e+00 7.2814570986035871e+00 0.0000000000000000e+00  3.9915447498870225e+00 7.1628946901319273e+00 0.0000000000000000e+00  3.5601743061513549e+00 8.4428530022200849e+00 0.0000000000000000e+00  7.6376083469821694e+00 1.6485505870741746e+00 0.0000000000000000e+00  9.2838696777003626e+00 1.6531833270905644e-01 0.0000000000000000e+00  9.6404444645985699e+00 -1.4869548676299660e-01 0.0000000000000000e+00  9.2763940001133349e+00 2.2991280279905102e-01 0.0000000000000000e+00  9.6156238955034627e+00 -1.4357001876376194e-01 0.0000000000000000e+00  9.4116469505942213e+00 1.0588594613256647e-01 0.0000000000000000e+00  9.5113211402280644e+00 -1.4959236991700538e-02 0.0000000000000000e+00  9.4719679534339196e+00 1.9615587484169021e-02 0.0000000000000000e+00  9.4773017992190187e+00 1.5231312756865262e-02 0.0000000000000000e+00  9.5007626452376588e+00 9.4825231983844752e-03 0.0000000000000000e+00  9.4752446216720010e+00 6.9034204728461186e-03 0.0000000000000000e+00  9.4939117717580075e+00 9.2530151302981922e-03 0.0000000000000000e+00  9.4798217102214259e+00 1.6546751370694054e-02 0.0000000000000000e+00  9.4984823822162205e+00 3.2921475968450067e-04 0.0000000000000000e+00  9.4826722990480210e+00 2.2762579449887011e-02 0.0000000000000000e+00  9.4924541156546312e+00 6.6509279978480239e-03 0.0000000000000000e+00  9.4865192047683085e+00 6.6606133656056396e-03 0.0000000000000000e+00  9.4964926064956572e+00 1.4326067250696364e-02 0.0000000000000000e+00  9.4851929896967224e+00 2.3101712080062363e-02 0.0000000000000000e+00  9.4944237881128632e+00 3.9881517835653284e-05 0.0000000000000000e+00  9.4911511984222567e+00 1.1893926177283260e-02 0.0000000000000000e+00  9.4947987605718893e+00 7.5435948177081623e-03 0.0000000000000000e+00  9.4894437792500810e+00 5.3133604373868989e-03 0.0000000000000000e+00  9.4991265396585085e+00 1.2982653784152585e-02 0.0000000000000000e+00  9.4941153024825873e+00 5.1460828281216673e-03 0.0000000000000000e+00  9.4967893132053636e+00 6.8314071897589822e-03 0.0000000000000000e+00  9.4981558353799205e+00 2.7197674840785391e-03 0.0000000000000000e+00  9.5025859324452249e+00 1.7940111628760389e-02 0.0000000000000000e+00  9.4953160613185812e+00 -4.2515660566245644e-03 0.0000000000000000e+00  9.5046772362632552e+00 2.7180211054155679e-02 0.0000000000000000e+00  9.4992714704936443e+00 3.4985082689039380e-04 0.0000000000000000e+00  9.5010323114307855e+00 2.5873905526480979e-02 0.0000000000000000e+00  9.4992212356110937e+00 7.6891800631554178e-03 0.0000000000000000e+00  9.5042436513257922e+00 1.4483393063578235e-02 0.0000000000000000e+00  9.4938449802190998e+00 2.0999959599211897e-03 0.0000000000000000e+00  9.5058630340501562e+00 -7.2154179301916156e-03 0.0000000000000000e+00  9.4952040034304233e+00 3.0010887708431869e-02 0.0000000000000000e+00  9.5017740911897839e+00 -6.8225904498797604e-02 0.0000000000000000e+00  9.4979498781736265e+00 1.6654087994660224e-02 0.0000000000000000e+00  9.5020550414528522e+00 -5.2117957739395281e-02 0.0000000000000000e+00  9.4948829206863419e+00 -1.8800537949518714e-01 0.0000000000000000e+00  9.4996982307799076e+00 0.0000000000000000e+00 -6.9622793958921292e-02  9.5033754137877686e+00 0.0000000000000000e+00 -3.1145893474678086e-02  9.5001709292512846e+00 0.0000000000000000e+00 -4.1148533868241424e-02  9.4989682869514169e+00 0.0000000000000000e+00 -1.0556580552884108e-01  9.5005174228593106e+00 0.0000000000000000e+00 3.1646580517357137e-02  9.4960843014527292e+00 0.0000000000000000e+00 5.9958479147825608e-02  9.4991075346095251e+00 0.0000000000000000e+00 -1.9773371797548931e-02  9.4932707128011202e+00 0.0000000000000000e+00 -1.2532699978594267e-01  9.4970448165440668e+00 0.0000000000000000e+00 -1.0171527297180262e-01  9.4948254770893676e+00 0.0000000000000000e+00 1.3686007775033310e-01  9.4933144086014476e+00 0.0000000000000000e+00 -3.2852558040263394e-02  9.4921262959932307e+00 0.0000000000000000e+00 -1.5633683965669661e-02  9.4958207988697065e+00 0.0000000000000000e+00 -5.1768773726258155e-02  9.4931677192957515e+00 0.0000000000000000e+00 -4.7610897997695356e-02  9.4930241641859272e+00 0.0000000000000000e+00 -9.3736154643561526e-02  9.4954735260927912e+00 0.0000000000000000e+00 -1.9319999272226498e-01  9.4941450469268496e+00 0.0000000000000000e+00 -1.1263713225166461e-01  9.4958860705459145e+00 0.0000000000000000e+00 -2.7616670280087197e-01  9.4946942304461430e+00 0.0000000000000000e+00 4.6215577497855403e-02  9.4965411430907913e+00 0.0000000000000000e+00 5.6247766168175499e-02  9.4978656721430355e+00 0.0000000000000000e+00 -8.3988727266009366e-02  9.4958210017002767e+00 0.0000000000000000e+00 -2.2186763652219846e-01  9.4961280482337607e+00 0.0000000000000000e+00 -3.3801501729964802e-02  9.4946792658459334e+00 0.0000000000000000e+00 2.0161369752015584e-01  9.5017649749756128e+00 0.0000000000000000e+00 -8.7048870193972457e-03  9.4966036040056956e+00 0.0000000000000000e+00 5.8842296248931829e-02  9.4977161128486411e+00 0.0000000000000000e+00 -7.0076811444785359e-03  9.5004542857352607e+00 0.0000000000000000e+00 -1.3144638788868274e-01  9.5024256102419677e+00 0.0000000000000000e+00 -1.1114809536338631e-01  9.4945559724176540e+00 0.0000000000000000e+00 8.1514809016183909e-02  9.5046333355737591e+00 0.0000000000000000e+00 -4.3095065063621728e-02  9.5013554155820419e+00 0.0000000000000000e+00 -1.6421239999472562e-01  9.4973996324159486e+00 0.0000000000000000e+00 -4.1772171518374715e-02  9.5029756008123343e+00 0.0000000000000000e+00 -1.2580349631024809e-01  9.5014022182576792e+00 0.0000000000000000e+00 -1.1227123440009323e-01  9.5005779151561729e+00 0.0000000000000000e+00 -1.3452544216513332e-01  9.5022041725804414e+00 0.0000000000000000e+00 -1.4417922583309103e-01  9.5047630126892972e+00 0.0000000000000000e+00 -2.1583682796074211e-01  9.5050898744696024e+00 0.0000000000000000e+00 5.1208271837996887e-03  9.5056073716197869e+00 -3.6904137515342589e-01 0.0000000000000000e+00  9.4973515694161925e+00 -4.5763390982894092e-01 0.0000000000000000e+00  9.5030482714190008e+00 -2.5804605719264601e-01 0.0000000000000000e+00  9.5145569164718449e+00 1.5005788015708661e-02 0.0000000000000000e+00  9.5143111780131022e+00 -1.8362058335773027e-01 0.0000000000000000e+00  9.4793014169627963e+00 -7.6659337300790942e-01 0.0000000000000000e+00  9.5112394098274731e+00 -3.2528296169609278e-01 0.0000000000000000e+00  9.4952689638063514e+00 -4.8029506872156053e-01 0.0000000000000000e+00  9.4985361200565279e+00 -5.5316293764953606e-01 0.0000000000000000e+00  9.5007579284412120e+00 -3.5264419548587328e-01 0.0000000000000000e+00  9.5012805576995838e+00 -2.2422304770798690e-01 0.0000000000000000e+00  9.5039299448663819e+00 -5.8934425368707688e-02 0.0000000000000000e+00  9.5114863538831269e+00 -6.4728459614250708e-02 0.0000000000000000e+00  9.5003776572171343e+00 1.6787292113237298e-01 0.0000000000000000e+00  9.5033475430728291e+00 7.4858419381178667e-02 0.0000000000000000e+00  9.5115255043417335e+00 1.5870892390012986e-01 0.0000000000000000e+00  9.4948748626647568e+00 9.2748034351110467e-02 0.0000000000000000e+00  9.5131073034137721e+00 1.5239739396522850e-02 0.0000000000000000e+00  9.4943576164046899e+00 -7.5069850351776296e-02 0.0000000000000000e+00  9.5079341403483077e+00 1.1700011376159439e-01 0.0000000000000000e+00  9.4971000695304824e+00 -8.2007956942050347e-02 0.0000000000000000e+00  9.5074061886041186e+00 -8.2043529483022168e-02 0.0000000000000000e+00  9.4908519570813414e+00 -2.1853356892557194e-03 0.0000000000000000e+00  9.5213919396394697e+00 4.4265712264795018e-02 0.0000000000000000e+00  9.4817235072138821e+00 9.4059167621638046e-02 0.0000000000000000e+00  9.5319975441245770e+00 1.0134585682079651e-01 0.0000000000000000e+00  9.4910224584890148e+00 1.4681669225825572e-01 0.0000000000000000e+00  9.5189541663827519e+00 1.2505959873729319e-01 0.0000000000000000e+00  9.5006669766994811e+00 -3.7937262146057221e-02 0.0000000000000000e+00  9.5196525838801644e+00 2.7769198669865176e-02 0.0000000000000000e+00  9.4766168319245736e+00 -8.3796872877412693e-02 0.0000000000000000e+00  9.5196435851181196e+00 -1.1434374777848691e-02 0.0000000000000000e+00  9.5257371581849810e+00 1.2360300234844396e-01 0.0000000000000000e+00  9.4616508933140224e+00 2.2477858147981497e-01 0.0000000000000000e+00  9.6325320163005657e+00 -1.0731714866868133e-01 0.0000000000000000e+00  9.3820714720610443e+00 2.5912310460795673e-01 0.0000000000000000e+00  9.9805267234764958e+00 -3.7704760817953364e-01 0.0000000000000000e+00  8.9529085625738745e+00 5.8009507193799081e-01 0.0000000000000000e+00  9.7854964127660065e+00 -4.1417739461979169e-01 0.0000000000000000e+00  9.3455878927987097e+00 2.6073110984507852e-01 0.0000000000000000e+00  8.1439599631464432e+00 1.1496685543564942e+00 0.0000000000000000e+00  3.5024878170206324