<?xml version="1.0"?>
<VTKFile type="UnstructuredGrid"  version="0.1"  >
<UnstructuredGrid>
<Piece  NumberOfPoints="9509" NumberOfCells="18536">
<Points>
<DataArray  type="Float64"  NumberOfComponents="3"  format="ascii">-5 -1 0  5 -1 0  5 1 0  -5 1 0  -4.949999999999965 -1 0  -4.899999999999877 -1 0  -4.849999999999826 -1 0  -4.799999999999754 -1 0  -4.749999999999695 -1 0  -4.69999999999963 -1 0  -4.649999999999565 -1 0  -4.599999999999507 -1 0  -4.549999999999454 -1 0  -4.499999999999384 -1 0  -4.449999999999317 -1 0  -4.399999999999261 -1 0  -4.349999999999206 -1 0  -4.299999999999137 -1 0  -4.249999999999075 -1 0  -4.199999999999013 -1 0  -4.149999999998934 -1 0  -4.09999999999889 -1 0  -4.049999999998847 -1 0  -3.999999999998767 -1 0  -3.949999999998706 -1 0  -3.899999999998644 -1 0  -3.849999999998594 -1 0  -3.799999999998552 -1 0  -3.749999999998549 -1 0  -3.699999999998651 -1 0  -3.649999999998804 -1 0  -3.59999999999894 -1 0  -3.549999999999097 -1 0  -3.499999999999261 -1 0  -3.449999999999394 -1 0  -3.399999999999582 -1 0  -3.349999999999742 -1 0  -3.299999999999902 -1 0  -3.25000000000006 -1 0  -3.200000000000223 -1 0  -3.150000000000369 -1 0  -3.100000000000544 -1 0  -3.050000000000704 -1 0  -3.000000000000864 -1 0  -2.950000000001029 -1 0  -2.900000000001185 -1 0  -2.850000000001347 -1 0  -2.800000000001506 -1 0  -2.750000000001665 -1 0  -2.700000000001827 -1 0  -2.650000000001979 -1 0  -2.600000000002148 -1 0  -2.550000000002311 -1 0  -2.500000000002468 -1 0  -2.450000000002635 -1 0  -2.400000000002789 -1 0  -2.35000000000295 -1 0  -2.30000000000311 -1 0  -2.250000000003253 -1 0  -2.200000000003431 -1 0  -2.150000000003601 -1 0  -2.100000000003752 -1 0  -2.050000000003922 -1 0  -2.000000000004072 -1 0  -1.950000000004237 -1 0  -1.900000000004393 -1 0  -1.850000000004541 -1 0  -1.800000000004714 -1 0  -1.750000000004886 -1 0  -1.700000000005035 -1 0  -1.650000000005206 -1 0  -1.600000000005355 -1 0  -1.550000000005516 -1 0  -1.500000000005676 -1 0  -1.450000000005824 -1 0  -1.400000000005996 -1 0  -1.350000000006146 -1 0  -1.300000000006318 -1 0  -1.250000000006505 -1 0  -1.200000000006638 -1 0  -1.150000000006797 -1 0  -1.100000000006959 -1 0  -1.050000000007106 -1 0  -1.000000000007245 -1 0  -0.9500000000072193 -1 0  -0.9000000000072612 -1 0  -0.8500000000071966 -1 0  -0.8000000000071381 -1 0  -0.750000000007085 -1 0  -0.700000000007015 -1 0  -0.6500000000069521 -1 0  -0.6000000000068919 -1 0  -0.5500000000068104 -1 0  -0.5000000000067688 -1 0  -0.4500000000067104 -1 0  -0.4000000000066457 -1 0  -0.3500000000065757 -1 0  -0.3000000000065226 -1 0  -0.2500000000064961 -1 0  -0.2000000000063995 -1 0  -0.1500000000063775 -1 0  -0.1000000000062764 -1 0  -0.0500000000062597 -1 0  -6.153300091682468e-12 -1 0  0.04999999999390781 -1 0  0.09999999999396891 -1 0  0.14999999999403 -1 0  0.1999999999940929 -1 0  0.2499999999941318 -1 0  0.299999999994216 -1 0  0.349999999994254 -1 0  0.3999999999943391 -1 0  0.4499999999944038 -1 0  0.4999999999944613 -1 0  0.5499999999945429 -1 0  0.5999999999945853 -1 0  0.6499999999946606 -1 0  0.6999999999947084 -1 0  0.7499999999947651 -1 0  0.7999999999948315 -1 0  0.8499999999948926 -1 0  0.8999999999949537 -1 0  0.9499999999950148 -1 0  0.9999999999950768 -1 0  1.049999999995139 -1 0  1.0999999999952 -1 0  1.149999999995266 -1 0  1.199999999995324 -1 0  1.249999999995385 -1 0  1.299999999995446 -1 0  1.349999999995488 -1 0  1.399999999995569 -1 0  1.449999999995604 -1 0  1.499999999995692 -1 0  1.549999999995753 -1 0  1.599999999995816 -1 0  1.649999999995892 -1 0  1.699999999995939 -1 0  1.749999999996017 -1 0  1.799999999996063 -1 0  1.849999999996111 -1 0  1.899999999996185 -1 0  1.949999999996246 -1 0  1.999999999996308 -1 0  2.049999999996351 -1 0  2.099999999996431 -1 0  2.149999999996504 -1 0  2.199999999996555 -1 0  2.249999999996616 -1 0  2.299999999996677 -1 0  2.349999999996736 -1 0  2.3999999999968 -1 0  2.449999999996847 -1 0  2.499999999996923 -1 0  2.549999999997 -1 0  2.599999999997047 -1 0  2.649999999997093 -1 0  2.69999999999717 -1 0  2.749999999997245 -1 0  2.799999999997293 -1 0  2.849999999997344 -1 0  2.899999999997416 -1 0  2.949999999997469 -1 0  2.999999999997539 -1 0  3.049999999997576 -1 0  3.099999999997662 -1 0  3.149999999997725 -1 0  3.199999999997784 -1 0  3.249999999997829 -1 0  3.299999999997908 -1 0  3.349999999997921 -1 0  3.39999999999803 -1 0  3.4499999999981 -1 0  3.499999999998153 -1 0  3.549999999998214 -1 0  3.599999999998277 -1 0  3.649999999998409 -1 0  3.699999999998401 -1 0  3.749999999998444 -1 0  3.799999999998523 -1 0  3.849999999998602 -1 0  3.899999999998645 -1 0  3.949999999998658 -1 0  3.999999999998769 -1 0  4.049999999998814 -1 0  4.099999999998893 -1 0  4.149999999998883 -1 0  4.199999999999015 -1 0  4.249999999999064 -1 0  4.299999999999137 -1 0  4.349999999999152 -1 0  4.399999999999261 -1 0  4.44999999999933 -1 0  4.499999999999385 -1 0  4.549999999999446 -1 0  4.599999999999508 -1 0  4.649999999999633 -1 0  4.699999999999632 -1 0  4.749999999999723 -1 0  4.799999999999754 -1 0  4.849999999999801 -1 0  4.899999999999876 -1 0  4.949999999999925 -1 0  5 -0.950000000000111 0  5 -0.9000000000002774 0  5 -0.8500000000004283 0  5 -0.8000000000005548 0  5 -0.7500000000006787 0  5 -0.7000000000008322 0  5 -0.6500000000009709 0  5 -0.6000000000011096 0  5 -0.5500000000012484 0  5 -0.500000000001387 0  5 -0.4500000000015256 0  5 -0.4000000000016644 0  5 -0.3500000000018031 0  5 -0.3000000000019418 0  5 -0.2500000000020806 0  5 -0.2000000000022192 0  5 -0.1500000000023578 0  5 -0.1000000000024964 0  5 -0.05000000000262439 0  5 -2.752242878045763e-12 0  5 0.0499999999973757 0  5 0.09999999999750342 0  5 0.1499999999976422 0  5 0.1999999999977808 0  5 0.2499999999979194 0  5 0.2999999999980583 0  5 0.3499999999981969 0  5 0.3999999999983355 0  5 0.4499999999984743 0  5 0.4999999999986129 0  5 0.5499999999987515 0  5 0.5999999999988903 0  5 0.6499999999990291 0  5 0.699999999999168 0  5 0.7499999999993068 0  5 0.7999999999994454 0  5 0.849999999999584 0  5 0.8999999999997226 0  5 0.9499999999998612 0  4.949999999999965 1 0  4.899999999999877 1 0  4.849999999999826 1 0  4.799999999999754 1 0  4.749999999999695 1 0  4.69999999999963 1 0  4.649999999999565 1 0  4.599999999999507 1 0  4.549999999999454 1 0  4.499999999999384 1 0  4.449999999999317 1 0  4.399999999999261 1 0  4.349999999999206 1 0  4.299999999999137 1 0  4.249999999999075 1 0  4.199999999999013 1 0  4.149999999998934 1 0  4.09999999999889 1 0  4.049999999998847 1 0  3.999999999998767 1 0  3.949999999998706 1 0  3.899999999998644 1 0  3.849999999998594 1 0  3.799999999998552 1 0  3.749999999998549 1 0  3.699999999998651 1 0  3.649999999998804 1 0  3.59999999999894 1 0  3.549999999999097 1 0  3.499999999999261 1 0  3.449999999999394 1 0  3.399999999999582 1 0  3.349999999999742 1 0  3.299999999999902 1 0  3.25000000000006 1 0  3.200000000000223 1 0  3.150000000000369 1 0  3.100000000000544 1 0  3.050000000000704 1 0  3.000000000000864 1 0  2.950000000001029 1 0  2.900000000001185 1 0  2.850000000001347 1 0  2.800000000001506 1 0  2.750000000001665 1 0  2.700000000001827 1 0  2.650000000001979 1 0  2.600000000002148 1 0  2.550000000002311 1 0  2.500000000002468 1 0  2.450000000002635 1 0  2.400000000002789 1 0  2.35000000000295 1 0  2.30000000000311 1 0  2.250000000003253 1 0  2.200000000003431 1 0  2.150000000003601 1 0  2.100000000003752 1 0  2.050000000003922 1 0  2.000000000004072 1 0  1.950000000004237 1 0  1.900000000004393 1 0  1.850000000004541 1 0  1.800000000004714 1 0  1.750000000004886 1 0  1.700000000005035 1 0  1.650000000005206 1 0  1.600000000005355 1 0  1.550000000005516 1 0  1.500000000005676 1 0  1.450000000005824 1 0  1.400000000005996 1 0  1.350000000006146 1 0  1.300000000006318 1 0  1.250000000006505 1 0  1.200000000006638 1 0  1.150000000006797 1 0  1.100000000006959 1 0  1.050000000007106 1 0  1.000000000007245 1 0  0.9500000000072193 1 0  0.9000000000072612 1 0  0.8500000000071966 1 0  0.8000000000071381 1 0  0.750000000007085 1 0  0.700000000007015 1 0  0.6500000000069521 1 0  0.6000000000068919 1 0  0.5500000000068104 1 0  0.5000000000067688 1 0  0.4500000000067104 1 0  0.4000000000066457 1 0  0.3500000000065757 1 0  0.3000000000065226 1 0  0.2500000000064961 1 0  0.2000000000063995 1 0  0.1500000000063775 1 0  0.1000000000062764 1 0  0.0500000000062597 1 0  6.153300091682468e-12 1 0  -0.04999999999390781 1 0  -0.09999999999396891 1 0  -0.14999999999403 1 0  -0.1999999999940929 1 0  -0.2499999999941318 1 0  -0.299999999994216 1 0  -0.349999999994254 1 0  -0.3999999999943391 1 0  -0.4499999999944038 1 0  -0.4999999999944613 1 0  -0.5499999999945429 1 0  -0.5999999999945853 1 0  -0.6499999999946606 1 0  -0.6999999999947084 1 0  -0.7499999999947651 1 0  -0.7999999999948315 1 0  -0.8499999999948926 1 0  -0.8999999999949537 1 0  -0.9499999999950148 1 0  -0.9999999999950768 1 0  -1.049999999995139 1 0  -1.0999999999952 1 0  -1.149999999995266 1 0  -1.199999999995324 1 0  -1.249999999995385 1 0  -1.299999999995446 1 0  -1.349999999995488 1 0  -1.399999999995569 1 0  -1.449999999995604 1 0  -1.499999999995692 1 0  -1.549999999995753 1 0  -1.599999999995816 1 0  -1.649999999995892 1 0  -1.699999999995939 1 0  -1.749999999996017 1 0  -1.799999999996063 1 0  -1.849999999996111 1 0  -1.899999999996185 1 0  -1.949999999996246 1 0  -1.999999999996308 1 0  -2.049999999996351 1 0  -2.099999999996431 1 0  -2.149999999996504 1 0  -2.199999999996555 1 0  -2.249999999996616 1 0  -2.299999999996677 1 0  -2.349999999996736 1 0  -2.3999999999968 1 0  -2.449999999996847 1 0  -2.499999999996923 1 0  -2.549999999997 1 0  -2.599999999997047 1 0  -2.649999999997093 1 0  -2.69999999999717 1 0  -2.749999999997245 1 0  -2.799999999997293 1 0  -2.849999999997344 1 0  -2.899999999997416 1 0  -2.949999999997469 1 0  -2.999999999997539 1 0  -3.049999999997576 1 0  -3.099999999997662 1 0  -3.149999999997725 1 0  -3.199999999997784 1 0  -3.249999999997829 1 0  -3.29999
[...]
<PointData  Vectors="(h, u)"> 
<DataArray  type="Float64"  Name="(h, u)"  NumberOfComponents="3" format="ascii">9.9999986000503682e+00 0.0000000000000000e+00 0.0000000000000000e+00  9.9999999999999911e-01 0.0000000000000000e+00 0.0000000000000000e+00  9.9999999999999933e-01 0.0000000000000000e+00 0.0000000000000000e+00  9.9999999105830248e+00 0.0000000000000000e+00 0.0000000000000000e+00  1.0000001414121007e+01 9.5617144867350324e-07 0.0000000000000000e+00  9.9999981529215631e+00 -1.4434658062147001e-06 0.0000000000000000e+00  1.0000001352419684e+01 1.0906543833740057e-06 0.0000000000000000e+00  9.9999977471890666e+00 3.6576974206646355e-09 0.0000000000000000e+00  1.0000002797501137e+01 1.7381981273919730e-06 0.0000000000000000e+00  9.9999948433978325e+00 -3.7418552524528632e-06 0.0000000000000000e+00  1.0000005152952848e+01 4.4212877224057318e-06 0.0000000000000000e+00  9.9999912320829534e+00 -5.1992945386758855e-06 0.0000000000000000e+00  1.0000009627451600e+01 6.8497324026878351e-06 0.0000000000000000e+00  9.9999873375267274e+00 -9.0701907715162256e-06 0.0000000000000000e+00  1.0000015598081699e+01 1.0975638218207816e-05 0.0000000000000000e+00  9.9999778983335919e+00 -1.5753269580757775e-05 0.0000000000000000e+00  1.0000030642418229e+01 2.1942134270062504e-05 0.0000000000000000e+00  9.9999592855211539e+00 -2.9464411770104136e-05 0.0000000000000000e+00  1.0000049791424367e+01 3.5756291722547338e-05 0.0000000000000000e+00  9.9999421314112897e+00 -4.0697329034926150e-05 0.0000000000000000e+00  1.0000068649322801e+01 4.7735551708462020e-05 0.0000000000000000e+00  9.9999109855645134e+00 -6.3532370826854549e-05 0.0000000000000000e+00  1.0000123073036706e+01 9.2240439622475086e-05 0.0000000000000000e+00  9.9998342967112777e+00 -1.2880157545050211e-04 0.0000000000000000e+00  1.0000202290596828e+01 1.5884534501602943e-04 0.0000000000000000e+00  9.9997788663160954e+00 -1.7037656925526469e-04 0.0000000000000000e+00  1.0000230982545450e+01 1.7206841991990461e-04 0.0000000000000000e+00  9.9997325935810402e+00 -1.9873684684588907e-04 0.0000000000000000e+00  1.0000368015849164e+01 2.8872884442775047e-04 0.0000000000000000e+00  9.9994708418281224e+00 -4.3845442745607576e-04 0.0000000000000000e+00  1.0000678516374943e+01 5.7784996335906425e-04 0.0000000000000000e+00  9.9992804583274744e+00 -6.0917528236418281e-04 0.0000000000000000e+00  1.0000630674899959e+01 5.1173314644741377e-04 0.0000000000000000e+00  9.9994479526352649e+00 -4.2063221298714647e-04 0.0000000000000000e+00  1.0000716935122799e+01 5.7262461787896217e-04 0.0000000000000000e+00  9.9987608269827817e+00 -1.0794949059234648e-03 0.0000000000000000e+00  1.0001876878812208e+01 1.7120225732104920e-03 0.0000000000000000e+00  9.9978889393075523e+00 -1.9463561017565309e-03 0.0000000000000000e+00  1.0001570358084711e+01 1.4181902917647878e-03 0.0000000000000000e+00  9.9993898115219828e+00 -4.5742631207329010e-04 0.0000000000000000e+00  1.0000296807209390e+01 1.4039836668182609e-04 0.0000000000000000e+00  9.9983874074168533e+00 -1.4341664748594761e-03 0.0000000000000000e+00  1.0004157032783212e+01 3.9856859731470492e-03 0.0000000000000000e+00  9.9941189918195423e+00 -5.7399287602356835e-03 0.0000000000000000e+00  1.0004471330571675e+01 4.4075018560718457e-03 0.0000000000000000e+00  9.9999405520947668e+00 -3.9008539293897737e-05 0.0000000000000000e+00  9.9962859872510546e+00 -3.7215737598311556e-03 0.0000000000000000e+00  1.0001934713085134e+01 2.0136616485382465e-03 0.0000000000000000e+00  1.0006318232965434e+01 6.2187890019302014e-03 0.0000000000000000e+00  9.9849435139910145e+00 -1.5013521687968073e-02 0.0000000000000000e+00  1.0014640988159799e+01 1.4811224847010633e-02 0.0000000000000000e+00  9.9984983331535702e+00 -1.8100355475951918e-03 0.0000000000000000e+00  9.9846730713988272e+00 -1.4979574710285286e-02 0.0000000000000000e+00  1.0018383131143043e+01 1.8314041885029858e-02 0.0000000000000000e+00  1.0001354486419912e+01 1.2546190982047781e-03 0.0000000000000000e+00  9.9685695682336064e+00 -3.1344278688722638e-02 0.0000000000000000e+00  1.0042406371156613e+01 4.2861875501511659e-02 0.0000000000000000e+00  9.9841673244909082e+00 -1.6592195227304703e-02 0.0000000000000000e+00  9.9671918117832377e+00 -3.1903852290002269e-02 0.0000000000000000e+00  1.0057361656883094e+01 5.7399478161174647e-02 0.0000000000000000e+00  9.9749742007638922e+00 -2.5502948293101846e-02 0.0000000000000000e+00  9.9532032594330353e+00 -4.6112727817181634e-02 0.0000000000000000e+00  1.0090564583286319e+01 9.1517945220811331e-02 0.0000000000000000e+00  9.9448060133757110e+00 -5.6581240431771929e-02 0.0000000000000000e+00  9.9581805503376604e+00 -3.9858562882590459e-02 0.0000000000000000e+00  1.0108110874090846e+01 1.0937786400108777e-01 0.0000000000000000e+00  9.9266162392660977e+00 -7.4910375447871394e-02 0.0000000000000000e+00  9.9542137999178930e+00 -4.3013836889519694e-02 0.0000000000000000e+00  1.0130768477230308e+01 1.3412635396032416e-01 0.0000000000000000e+00  9.9011456587840296e+00 -1.0077523014254293e-01 0.0000000000000000e+00  9.9645389612209119e+00 -2.9685694267647666e-02 0.0000000000000000e+00  1.0126742496418750e+01 1.3436020675796964e-01 0.0000000000000000e+00  9.9008408610402316e+00 -9.8948182820339473e-02 0.0000000000000000e+00  9.9594159577845982e+00 -2.6843991870969773e-02 0.0000000000000000e+00  1.0112348648888103e+01 1.3314873906663360e-01 0.0000000000000000e+00  9.9044980078416582e+00 -8.0523369509387752e-02 0.0000000000000000e+00  9.9483304747911028e+00 -9.2548971942588085e-03 0.0000000000000000e+00  1.0058480805385322e+01 1.2553646761716439e-01 0.0000000000000000e+00  9.9085476840043860e+00 -1.4706498169861370e-02 0.0000000000000000e+00  9.8926750067760754e+00 3.4668741053092512e-02 0.0000000000000000e+00  9.9516973679699330e+00 1.6502192418445008e-01 0.0000000000000000e+00  9.8421815886633475e+00 1.1767030105323464e-01 0.0000000000000000e+00  9.7576263728744959e+00 1.7803844159097632e-01 0.0000000000000000e+00  9.7260013209883400e+00 3.1427707857290393e-01 0.0000000000000000e+00  9.6293409994993766e+00 3.8151179774339838e-01 0.0000000000000000e+00  9.4653032403438324e+00 4.9216134301468512e-01 0.0000000000000000e+00  9.3311610431370529e+00 6.6526423646039967e-01 0.0000000000000000e+00  9.1941869173901960e+00 8.3131557101698339e-01 0.0000000000000000e+00  8.9684944099084660e+00 1.0331800704671203e+00 0.0000000000000000e+00  8.7393502657824733e+00 1.2634241325844282e+00 0.0000000000000000e+00  8.5394840699703884e+00 1.5052641343336608e+00 0.0000000000000000e+00  8.2624890306017917e+00 1.7978757253238822e+00 0.0000000000000000e+00  7.9742954048152379e+00 2.0997192065350423e+00 0.0000000000000000e+00  7.7175067046402930e+00 2.3986396969517383e+00 0.0000000000000000e+00  7.4038195881499220e+00 2.7609288280026338e+00 0.0000000000000000e+00  7.0819763436791581e+00 3.1238157778561684e+00 0.0000000000000000e+00  6.7943635546793546e+00 3.4748328062051788e+00 0.0000000000000000e+00  6.4651995770288870e+00 3.8850285540255416e+00 0.0000000000000000e+00  6.1310999426229396e+00 4.2890308566931781e+00 0.0000000000000000e+00  5.8285261302328033e+00 4.6842437682368940e+00 0.0000000000000000e+00  5.5084646481796904e+00 5.1204984905244206e+00 0.0000000000000000e+00  5.1869197925930264e+00 5.5461053118609147e+00 0.0000000000000000e+00  4.8757482757171928e+00 5.9884404338578419e+00 0.0000000000000000e+00  4.5676399441226483e+00 6.4459663176533368e+00 0.0000000000000000e+00  4.2183678804326536e+00 6.9594579089498216e+00 0.0000000000000000e+00  3.9665602504239641e+00 7.3612825767781249e+00 0.0000000000000000e+00  3.6228783239487226e+00 7.9233127419372744e+00 0.0000000000000000e+00  3.4123307497220945e+00 8.2692982403691424e+00 0.0000000000000000e+00  3.7669327323501918e+00 7.6835700994105363e+00 0.0000000000000000e+00  3.9470569283999857e+00 7.4060456285869654e+00 0.0000000000000000e+00  3.9863946037391065e+00 7.3522647794237592e+00 0.0000000000000000e+00  4.0216389409983835e+00 7.3088595646884853e+00 0.0000000000000000e+00  4.0234290640034738e+00 7.3237140922850816e+00 0.0000000000000000e+00  4.0328056359228546e+00 7.3172833231866923e+00 0.0000000000000000e+00  4.0354838120490300e+00 7.3107375598059718e+00 0.0000000000000000e+00  4.0166657549354694e+00 7.3213756293000589e+00 0.0000000000000000e+00  3.9956063637735628e+00 7.2961953856361674e+00 0.0000000000000000e+00  3.9501432226155884e+00 7.2375685868195800e+00 0.0000000000000000e+00  3.8391130184928666e+00 7.0963805206845842e+00 0.0000000000000000e+00  3.5964625416797698e+00 6.7053272814376106e+00 0.0000000000000000e+00  3.1213436890906214e+00 5.8575636433927452e+00 0.0000000000000000e+00  2.3715170875563647e+00 4.2441935680893170e+00 0.0000000000000000e+00  1.4384860992643815e+00 1.4566227470853488e+00 0.0000000000000000e+00  9.9915283408845590e-01 -4.3903295602508406e-02 0.0000000000000000e+00  9.9559646021363102e-01 -3.9979337916369919e-05 0.0000000000000000e+00  1.0003513232134156e+00 -2.1321458842380910e-03 0.0000000000000000e+00  1.0001594928105382e+00 -5.7331719159034889e-04 0.0000000000000000e+00  9.9964390193104558e-01 1.1101228332041331e-03 0.0000000000000000e+00  1.0002466768264300e+00 -7.7280376073785104e-04 0.0000000000000000e+00  9.9993350292622030e-01 2.0824567629284879e-04 0.0000000000000000e+00  9.9995707455127247e-01 1.3443307019129783e-04 0.0000000000000000e+00  1.0000608853435424e+00 -1.9066523267391393e-04 0.0000000000000000e+00  9.9996694413045406e-01 1.0351965085088047e-04 0.0000000000000000e+00  1.0000042821566064e+00 -1.3409717498009102e-05 0.0000000000000000e+00  1.0000081959954412e+00 -2.5666132963454372e-05 0.0000000000000000e+00  9.9999220869480909e-01 2.4399077468537551e-05 0.0000000000000000e+00  1.0000032534009469e+00 -1.0188243342786916e-05 0.0000000000000000e+00  1.0000000425585940e+00 -1.3325941938726632e-07 0.0000000000000000e+00  9.9999894930525790e-01 3.2903283253130242e-06 0.0000000000000000e+00  1.0000007644510320e+00 -2.3939413782905692e-06 0.0000000000000000e+00  9.9999975449384049e-01 7.6882666021128897e-07 0.0000000000000000e+00  9.9999995384022033e-01 1.4455362655254403e-07 0.0000000000000000e+00  1.0000001040074358e+00 -3.2571216355242290e-07 0.0000000000000000e+00  9.9999993874098969e-01 1.9184178797242035e-07 0.0000000000000000e+00  1.0000000144939822e+00 -4.5390356068157796e-08 0.0000000000000000e+00  1.0000000065763373e+00 -2.0595663152149795e-08 0.0000000000000000e+00  9.9999999149034624e-01 2.6650690139103779e-08 0.0000000000000000e+00  1.0000000041634214e+00 -1.3039290628133582e-08 0.0000000000000000e+00  9.9999999935698036e-01 2.0137329562860742e-09 0.0000000000000000e+00  9.9999999936422213e-01 1.9915378901871701e-09 0.0000000000000000e+00  1.0000000005976235e+00 -1.8720347012482826e-09 0.0000000000000000e+00  9.9999999975547216e-01 7.6595209739879147e-10 0.0000000000000000e+00  1.0000000000154405e+00 -4.8245542097942223e-11 0.0000000000000000e+00  1.0000000000504652e+00 -1.5825809232844875e-10 0.0000000000000000e+00  9.9999999996199818e-01 1.1918778009138065e-10 0.0000000000000000e+00  1.0000000000135827e+00 -4.2619456607576936e-11 0.0000000000000000e+00  9.9999999999963485e-01 1.1497568541851921e-12 0.0000000000000000e+00  9.9999999999742883e-01 8.0765259694307155e-12 0.0000000000000000e+00  1.0000000000014273e+00 -4.4928166153110819e-12 0.0000000000000000e+00  9.9999999999995504e-01 1.5190015295473519e-13 0.0000000000000000e+00  9.9999999999945921e-01 1.6880743059874691e-12 0.0000000000000000e+00  1.0000000000005569e+00 -1.7385846553263387e-12 0.0000000000000000e+00  9.9999999999960665e-01 1.2191260212461572e-12 0.0000000000000000e+00  1.0000000000002469e+00 -7.5357748309310630e-13 0.0000000000000000e+00  9.9999999999984235e-01 4.7147787629490279e-13 0.0000000000000000e+00  1.0000000000001068e+00 -3.1306085718290829e-13 0.0000000000000000e+00  9.9999999999992639e-01 2.1183282530350193e-13 0.0000000000000000e+00  1.0000000000000484e+00 -1.3931561594096295e-13 0.0000000000000000e+00  9.9999999999997002e-01 8.5214539723375120e-14 0.0000000000000000e+00  1.0000000000000171e+00 -4.8700443819005381e-14 0.0000000000000000e+00  9.9999999999999090e-01 2.6262498737446193e-14 0.0000000000000000e+00  1.0000000000000042e+00 -1.3903798707518722e-14 0.0000000000000000e+00  9.9999999999999822e-01 6.2186924667105191e-15 0.0000000000000000e+00  1.0000000000000007e+00 -3.0833615329289232e-15 0.0000000000000000e+00  1.0000000000000002e+00 2.4993907636520178e-15 0.0000000000000000e+00  9.9999999999999989e-01 -1.3187375660080034e-15 0.0000000000000000e+00  1.0000000000000002e+00 9.9452026930116803e-16 0.0000000000000000e+00  9.9999999999999956e-01 -2.7580386663470252e-16 0.0000000000000000e+00  1.0000000000000004e+00 -1.7953083184977847e-16 0.0000000000000000e+00  9.9999999999999922e-01 4.6101905181815687e-16 0.0000000000000000e+00  1.0000000000000004e+00 3.0437122435471679e-16 0.0000000000000000e+00  9.9999999999999922e-01 -8.0162839444237115e-16 0.0000000000000000e+00  1.0000000000000009e+00 -4.7933842926889732e-16 0.0000000000000000e+00  9.9999999999999922e-01 -6.1445309191062603e-16 0.0000000000000000e+00  1.0000000000000009e+00 -5.7780432334515486e-16 0.0000000000000000e+00  9.9999999999999944e-01 4.8993844462888563e-16 0.0000000000000000e+00  1.0000000000000009e+00 1.6008389677571665e-16 0.0000000000000000e+00  9.9999999999999922e-01 7.8041208164323248e-16 0.0000000000000000e+00  1.0000000000000007e+00 3.1166132385671087e-16 0.0000000000000000e+00  9.9999999999999911e-01 -9.0879663641196745e-16 0.0000000000000000e+00  1.0000000000000007e+00 6.3109921958280291e-16 0.0000000000000000e+00  9.9999999999999944e-01 -1.5490931593239191e-15 0.0000000000000000e+00  1.0000000000000007e+00 1.1896378992805779e-15 0.0000000000000000e+00  9.9999999999999933e-01 1.5749087790076465e-16 0.0000000000000000e+00  1.0000000000000009e+00 2.2169538471462442e-16 0.0000000000000000e+00  9.9999999999999978e-01 -2.6927061829166582e-16 0.0000000000000000e+00  1.0000000000000009e+00 -5.0497521073806009e-16 0.0000000000000000e+00  9.9999999999999944e-01 -5.7912175260591095e-17 0.0000000000000000e+00  1.0000000000000009e+00 -3.6336350524908600e-16 0.0000000000000000e+00  9.9999999999999900e-01 8.9469841460328403e-16 0.0000000000000000e+00  1.0000000000000009e+00 4.3039705934554456e-16 0.0000000000000000e+00  9.9999999999999889e-01 2.7913789804444672e-16 0.0000000000000000e+00  1.0000000000000007e+00 8.5654700744569307e-16 0.0000000000000000e+00  1.0000000000000009e+00 0.0000000000000000e+00 9.2822495768185238e-16  9.9999999999999889e-01 0.0000000000000000e+00 -8.3639688804660084e-16  1.0000000000000009e+00 0.0000000000000000e+00 8.3269192412771427e-16  9.9999999999999889e-01 0.0000000000000000e+00 2.6911203218139572e-16  1.0000000000000004e+00 0.0000000000000000e+00 -1.0005191972234028e-15  9.9999999999999911e-01 0.0000000000000000e+00 -1.7407747687954400e-15  1.0000000000000007e+00 0.0000000000000000e+00 9.0338490200686313e-16  9.9999999999999911e-01 0.0000000000000000e+00 2.8108238009649858e-16  1.0000000000000009e+00 0.0000000000000000e+00 3.0805332201386672e-16  9.9999999999999956e-01 0.0000000000000000e+00 -7.5902982281980072e-16  1.0000000000000007e+00 0.0000000000000000e+00 9.6262920345585425e-16  9.9999999999999900e-01 0.0000000000000000e+00 -8.3741494475070746e-16  1.0000000000000009e+00 0.0000000000000000e+00 8.5218300681300660e-16  9.9999999999999911e-01 0.0000000000000000e+00 -4.4610085362740681e-16  1.0000000000000009e+00 0.0000000000000000e+00 5.3241420595213839e-16  9.9999999999999889e-01 0.0000000000000000e+00 -1.0527875984763042e-15  1.0000000000000007e+00 0.0000000000000000e+00 1.9213669035191421e-16  9.9999999999999933e-01 0.0000000000000000e+00 -1.0528351688889683e-16  1.0000000000000011e+00 0.0000000000000000e+00 -1.3174247528993661e-15  9.9999999999999911e-01 0.0000000000000000e+00 -6.7281900370929333e-16  1.0000000000000011e+00 0.0000000000000000e+00 2.3757095277237844e-16  9.9999999999999933e-01 0.0000000000000000e+00 6.5670264048234074e-16  1.0000000000000009e+00 0.0000000000000000e+00 7.5430570833494627e-17  9.9999999999999967e-01 0.0000000000000000e+00 -3.8479766649096381e-16  1.0000000000000009e+00 0.0000000000000000e+00 7.0772007822690818e-16  9.9999999999999911e-01 0.0000000000000000e+00 -5.3786141474817535e-16  1.0000000000000007e+00 0.0000000000000000e+00 1.5642769458290708e-16  9.9999999999999911e-01 0.0000000000000000e+00 -7.1075987840526104e-16  1.0000000000000007e+00 0.0000000000000000e+00 2.4826011654002880e-16  9.9999999999999911e-01 0.0000000000000000e+00 5.3765604971345078e-16  1.0000000000000004e+00 0.0000000000000000e+00 -1.3519238191470465e-16  9.9999999999999922e-01 0.0000000000000000e+00 9.2845189211989150e-16  1.0000000000000007e+00 0.0000000000000000e+00 -7.3099718572934506e-16  9.9999999999999933e-01 0.0000000000000000e+00 1.9336263993710658e-16  1.0000000000000009e+00 0.0000000000000000e+00 -5.9820899900003932e-16  9.9999999999999944e-01 0.0000000000000000e+00 6.1070181250696270e-16  1.0000000000000009e+00 0.0000000000000000e+00 -5.0875679876389538e-16  9.9999999999999944e-01 0.0000000000000000e+00 5.8514463429506061e-16  1.0000000000000007e+00 0.0000000000000000e+00 -1.8633256874679078e-16  1.0000000000000007e+00 3.0607055634547289e-16 0.0000000000000000e+00  9.9999999999999911e-01 3.6360294180348908e-17 0.0000000000000000e+00  1.0000000000000004e+00 1.1715616218519851e-16 0.0000000000000000e+00  9.9999999999999922e-01 -2.2276095044132372e-16 0.0000000000000000e+00  1.0000000000000007e+00 1.9707209956744033e-16 0.0000000000000000e+00  9.9999999999999944e-01 -3.4481897837348279e-16 0.0000000000000000e+00  1.0000000000000004e+00 -9.6645205912650515e-16 0.0000000000000000e+00  9.9999999999999933e-01 3.9644599425754092e-16 0.0000000000000000e+00  1.0000000000000009e+00 -2.1790296797260929e-16 0.0000000000000000e+00  9.9999999999999956e-01 4.5240524991934593e-16 0.0000000000000000e+00  1.0000000000000007e+00 7.4861732445567248e-16 0.0000000000000000e+00  9.9999999999999944e-01 -2.1256792787424461e-16 0.0000000000000000e+00  1.0000000000000004e+00 -1.1068930306594711e-16 0.0000000000000000e+00  9.9999999999999944e-01 1.5285607152597434e-16 0.0000000000000000e+00  1.0000000000000007e+00 -9.0240855531286625e-16 0.0000000000000000e+00  9.9999999999999900e-01 5.5249289205289957e-16 0.0000000000000000e+00  1.0000000000000009e+00 8.4960718746194390e-16 0.0000000000000000e+00  9.9999999999999922e-01 -6.9040116397223545e-17 0.0000000000000000e+00  1.0000000000000007e+00 4.3464251942925474e-16 0.0000000000000000e+00  9.9999999999999922e-01 -1.5428097770167014e-15 0.0000000000000000e+00  1.0000000000000009e+00 7.1445771072428642e-16 0.0000000000000000e+00  9.9999999999999911e-01 -3.9563240689770255e-17 0.0000000000000000e+00  1.0000000000000007e+00 -5.9930952503759401e-16 0.0000000000000000e+00  9.9999999999999956e-01 1.4869856957051153e-15 0.0000000000000000e+00  1.0000000000000004e+00 4.9978590464596340e-16 0.0000000000000000e+00  9.9999999999999933e-01 4.1080764657174564e-16 0.0000000000000000e+00  1.0000000000000009e+00 1.1592874162502440e-17 0.0000000000000000e+00  9.9999999999999922e-01 -4.3083883640290656e-16 0.0000000000000000e+00  1.0000000000000007e+00 -4.8755793664175006e-16 0.0000000000000000e+00  9.9999999999999967e-01 5.0493176971329479e-16 0.0000000000000000e+00  1.0000000000000009e+00 -1.2972420311553732e-15 0.0000000000000000e+00  9.9999999999999889e-01 1.7728588499928456e-15 0.0000000000000000e+00  1.0000000000000020e+00 -3.6055275485777269e-15 0.0000000000000000e+00  9.9999999999999767e-01 3.8381451002023558e-15 0.0000000000000000e+00  1.0000000000000016e+00 -2.5409789240887287e-15 0.0000000000000000e+00  9.9999999999999933e-01 2.2633184246247505e-15 0.0000000000000000e+00  1.0000000000000000e+00 4.3494873959122727e-15 0.0000000000000000e+00  1.0000000000000104e+00 -4.9172700743063491e-14 0.0000000000000000e+00  9.9999999999996558e-01 9.0534900163147437e-14 0.0000000000000000e+00  1.0000000000000118e+00 -1.1032880879173745e-13 0.0000000000000000e+00  1.0000000000000433e+00 -5.112710