<?xml version="1.0"?>
<VTKFile type="UnstructuredGrid"  version="0.1"  >
<UnstructuredGrid>
<Piece  NumberOfPoints="9509" NumberOfCells="18536">
<Points>
<DataArray  type="Float64"  NumberOfComponents="3"  format="ascii">-5 -1 0  5 -1 0  5 1 0  -5 1 0  -4.949999999999965 -1 0  -4.899999999999877 -1 0  -4.849999999999826 -1 0  -4.799999999999754 -1 0  -4.749999999999695 -1 0  -4.69999999999963 -1 0  -4.649999999999565 -1 0  -4.599999999999507 -1 0  -4.549999999999454 -1 0  -4.499999999999384 -1 0  -4.449999999999317 -1 0  -4.399999999999261 -1 0  -4.349999999999206 -1 0  -4.299999999999137 -1 0  -4.249999999999075 -1 0  -4.199999999999013 -1 0  -4.149999999998934 -1 0  -4.09999999999889 -1 0  -4.049999999998847 -1 0  -3.999999999998767 -1 0  -3.949999999998706 -1 0  -3.899999999998644 -1 0  -3.849999999998594 -1 0  -3.799999999998552 -1 0  -3.749999999998549 -1 0  -3.699999999998651 -1 0  -3.649999999998804 -1 0  -3.59999999999894 -1 0  -3.549999999999097 -1 0  -3.499999999999261 -1 0  -3.449999999999394 -1 0  -3.399999999999582 -1 0  -3.349999999999742 -1 0  -3.299999999999902 -1 0  -3.25000000000006 -1 0  -3.200000000000223 -1 0  -3.150000000000369 -1 0  -3.100000000000544 -1 0  -3.050000000000704 -1 0  -3.000000000000864 -1 0  -2.950000000001029 -1 0  -2.900000000001185 -1 0  -2.850000000001347 -1 0  -2.800000000001506 -1 0  -2.750000000001665 -1 0  -2.700000000001827 -1 0  -2.650000000001979 -1 0  -2.600000000002148 -1 0  -2.550000000002311 -1 0  -2.500000000002468 -1 0  -2.450000000002635 -1 0  -2.400000000002789 -1 0  -2.35000000000295 -1 0  -2.30000000000311 -1 0  -2.250000000003253 -1 0  -2.200000000003431 -1 0  -2.150000000003601 -1 0  -2.100000000003752 -1 0  -2.050000000003922 -1 0  -2.000000000004072 -1 0  -1.950000000004237 -1 0  -1.900000000004393 -1 0  -1.850000000004541 -1 0  -1.800000000004714 -1 0  -1.750000000004886 -1 0  -1.700000000005035 -1 0  -1.650000000005206 -1 0  -1.600000000005355 -1 0  -1.550000000005516 -1 0  -1.500000000005676 -1 0  -1.450000000005824 -1 0  -1.400000000005996 -1 0  -1.350000000006146 -1 0  -1.300000000006318 -1 0  -1.250000000006505 -1 0  -1.200000000006638 -1 0  -1.150000000006797 -1 0  -1.100000000006959 -1 0  -1.050000000007106 -1 0  -1.000000000007245 -1 0  -0.9500000000072193 -1 0  -0.9000000000072612 -1 0  -0.8500000000071966 -1 0  -0.8000000000071381 -1 0  -0.750000000007085 -1 0  -0.700000000007015 -1 0  -0.6500000000069521 -1 0  -0.6000000000068919 -1 0  -0.5500000000068104 -1 0  -0.5000000000067688 -1 0  -0.4500000000067104 -1 0  -0.4000000000066457 -1 0  -0.3500000000065757 -1 0  -0.3000000000065226 -1 0  -0.2500000000064961 -1 0  -0.2000000000063995 -1 0  -0.1500000000063775 -1 0  -0.1000000000062764 -1 0  -0.0500000000062597 -1 0  -6.153300091682468e-12 -1 0  0.04999999999390781 -1 0  0.09999999999396891 -1 0  0.14999999999403 -1 0  0.1999999999940929 -1 0  0.2499999999941318 -1 0  0.299999999994216 -1 0  0.349999999994254 -1 0  0.3999999999943391 -1 0  0.4499999999944038 -1 0  0.4999999999944613 -1 0  0.5499999999945429 -1 0  0.5999999999945853 -1 0  0.6499999999946606 -1 0  0.6999999999947084 -1 0  0.7499999999947651 -1 0  0.7999999999948315 -1 0  0.8499999999948926 -1 0  0.8999999999949537 -1 0  0.9499999999950148 -1 0  0.9999999999950768 -1 0  1.049999999995139 -1 0  1.0999999999952 -1 0  1.149999999995266 -1 0  1.199999999995324 -1 0  1.249999999995385 -1 0  1.299999999995446 -1 0  1.349999999995488 -1 0  1.399999999995569 -1 0  1.449999999995604 -1 0  1.499999999995692 -1 0  1.549999999995753 -1 0  1.599999999995816 -1 0  1.649999999995892 -1 0  1.699999999995939 -1 0  1.749999999996017 -1 0  1.799999999996063 -1 0  1.849999999996111 -1 0  1.899999999996185 -1 0  1.949999999996246 -1 0  1.999999999996308 -1 0  2.049999999996351 -1 0  2.099999999996431 -1 0  2.149999999996504 -1 0  2.199999999996555 -1 0  2.249999999996616 -1 0  2.299999999996677 -1 0  2.349999999996736 -1 0  2.3999999999968 -1 0  2.449999999996847 -1 0  2.499999999996923 -1 0  2.549999999997 -1 0  2.599999999997047 -1 0  2.649999999997093 -1 0  2.69999999999717 -1 0  2.749999999997245 -1 0  2.799999999997293 -1 0  2.849999999997344 -1 0  2.899999999997416 -1 0  2.949999999997469 -1 0  2.999999999997539 -1 0  3.049999999997576 -1 0  3.099999999997662 -1 0  3.149999999997725 -1 0  3.199999999997784 -1 0  3.249999999997829 -1 0  3.299999999997908 -1 0  3.349999999997921 -1 0  3.39999999999803 -1 0  3.4499999999981 -1 0  3.499999999998153 -1 0  3.549999999998214 -1 0  3.599999999998277 -1 0  3.649999999998409 -1 0  3.699999999998401 -1 0  3.749999999998444 -1 0  3.799999999998523 -1 0  3.849999999998602 -1 0  3.899999999998645 -1 0  3.949999999998658 -1 0  3.999999999998769 -1 0  4.049999999998814 -1 0  4.099999999998893 -1 0  4.149999999998883 -1 0  4.199999999999015 -1 0  4.249999999999064 -1 0  4.299999999999137 -1 0  4.349999999999152 -1 0  4.399999999999261 -1 0  4.44999999999933 -1 0  4.499999999999385 -1 0  4.549999999999446 -1 0  4.599999999999508 -1 0  4.649999999999633 -1 0  4.699999999999632 -1 0  4.749999999999723 -1 0  4.799999999999754 -1 0  4.849999999999801 -1 0  4.899999999999876 -1 0  4.949999999999925 -1 0  5 -0.950000000000111 0  5 -0.9000000000002774 0  5 -0.8500000000004283 0  5 -0.8000000000005548 0  5 -0.7500000000006787 0  5 -0.7000000000008322 0  5 -0.6500000000009709 0  5 -0.6000000000011096 0  5 -0.5500000000012484 0  5 -0.500000000001387 0  5 -0.4500000000015256 0  5 -0.4000000000016644 0  5 -0.3500000000018031 0  5 -0.3000000000019418 0  5 -0.2500000000020806 0  5 -0.2000000000022192 0  5 -0.1500000000023578 0  5 -0.1000000000024964 0  5 -0.05000000000262439 0  5 -2.752242878045763e-12 0  5 0.0499999999973757 0  5 0.09999999999750342 0  5 0.1499999999976422 0  5 0.1999999999977808 0  5 0.2499999999979194 0  5 0.2999999999980583 0  5 0.3499999999981969 0  5 0.3999999999983355 0  5 0.4499999999984743 0  5 0.4999999999986129 0  5 0.5499999999987515 0  5 0.5999999999988903 0  5 0.6499999999990291 0  5 0.699999999999168 0  5 0.7499999999993068 0  5 0.7999999999994454 0  5 0.849999999999584 0  5 0.8999999999997226 0  5 0.9499999999998612 0  4.949999999999965 1 0  4.899999999999877 1 0  4.849999999999826 1 0  4.799999999999754 1 0  4.749999999999695 1 0  4.69999999999963 1 0  4.649999999999565 1 0  4.599999999999507 1 0  4.549999999999454 1 0  4.499999999999384 1 0  4.449999999999317 1 0  4.399999999999261 1 0  4.349999999999206 1 0  4.299999999999137 1 0  4.249999999999075 1 0  4.199999999999013 1 0  4.149999999998934 1 0  4.09999999999889 1 0  4.049999999998847 1 0  3.999999999998767 1 0  3.949999999998706 1 0  3.899999999998644 1 0  3.849999999998594 1 0  3.799999999998552 1 0  3.749999999998549 1 0  3.699999999998651 1 0  3.649999999998804 1 0  3.59999999999894 1 0  3.549999999999097 1 0  3.499999999999261 1 0  3.449999999999394 1 0  3.399999999999582 1 0  3.349999999999742 1 0  3.299999999999902 1 0  3.25000000000006 1 0  3.200000000000223 1 0  3.150000000000369 1 0  3.100000000000544 1 0  3.050000000000704 1 0  3.000000000000864 1 0  2.950000000001029 1 0  2.900000000001185 1 0  2.850000000001347 1 0  2.800000000001506 1 0  2.750000000001665 1 0  2.700000000001827 1 0  2.650000000001979 1 0  2.600000000002148 1 0  2.550000000002311 1 0  2.500000000002468 1 0  2.450000000002635 1 0  2.400000000002789 1 0  2.35000000000295 1 0  2.30000000000311 1 0  2.250000000003253 1 0  2.200000000003431 1 0  2.150000000003601 1 0  2.100000000003752 1 0  2.050000000003922 1 0  2.000000000004072 1 0  1.950000000004237 1 0  1.900000000004393 1 0  1.850000000004541 1 0  1.800000000004714 1 0  1.750000000004886 1 0  1.700000000005035 1 0  1.650000000005206 1 0  1.600000000005355 1 0  1.550000000005516 1 0  1.500000000005676 1 0  1.450000000005824 1 0  1.400000000005996 1 0  1.350000000006146 1 0  1.300000000006318 1 0  1.250000000006505 1 0  1.200000000006638 1 0  1.150000000006797 1 0  1.100000000006959 1 0  1.050000000007106 1 0  1.000000000007245 1 0  0.9500000000072193 1 0  0.9000000000072612 1 0  0.8500000000071966 1 0  0.8000000000071381 1 0  0.750000000007085 1 0  0.700000000007015 1 0  0.6500000000069521 1 0  0.6000000000068919 1 0  0.5500000000068104 1 0  0.5000000000067688 1 0  0.4500000000067104 1 0  0.4000000000066457 1 0  0.3500000000065757 1 0  0.3000000000065226 1 0  0.2500000000064961 1 0  0.2000000000063995 1 0  0.1500000000063775 1 0  0.1000000000062764 1 0  0.0500000000062597 1 0  6.153300091682468e-12 1 0  -0.04999999999390781 1 0  -0.09999999999396891 1 0  -0.14999999999403 1 0  -0.1999999999940929 1 0  -0.2499999999941318 1 0  -0.299999999994216 1 0  -0.349999999994254 1 0  -0.3999999999943391 1 0  -0.4499999999944038 1 0  -0.4999999999944613 1 0  -0.5499999999945429 1 0  -0.5999999999945853 1 0  -0.6499999999946606 1 0  -0.6999999999947084 1 0  -0.7499999999947651 1 0  -0.7999999999948315 1 0  -0.8499999999948926 1 0  -0.8999999999949537 1 0  -0.9499999999950148 1 0  -0.9999999999950768 1 0  -1.049999999995139 1 0  -1.0999999999952 1 0  -1.149999999995266 1 0  -1.199999999995324 1 0  -1.249999999995385 1 0  -1.299999999995446 1 0  -1.349999999995488 1 0  -1.399999999995569 1 0  -1.449999999995604 1 0  -1.499999999995692 1 0  -1.549999999995753 1 0  -1.599999999995816 1 0  -1.649999999995892 1 0  -1.699999999995939 1 0  -1.749999999996017 1 0  -1.799999999996063 1 0  -1.849999999996111 1 0  -1.899999999996185 1 0  -1.949999999996246 1 0  -1.999999999996308 1 0  -2.049999999996351 1 0  -2.099999999996431 1 0  -2.149999999996504 1 0  -2.199999999996555 1 0  -2.249999999996616 1 0  -2.299999999996677 1 0  -2.349999999996736 1 0  -2.3999999999968 1 0  -2.449999999996847 1 0  -2.499999999996923 1 0  -2.549999999997 1 0  -2.599999999997047 1 0  -2.649999999997093 1 0  -2.69999999999717 1 0  -2.749999999997245 1 0  -2.799999999997293 1 0  -2.849999999997344 1 0  -2.899999999997416 1 0  -2.949999999997469 1 0  -2.999999999997539 1 0  -3.049999999997576 1 0  -3.099999999997662 1 0  -3.149999999997725 1 0  -3.199999999997784 1 0  -3.249999999997829 1 0  -3.29999
[...]
<PointData  Vectors="(h, u)"> 
<DataArray  type="Float64"  Name="(h, u)"  NumberOfComponents="3" format="ascii">8.9665565723761009e+00 0.0000000000000000e+00 0.0000000000000000e+00  9.7896813989421521e+00 0.0000000000000000e+00 0.0000000000000000e+00  1.0197819818474898e+01 0.0000000000000000e+00 0.0000000000000000e+00  8.9823418762528853e+00 0.0000000000000000e+00 0.0000000000000000e+00  8.9808855160198977e+00 7.8483569838254372e-02 0.0000000000000000e+00  8.9619016742830606e+00 1.5647227252771254e-01 0.0000000000000000e+00  8.9698423690361651e+00 2.3408893737148168e-01 0.0000000000000000e+00  8.9456118346651774e+00 3.1918343982294045e-01 0.0000000000000000e+00  8.9499956740954349e+00 3.9063693818717610e-01 0.0000000000000000e+00  8.9198757787153156e+00 4.7133174879829109e-01 0.0000000000000000e+00  8.9167119246273270e+00 5.4686857470291461e-01 0.0000000000000000e+00  8.8848546382198332e+00 6.1786225690712704e-01 0.0000000000000000e+00  8.8768290727160224e+00 6.9830478229068871e-01 0.0000000000000000e+00  8.8356542904305257e+00 7.7784841770906610e-01 0.0000000000000000e+00  8.8287561909779999e+00 8.3591660179431726e-01 0.0000000000000000e+00  8.7836048205685096e+00 9.2050372832638783e-01 0.0000000000000000e+00  8.7628536152772813e+00 9.9265650132656424e-01 0.0000000000000000e+00  8.7228298334642105e+00 1.0573998297503084e+00 0.0000000000000000e+00  8.6980984500255349e+00 1.1274138469591410e+00 0.0000000000000000e+00  8.6437396338275736e+00 1.2056911721251484e+00 0.0000000000000000e+00  8.6230056114177156e+00 1.2619716439048625e+00 0.0000000000000000e+00  8.5703441069888697e+00 1.3316735494716294e+00 0.0000000000000000e+00  8.5307845317153426e+00 1.4039551523035654e+00 0.0000000000000000e+00  8.4850630047066709e+00 1.4641737202923288e+00 0.0000000000000000e+00  8.4470825378537207e+00 1.5244796726325254e+00 0.0000000000000000e+00  8.3873417481317514e+00 1.5972141296480256e+00 0.0000000000000000e+00  8.3482289092674744e+00 1.6603358614925146e+00 0.0000000000000000e+00  8.2998596488076899e+00 1.7102030280392340e+00 0.0000000000000000e+00  8.2448309024085180e+00 1.7878638221918346e+00 0.0000000000000000e+00  8.1922379489686001e+00 1.8473156353548932e+00 0.0000000000000000e+00  8.1516000577868084e+00 1.9018364026723023e+00 0.0000000000000000e+00  8.0910976366022247e+00 1.9605763900414732e+00 0.0000000000000000e+00  8.0320173811188376e+00 2.0546344112955404e+00 0.0000000000000000e+00  7.9970179568559168e+00 2.0644683851511121e+00 0.0000000000000000e+00  7.9337000763401591e+00 2.1643702404344487e+00 0.0000000000000000e+00  7.8685576515188815e+00 2.2250199155633781e+00 0.0000000000000000e+00  7.8367848052614084e+00 2.2643942157594394e+00 0.0000000000000000e+00  7.7784740148623763e+00 2.3342009641641859e+00 0.0000000000000000e+00  7.6975491391447424e+00 2.4178284007720490e+00 0.0000000000000000e+00  7.6804669762009627e+00 2.4657442197907140e+00 0.0000000000000000e+00  7.6158510710093417e+00 2.4755203648380255e+00 0.0000000000000000e+00  7.5323249011403659e+00 2.6679516622697581e+00 0.0000000000000000e+00  7.5151549294704809e+00 2.5939375736694359e+00 0.0000000000000000e+00  7.4596413000442761e+00 2.6904905222613431e+00 0.0000000000000000e+00  7.3612722485722726e+00 2.8741298588317825e+00 0.0000000000000000e+00  7.3531265024536143e+00 2.7220339093951464e+00 0.0000000000000000e+00  7.2997292864046095e+00 2.9596154640006826e+00 0.0000000000000000e+00  7.1922320209088983e+00 2.9848112754407863e+00 0.0000000000000000e+00  7.1910004487251271e+00 2.9631678108318100e+00 0.0000000000000000e+00  7.1354311265939776e+00 3.1419686179360329e+00 0.0000000000000000e+00  7.0327313281870829e+00 3.1263785577834247e+00 0.0000000000000000e+00  7.0195871793553382e+00 3.2491092794697756e+00 0.0000000000000000e+00  6.9835381833338639e+00 3.2091003119595412e+00 0.0000000000000000e+00  6.8631859643550186e+00 3.4314046240640739e+00 0.0000000000000000e+00  6.8672728744742519e+00 3.3413811641911417e+00 0.0000000000000000e+00  6.8109262669897923e+00 3.4777667810086905e+00 0.0000000000000000e+00  6.7237972371446606e+00 3.5497578978261379e+00 0.0000000000000000e+00  6.6879549918939984e+00 3.5917895131979867e+00 0.0000000000000000e+00  6.6688785844537586e+00 3.6271318910655661e+00 0.0000000000000000e+00  6.5537634109644536e+00 3.7624652033009740e+00 0.0000000000000000e+00  6.5470480588822317e+00 3.7598324427432184e+00 0.0000000000000000e+00  6.4852215992220090e+00 3.8693613930753545e+00 0.0000000000000000e+00  6.4302708786744711e+00 3.8770084060490428e+00 0.0000000000000000e+00  6.3618607830534781e+00 4.0489405763127992e+00 0.0000000000000000e+00  6.3486041025742450e+00 3.9750217004028183e+00 0.0000000000000000e+00  6.2585306902317246e+00 4.1416214256084993e+00 0.0000000000000000e+00  6.2319653646066557e+00 4.1933849647191321e+00 0.0000000000000000e+00  6.1573050380048349e+00 4.1981599402457102e+00 0.0000000000000000e+00  6.1433224568010605e+00 4.3353825474503269e+00 0.0000000000000000e+00  6.0477617814369786e+00 4.3720061767290908e+00 0.0000000000000000e+00  6.0277144901246968e+00 4.4032876016445810e+00 0.0000000000000000e+00  5.9636386768149983e+00 4.5509635520004235e+00 0.0000000000000000e+00  5.9323099588675650e+00 4.5183229553159645e+00 0.0000000000000000e+00  5.8377695469240827e+00 4.6577750684676165e+00 0.0000000000000000e+00  5.8471973414079015e+00 4.6874903793895113e+00 0.0000000000000000e+00  5.7547763225325808e+00 4.7668575540750702e+00 0.0000000000000000e+00  5.7246520935938383e+00 4.7837684252155332e+00 0.0000000000000000e+00  5.6594920671125850e+00 4.9605533567153008e+00 0.0000000000000000e+00  5.6506824210434177e+00 4.8666690097044665e+00 0.0000000000000000e+00  5.5477382347795361e+00 5.0566179581350958e+00 0.0000000000000000e+00  5.5427239804104369e+00 5.0837066837450999e+00 0.0000000000000000e+00  5.4757273006329381e+00 5.1122459672060998e+00 0.0000000000000000e+00  5.4425940923478606e+00 5.1991243298127365e+00 0.0000000000000000e+00  5.3595315033552984e+00 5.3245775619744995e+00 0.0000000000000000e+00  5.3704102840643442e+00 5.2438036243629265e+00 0.0000000000000000e+00  5.2628636995874798e+00 5.4720799380256606e+00 0.0000000000000000e+00  5.2481666645663081e+00 5.4303920005469193e+00 0.0000000000000000e+00  5.1989612355101622e+00 5.5190562660617344e+00 0.0000000000000000e+00  5.1549910739137257e+00 5.5908459325691213e+00 0.0000000000000000e+00  5.0689784189208762e+00 5.6856451178691634e+00 0.0000000000000000e+00  5.0890933086969312e+00 5.6663474013752237e+00 0.0000000000000000e+00  4.9803465178710038e+00 5.8409997143881167e+00 0.0000000000000000e+00  4.9510637585556605e+00 5.8233124308176327e+00 0.0000000000000000e+00  4.9086730391283533e+00 5.9602855843857361e+00 0.0000000000000000e+00  4.8831269353310276e+00 5.9250081491824425e+00 0.0000000000000000e+00  4.7693618855443098e+00 6.1330450960409779e+00 0.0000000000000000e+00  4.8103644292108241e+00 6.0535360912066984e+00 0.0000000000000000e+00  4.6977365282074572e+00 6.2318738734900290e+00 0.0000000000000000e+00  4.6849300865728445e+00 6.2145470238619245e+00 0.0000000000000000e+00  4.6447641887235651e+00 6.3428947733206051e+00 0.0000000000000000e+00  4.6152398194491058e+00 6.3006491304881562e+00 0.0000000000000000e+00  4.4807535478970451e+00 6.5716243413428117e+00 0.0000000000000000e+00  4.5713903237483899e+00 6.4057650926817686e+00 0.0000000000000000e+00  4.5006690448267515e+00 6.5110093557144708e+00 0.0000000000000000e+00  4.4037299685156119e+00 6.6659083427589296e+00 0.0000000000000000e+00  4.3166723270882752e+00 6.7844011567761529e+00 0.0000000000000000e+00  4.3456390996600041e+00 6.7426131770793472e+00 0.0000000000000000e+00  4.2951040078772289e+00 6.8420953744159032e+00 0.0000000000000000e+00  4.2691195270697495e+00 6.8559873392017714e+00 0.0000000000000000e+00  4.1793896643782107e+00 7.0137486242435800e+00 0.0000000000000000e+00  4.1609718603249339e+00 7.0153711609698464e+00 0.0000000000000000e+00  4.0861088796890037e+00 7.1579109038970534e+00 0.0000000000000000e+00  4.0642175377654013e+00 7.1761572065716441e+00 0.0000000000000000e+00  4.0023284932166607e+00 7.2551144909392455e+00 0.0000000000000000e+00  4.0226312619781917e+00 7.2691854129817397e+00 0.0000000000000000e+00  3.9010704362500226e+00 7.4127654818123192e+00 0.0000000000000000e+00  3.8917239030845114e+00 7.4419227222324205e+00 0.0000000000000000e+00  3.8120638977391859e+00 7.5795232357587512e+00 0.0000000000000000e+00  3.9670025250393275e+00 7.3772872165438059e+00 0.0000000000000000e+00  3.7350313523446181e+00 7.7097336141080248e+00 0.0000000000000000e+00  3.8803326766226327e+00 7.5159340492382887e+00 0.0000000000000000e+00  3.6970956768763150e+00 7.7984109037822655e+00 0.0000000000000000e+00  3.7409377995059159e+00 7.6637505015404006e+00 0.0000000000000000e+00  3.9236044132786572e+00 7.4278131805382168e+00 0.0000000000000000e+00  3.8458422296614176e+00 7.5145904603207674e+00 0.0000000000000000e+00  3.9280201433725677e+00 7.4125520259310171e+00 0.0000000000000000e+00  3.9661594577202259e+00 7.3594472220753753e+00 0.0000000000000000e+00  3.9862374159243341e+00 7.3259271048872918e+00 0.0000000000000000e+00  3.7815425468573403e+00 7.5980525561659453e+00 0.0000000000000000e+00  4.0812792118802133e+00 7.2303200540289430e+00 0.0000000000000000e+00  4.1800594256524208e+00 7.0856362267780639e+00 0.0000000000000000e+00  4.0543882483746909e+00 7.2477973442068970e+00 0.0000000000000000e+00  4.0468433789089158e+00 7.2624138974522063e+00 0.0000000000000000e+00  3.9818711071250146e+00 7.3224582654315631e+00 0.0000000000000000e+00  4.0322253109834909e+00 7.2786606590901890e+00 0.0000000000000000e+00  4.0392845674057156e+00 7.2600041168580125e+00 0.0000000000000000e+00  3.9778935538725504e+00 7.3511959164691740e+00 0.0000000000000000e+00  3.9780633256643725e+00 7.3280802479898126e+00 0.0000000000000000e+00  3.9831733460009078e+00 7.3480476580216383e+00 0.0000000000000000e+00  3.9710058118575895e+00 7.3371361392462955e+00 0.0000000000000000e+00  3.9639007265810240e+00 7.3625877436280005e+00 0.0000000000000000e+00  3.9555003967646631e+00 7.3637305729451876e+00 0.0000000000000000e+00  3.9765144522460365e+00 7.3435479689589132e+00 0.0000000000000000e+00  3.9675904159446973e+00 7.3510463730792504e+00 0.0000000000000000e+00  3.9602502753049671e+00 7.3645342715256525e+00 0.0000000000000000e+00  3.9690259388801636e+00 7.3470935985230490e+00 0.0000000000000000e+00  3.9680224783058597e+00 7.3520209219064823e+00 0.0000000000000000e+00  3.9553505263699380e+00 7.3710070946432440e+00 0.0000000000000000e+00  3.9451389115413669e+00 7.3813758725115415e+00 0.0000000000000000e+00  3.9832294560839241e+00 7.3348306951287388e+00 0.0000000000000000e+00  3.9851585489792187e+00 7.3363835831893116e+00 0.0000000000000000e+00  3.9610541867470150e+00 7.3616536676715043e+00 0.0000000000000000e+00  3.9624443051029310e+00 7.3622055009121032e+00 0.0000000000000000e+00  3.9799463560077339e+00 7.3422779444946960e+00 0.0000000000000000e+00  3.9702133910900241e+00 7.3541645457098754e+00 0.0000000000000000e+00  3.9702748436513784e+00 7.3519767352290168e+00 0.0000000000000000e+00  3.9774079777360503e+00 7.3466325268297039e+00 0.0000000000000000e+00  3.9857141145319948e+00 7.3374637312335880e+00 0.0000000000000000e+00  3.9785367530892484e+00 7.3442859194173913e+00 0.0000000000000000e+00  3.9867233748024158e+00 7.3346892925406983e+00 0.0000000000000000e+00  3.9767322771444804e+00 7.3489438853726874e+00 0.0000000000000000e+00  3.9749784731162743e+00 7.3475090387623414e+00 0.0000000000000000e+00  3.9727700761332048e+00 7.3525984289560888e+00 0.0000000000000000e+00  3.9860869198887658e+00 7.3332069624680081e+00 0.0000000000000000e+00  3.9803204800640302e+00 7.3398693012130281e+00 0.0000000000000000e+00  3.9766057021631651e+00 7.3446098072365729e+00 0.0000000000000000e+00  3.9657744368342502e+00 7.3583449961476806e+00 0.0000000000000000e+00  3.9709430134231334e+00 7.3453090620255157e+00 0.0000000000000000e+00  3.9764153063540464e+00 7.3473129652914251e+00 0.0000000000000000e+00  3.9782281582195043e+00 7.3338757683916596e+00 0.0000000000000000e+00  3.9705151591812022e+00 7.3445780219824064e+00 0.0000000000000000e+00  3.9741141054412585e+00 7.3504457667445084e+00 0.0000000000000000e+00  3.9633013287095742e+00 7.3333221598799652e+00 0.0000000000000000e+00  3.9790265279838404e+00 7.3471842314131797e+00 0.0000000000000000e+00  3.9697243212586355e+00 7.3324875486131855e+00 0.0000000000000000e+00  3.9749639275316992e+00 7.3341903826129187e+00 0.0000000000000000e+00  3.9553649661886987e+00 7.3460839100312585e+00 0.0000000000000000e+00  3.9839849634728255e+00 7.3620267227201142e+00 0.0000000000000000e+00  3.9325109875893971e+00 7.3021890910061629e+00 0.0000000000000000e+00  4.0008961733317960e+00 7.3959179986579242e+00 0.0000000000000000e+00  3.9489601165640145e+00 7.2841816648510438e+00 0.0000000000000000e+00  3.9768784023053261e+00 7.3750799735697967e+00 0.0000000000000000e+00  3.9614017838945008e+00 7.3096749417897913e+00 0.0000000000000000e+00  3.9910581321389058e+00 7.3885499842611457e+00 0.0000000000000000e+00  3.9176765355318395e+00 7.2783440345974615e+00 0.0000000000000000e+00  4.0071210416232859e+00 7.4041133668133225e+00 0.0000000000000000e+00  3.9450255660988311e+00 7.3299127046282377e+00 0.0000000000000000e+00  3.9536479569836804e+00 7.3077348951218744e+00 0.0000000000000000e+00  3.9763838983642512e+00 7.3623988265613836e+00 0.0000000000000000e+00  3.9793995976116223e+00 7.3615737415065299e+00 0.0000000000000000e+00  3.9544849272080684e+00 7.2601517539586773e+00 0.0000000000000000e+00  3.9318107052789433e+00 7.3610633004335044e+00 0.0000000000000000e+00  4.0556704265335872e+00 7.3705572942852760e+00 0.0000000000000000e+00  3.8895369063593161e+00 7.2554819801040553e+00 0.0000000000000000e+00  3.9696567798779339e+00 7.2969600932752972e+00 0.0000000000000000e+00  4.0033715053357373e+00 7.4208221884722283e+00 0.0000000000000000e+00  4.0188517211680637e+00 7.3008145594192166e+00 0.0000000000000000e+00  3.7683727746450479e+00 7.0467470320192671e+00 0.0000000000000000e+00  4.1683102432409171e+00 7.8518491470641196e+00 0.0000000000000000e+00  4.0422600172926755e+00 6.6914429930242632e+00 0.0000000000000000e+00  3.8116190759432662e+00 7.0913323769720762e+00 0.0000000000000000e+00  1.0171148770837958e+01 -2.5787525279051826e-01 0.0000000000000000e+00  8.6256946008608146e+00 4.5229746772513058e-01 0.0000000000000000e+00  9.2340731749503515e+00 0.0000000000000000e+00 -1.9706341516500606e-01  9.6888945590006283e+00 0.0000000000000000e+00 -4.2636688730289217e-02  1.0282012983415852e+01 0.0000000000000000e+00 5.7012073202910296e-02  9.8212256870608883e+00 0.0000000000000000e+00 -3.4712493881995704e-01  9.1135948143745562e+00 0.0000000000000000e+00 5.1499293906868922e-02  9.7109332662632006e+00 0.0000000000000000e+00 3.3212752276307857e-02  1.0439626499796562e+01 0.0000000000000000e+00 -4.6699174955115011e-02  9.5612536593017499e+00 0.0000000000000000e+00 -1.4639110793011134e-01  9.3050793735398756e+00 0.0000000000000000e+00 1.6855638337010778e-01  9.6511384970862810e+00 0.0000000000000000e+00 3.4206883880364564e-01  9.9695456431511698e+00 0.0000000000000000e+00 7.1280420852405782e-02  9.8346687424989998e+00 0.0000000000000000e+00 -3.1783529328890331e-01  1.0146270082113640e+01 0.0000000000000000e+00 -9.6913247492571714e-02  1.0440551305553717e+01 0.0000000000000000e+00 -6.3813697472370978e-02  1.0102539656344277e+01 0.0000000000000000e+00 -9.1112614343437232e-02  9.8550893933790693e+00 0.0000000000000000e+00 1.0939977334635533e-01  1.0084116320694060e+01 0.0000000000000000e+00 -2.7935268074027936e-01  9.5741826744905545e+00 0.0000000000000000e+00 -3.8058758271665327e-01  9.1712056526963615e+00 0.0000000000000000e+00 -2.7536691820621273e-01  9.5031719796306096e+00 0.0000000000000000e+00 2.7121621046599220e-02  1.0385743504727108e+01 0.0000000000000000e+00 7.6999292347802630e-04  9.4247594717579659e+00 0.0000000000000000e+00 -2.4031971289517998e-01  9.2140476612822333e+00 0.0000000000000000e+00 1.9775647977998870e-01  9.5634962302946764e+00 0.0000000000000000e+00 2.9761733518247119e-01  1.0059544629755520e+01 0.0000000000000000e+00 -1.4188227595041463e-02  1.0150016830052786e+01 0.0000000000000000e+00 -2.0607341983970343e-01  1.0162864022053197e+01 0.0000000000000000e+00 -1.5179174492955091e-01  1.0167395232979729e+01 0.0000000000000000e+00 -1.3207596541922983e-01  1.0165008041028662e+01 0.0000000000000000e+00 -7.2137569234578855e-02  1.0216592290420294e+01 0.0000000000000000e+00 1.2123319180713268e-02  1.0134552802081013e+01 0.0000000000000000e+00 -2.8602546386733031e-02  1.0128882372431528e+01 0.0000000000000000e+00 5.7707873568091433e-03  1.0006903741492909e+01 0.0000000000000000e+00 -6.2510577663991027e-02  1.0197349866943059e+01 0.0000000000000000e+00 5.6109999384112647e-03  1.0052685170446741e+01 0.0000000000000000e+00 -2.6391834748924264e-01  1.0127802896495325e+01 0.0000000000000000e+00 1.1493117576480925e-01  1.0145807054572122e+01 0.0000000000000000e+00 -2.0640761300032889e-01  9.8754285665675923e+00 0.0000000000000000e+00 1.4520490327929153e-01  9.2653016389041980e+00 0.0000000000000000e+00 -3.5783662866323561e-04  8.1902655744376851e+00 7.8073947373735231e-01 0.0000000000000000e+00  1.0319717404686514e+01 -8.0489249465580226e-01 0.0000000000000000e+00  4.1854139206006042e+00 6.3590382571811324e+00 0.0000000000000000e+00  3.9825648963386731e+00 6.9011932779802363e+00 0.0000000000000000e+00  4.0263544565068567e+00 7.4583311671111625e+00 0.0000000000000000e+00  3.9127879096917044e+00 7.1470369724641891e+00 0.0000000000000000e+00  3.8635597200536496e+00 7.1909534941053401e+00 0.0000000000000000e+00  4.0122004731212204e+00 7.1637350195953742e+00 0.0000000000000000e+00  3.9484640378131926e+00 7.1701625851361674e+00 0.0000000000000000e+00  3.9512691719605901e+00 7.0763337505436343e+00 0.0000000000000000e+00  3.9793806112766075e+00 7.1381794643326986e+00 0.0000000000000000e+00  3.9466551912761041e+00 7.0669465063051300e+00 0.0000000000000000e+00  3.9746726191942847e+00 7.0888069167620431e+00 0.0000000000000000e+00  3.8957048046364311e+00 7.1154002924099338e+00 0.0000000000000000e+00  3.9742711399626032e+00 7.0862411056176660e+00 0.0000000000000000e+00  3.9871805261024238e+00 7.1118415464289360e+00 0.0000000000000000e+00  3.9162394809950314e+00 7.1108181667156884e+00 0.0000000000000000e+00  3.9512645999404565e+00 7.1798015868508376e+00 0.0000000000000000e+00  3.9585674689369341e+00 7.1125618407518321e+00 0.0000000000000000e+00  3.9396181161229040e+00 7.2568149821378078e+00 0.0000000000000000e+00  3.9127600400311566e+00 7.1929673456501115e+00 0.0000000000000000e+00  3.9613732440173957e+00 7.3020197337554338e+00 0.0000000000000000e+00  3.9239313748742028e+00 7.1996618360081479e+00 0.0000000000000000e+00  3.9705910381349137e+00 7.3146235158067636e+00 0.0000000000000000e+00  3.9252974524850313e+00 7.3180651463785589e+00 0.0000000000000000e+00  3.9554426226820021e+00 7.2816270627044490e+00 0.0000000000000000e+00  3.9402092137571665e+00 7.3185206503813687e+00 0.0000000000000000e+00  3.9713223973591218e+00 7.3753572359494646e+00 0.0000000000000000e+00  3.9114692477860902e+00 7.3143778722662773e+00 0.0000000000000000e+00  3.9791612072734930e+00 7.3585509246462735e+00 0.0000000000000000e+00  3.9521646164547963e+00 7.3128232603487078e+00 0.0000000000000000e+00  3.9498078782050428e+00 7.3092936670097766e+00 0.0000000000000000e+00  3.9629112319077935e+00 7.3528890773361670e+00 0.0000000000000000e+00  3.9501742012218601e+00 7.3209600344872161e+00 0.0000000000000000e+00  3.9448723192055137e+00 7.3341122942933570e+00 0.0000000000000000e+00  3.9612815229841214e+00 7.3345916863298184e+00 0.0000000000000000e+00  3.9760562958523393e+00 7.2356594779079453e+00 0.0000000000000000e+00  3.9561523811573367e+00 7.3125671739708205e+00 0.0000000000000000e+00  3.9594443008080038e+00 7.3474184505618787e+00 0.0000000000000000e+00  3.9556710124339833e+00 7.2724854617262533e+00 0.0000000000000000e+00  3.9743349133019992e+00 7.3124761561896383e+00 0.0000000000000000e+00  3.9489561762928669e+00 7.3203831505935471e+00 0.00000