<?xml version="1.0"?>
<VTKFile type="UnstructuredGrid"  version="0.1"  >
<UnstructuredGrid>
<Piece  NumberOfPoints="9509" NumberOfCells="18536">
<Points>
<DataArray  type="Float64"  NumberOfComponents="3"  format="ascii">-5 -1 0  5 -1 0  5 1 0  -5 1 0  -4.949999999999965 -1 0  -4.899999999999877 -1 0  -4.849999999999826 -1 0  -4.799999999999754 -1 0  -4.749999999999695 -1 0  -4.69999999999963 -1 0  -4.649999999999565 -1 0  -4.599999999999507 -1 0  -4.549999999999454 -1 0  -4.499999999999384 -1 0  -4.449999999999317 -1 0  -4.399999999999261 -1 0  -4.349999999999206 -1 0  -4.299999999999137 -1 0  -4.249999999999075 -1 0  -4.199999999999013 -1 0  -4.149999999998934 -1 0  -4.09999999999889 -1 0  -4.049999999998847 -1 0  -3.999999999998767 -1 0  -3.949999999998706 -1 0  -3.899999999998644 -1 0  -3.849999999998594 -1 0  -3.799999999998552 -1 0  -3.749999999998549 -1 0  -3.699999999998651 -1 0  -3.649999999998804 -1 0  -3.59999999999894 -1 0  -3.549999999999097 -1 0  -3.499999999999261 -1 0  -3.449999999999394 -1 0  -3.399999999999582 -1 0  -3.349999999999742 -1 0  -3.299999999999902 -1 0  -3.25000000000006 -1 0  -3.200000000000223 -1 0  -3.150000000000369 -1 0  -3.100000000000544 -1 0  -3.050000000000704 -1 0  -3.000000000000864 -1 0  -2.950000000001029 -1 0  -2.900000000001185 -1 0  -2.850000000001347 -1 0  -2.800000000001506 -1 0  -2.750000000001665 -1 0  -2.700000000001827 -1 0  -2.650000000001979 -1 0  -2.600000000002148 -1 0  -2.550000000002311 -1 0  -2.500000000002468 -1 0  -2.450000000002635 -1 0  -2.400000000002789 -1 0  -2.35000000000295 -1 0  -2.30000000000311 -1 0  -2.250000000003253 -1 0  -2.200000000003431 -1 0  -2.150000000003601 -1 0  -2.100000000003752 -1 0  -2.050000000003922 -1 0  -2.000000000004072 -1 0  -1.950000000004237 -1 0  -1.900000000004393 -1 0  -1.850000000004541 -1 0  -1.800000000004714 -1 0  -1.750000000004886 -1 0  -1.700000000005035 -1 0  -1.650000000005206 -1 0  -1.600000000005355 -1 0  -1.550000000005516 -1 0  -1.500000000005676 -1 0  -1.450000000005824 -1 0  -1.400000000005996 -1 0  -1.350000000006146 -1 0  -1.300000000006318 -1 0  -1.250000000006505 -1 0  -1.200000000006638 -1 0  -1.150000000006797 -1 0  -1.100000000006959 -1 0  -1.050000000007106 -1 0  -1.000000000007245 -1 0  -0.9500000000072193 -1 0  -0.9000000000072612 -1 0  -0.8500000000071966 -1 0  -0.8000000000071381 -1 0  -0.750000000007085 -1 0  -0.700000000007015 -1 0  -0.6500000000069521 -1 0  -0.6000000000068919 -1 0  -0.5500000000068104 -1 0  -0.5000000000067688 -1 0  -0.4500000000067104 -1 0  -0.4000000000066457 -1 0  -0.3500000000065757 -1 0  -0.3000000000065226 -1 0  -0.2500000000064961 -1 0  -0.2000000000063995 -1 0  -0.1500000000063775 -1 0  -0.1000000000062764 -1 0  -0.0500000000062597 -1 0  -6.153300091682468e-12 -1 0  0.04999999999390781 -1 0  0.09999999999396891 -1 0  0.14999999999403 -1 0  0.1999999999940929 -1 0  0.2499999999941318 -1 0  0.299999999994216 -1 0  0.349999999994254 -1 0  0.3999999999943391 -1 0  0.4499999999944038 -1 0  0.4999999999944613 -1 0  0.5499999999945429 -1 0  0.5999999999945853 -1 0  0.6499999999946606 -1 0  0.6999999999947084 -1 0  0.7499999999947651 -1 0  0.7999999999948315 -1 0  0.8499999999948926 -1 0  0.8999999999949537 -1 0  0.9499999999950148 -1 0  0.9999999999950768 -1 0  1.049999999995139 -1 0  1.0999999999952 -1 0  1.149999999995266 -1 0  1.199999999995324 -1 0  1.249999999995385 -1 0  1.299999999995446 -1 0  1.349999999995488 -1 0  1.399999999995569 -1 0  1.449999999995604 -1 0  1.499999999995692 -1 0  1.549999999995753 -1 0  1.599999999995816 -1 0  1.649999999995892 -1 0  1.699999999995939 -1 0  1.749999999996017 -1 0  1.799999999996063 -1 0  1.849999999996111 -1 0  1.899999999996185 -1 0  1.949999999996246 -1 0  1.999999999996308 -1 0  2.049999999996351 -1 0  2.099999999996431 -1 0  2.149999999996504 -1 0  2.199999999996555 -1 0  2.249999999996616 -1 0  2.299999999996677 -1 0  2.349999999996736 -1 0  2.3999999999968 -1 0  2.449999999996847 -1 0  2.499999999996923 -1 0  2.549999999997 -1 0  2.599999999997047 -1 0  2.649999999997093 -1 0  2.69999999999717 -1 0  2.749999999997245 -1 0  2.799999999997293 -1 0  2.849999999997344 -1 0  2.899999999997416 -1 0  2.949999999997469 -1 0  2.999999999997539 -1 0  3.049999999997576 -1 0  3.099999999997662 -1 0  3.149999999997725 -1 0  3.199999999997784 -1 0  3.249999999997829 -1 0  3.299999999997908 -1 0  3.349999999997921 -1 0  3.39999999999803 -1 0  3.4499999999981 -1 0  3.499999999998153 -1 0  3.549999999998214 -1 0  3.599999999998277 -1 0  3.649999999998409 -1 0  3.699999999998401 -1 0  3.749999999998444 -1 0  3.799999999998523 -1 0  3.849999999998602 -1 0  3.899999999998645 -1 0  3.949999999998658 -1 0  3.999999999998769 -1 0  4.049999999998814 -1 0  4.099999999998893 -1 0  4.149999999998883 -1 0  4.199999999999015 -1 0  4.249999999999064 -1 0  4.299999999999137 -1 0  4.349999999999152 -1 0  4.399999999999261 -1 0  4.44999999999933 -1 0  4.499999999999385 -1 0  4.549999999999446 -1 0  4.599999999999508 -1 0  4.649999999999633 -1 0  4.699999999999632 -1 0  4.749999999999723 -1 0  4.799999999999754 -1 0  4.849999999999801 -1 0  4.899999999999876 -1 0  4.949999999999925 -1 0  5 -0.950000000000111 0  5 -0.9000000000002774 0  5 -0.8500000000004283 0  5 -0.8000000000005548 0  5 -0.7500000000006787 0  5 -0.7000000000008322 0  5 -0.6500000000009709 0  5 -0.6000000000011096 0  5 -0.5500000000012484 0  5 -0.500000000001387 0  5 -0.4500000000015256 0  5 -0.4000000000016644 0  5 -0.3500000000018031 0  5 -0.3000000000019418 0  5 -0.2500000000020806 0  5 -0.2000000000022192 0  5 -0.1500000000023578 0  5 -0.1000000000024964 0  5 -0.05000000000262439 0  5 -2.752242878045763e-12 0  5 0.0499999999973757 0  5 0.09999999999750342 0  5 0.1499999999976422 0  5 0.1999999999977808 0  5 0.2499999999979194 0  5 0.2999999999980583 0  5 0.3499999999981969 0  5 0.3999999999983355 0  5 0.4499999999984743 0  5 0.4999999999986129 0  5 0.5499999999987515 0  5 0.5999999999988903 0  5 0.6499999999990291 0  5 0.699999999999168 0  5 0.7499999999993068 0  5 0.7999999999994454 0  5 0.849999999999584 0  5 0.8999999999997226 0  5 0.9499999999998612 0  4.949999999999965 1 0  4.899999999999877 1 0  4.849999999999826 1 0  4.799999999999754 1 0  4.749999999999695 1 0  4.69999999999963 1 0  4.649999999999565 1 0  4.599999999999507 1 0  4.549999999999454 1 0  4.499999999999384 1 0  4.449999999999317 1 0  4.399999999999261 1 0  4.349999999999206 1 0  4.299999999999137 1 0  4.249999999999075 1 0  4.199999999999013 1 0  4.149999999998934 1 0  4.09999999999889 1 0  4.049999999998847 1 0  3.999999999998767 1 0  3.949999999998706 1 0  3.899999999998644 1 0  3.849999999998594 1 0  3.799999999998552 1 0  3.749999999998549 1 0  3.699999999998651 1 0  3.649999999998804 1 0  3.59999999999894 1 0  3.549999999999097 1 0  3.499999999999261 1 0  3.449999999999394 1 0  3.399999999999582 1 0  3.349999999999742 1 0  3.299999999999902 1 0  3.25000000000006 1 0  3.200000000000223 1 0  3.150000000000369 1 0  3.100000000000544 1 0  3.050000000000704 1 0  3.000000000000864 1 0  2.950000000001029 1 0  2.900000000001185 1 0  2.850000000001347 1 0  2.800000000001506 1 0  2.750000000001665 1 0  2.700000000001827 1 0  2.650000000001979 1 0  2.600000000002148 1 0  2.550000000002311 1 0  2.500000000002468 1 0  2.450000000002635 1 0  2.400000000002789 1 0  2.35000000000295 1 0  2.30000000000311 1 0  2.250000000003253 1 0  2.200000000003431 1 0  2.150000000003601 1 0  2.100000000003752 1 0  2.050000000003922 1 0  2.000000000004072 1 0  1.950000000004237 1 0  1.900000000004393 1 0  1.850000000004541 1 0  1.800000000004714 1 0  1.750000000004886 1 0  1.700000000005035 1 0  1.650000000005206 1 0  1.600000000005355 1 0  1.550000000005516 1 0  1.500000000005676 1 0  1.450000000005824 1 0  1.400000000005996 1 0  1.350000000006146 1 0  1.300000000006318 1 0  1.250000000006505 1 0  1.200000000006638 1 0  1.150000000006797 1 0  1.100000000006959 1 0  1.050000000007106 1 0  1.000000000007245 1 0  0.9500000000072193 1 0  0.9000000000072612 1 0  0.8500000000071966 1 0  0.8000000000071381 1 0  0.750000000007085 1 0  0.700000000007015 1 0  0.6500000000069521 1 0  0.6000000000068919 1 0  0.5500000000068104 1 0  0.5000000000067688 1 0  0.4500000000067104 1 0  0.4000000000066457 1 0  0.3500000000065757 1 0  0.3000000000065226 1 0  0.2500000000064961 1 0  0.2000000000063995 1 0  0.1500000000063775 1 0  0.1000000000062764 1 0  0.0500000000062597 1 0  6.153300091682468e-12 1 0  -0.04999999999390781 1 0  -0.09999999999396891 1 0  -0.14999999999403 1 0  -0.1999999999940929 1 0  -0.2499999999941318 1 0  -0.299999999994216 1 0  -0.349999999994254 1 0  -0.3999999999943391 1 0  -0.4499999999944038 1 0  -0.4999999999944613 1 0  -0.5499999999945429 1 0  -0.5999999999945853 1 0  -0.6499999999946606 1 0  -0.6999999999947084 1 0  -0.7499999999947651 1 0  -0.7999999999948315 1 0  -0.8499999999948926 1 0  -0.8999999999949537 1 0  -0.9499999999950148 1 0  -0.9999999999950768 1 0  -1.049999999995139 1 0  -1.0999999999952 1 0  -1.149999999995266 1 0  -1.199999999995324 1 0  -1.249999999995385 1 0  -1.299999999995446 1 0  -1.349999999995488 1 0  -1.399999999995569 1 0  -1.449999999995604 1 0  -1.499999999995692 1 0  -1.549999999995753 1 0  -1.599999999995816 1 0  -1.649999999995892 1 0  -1.699999999995939 1 0  -1.749999999996017 1 0  -1.799999999996063 1 0  -1.849999999996111 1 0  -1.899999999996185 1 0  -1.949999999996246 1 0  -1.999999999996308 1 0  -2.049999999996351 1 0  -2.099999999996431 1 0  -2.149999999996504 1 0  -2.199999999996555 1 0  -2.249999999996616 1 0  -2.299999999996677 1 0  -2.349999999996736 1 0  -2.3999999999968 1 0  -2.449999999996847 1 0  -2.499999999996923 1 0  -2.549999999997 1 0  -2.599999999997047 1 0  -2.649999999997093 1 0  -2.69999999999717 1 0  -2.749999999997245 1 0  -2.799999999997293 1 0  -2.849999999997344 1 0  -2.899999999997416 1 0  -2.949999999997469 1 0  -2.999999999997539 1 0  -3.049999999997576 1 0  -3.099999999997662 1 0  -3.149999999997725 1 0  -3.199999999997784 1 0  -3.249999999997829 1 0  -3.29999
[...]
<PointData  Vectors="(h, u)"> 
<DataArray  type="Float64"  Name="(h, u)"  NumberOfComponents="3" format="ascii">9.9896314804128448e+00 0.0000000000000000e+00 0.0000000000000000e+00  9.9999999999997335e-01 0.0000000000000000e+00 0.0000000000000000e+00  9.9999999999999645e-01 0.0000000000000000e+00 0.0000000000000000e+00  9.9785245580251161e+00 0.0000000000000000e+00 0.0000000000000000e+00  1.0004275641013656e+01 1.0791073546952926e-02 0.0000000000000000e+00  9.9850520496684894e+00 1.2385169934102973e-02 0.0000000000000000e+00  1.0004899013343989e+01 -1.5309257901695880e-03 0.0000000000000000e+00  9.9999062778773649e+00 7.6149018564030556e-03 0.0000000000000000e+00  9.9899685963184108e+00 -1.4456272370683605e-03 0.0000000000000000e+00  9.9932536276472206e+00 -6.4411231421567334e-03 0.0000000000000000e+00  1.0013153659642891e+01 1.9768108022252651e-02 0.0000000000000000e+00  9.9639923237523984e+00 1.6751712467909418e-02 0.0000000000000000e+00  1.0026913982750608e+01 -4.3043035333601425e-02 0.0000000000000000e+00  9.9984800631278681e+00 2.8545920362322468e-03 0.0000000000000000e+00  9.9631817422626501e+00 1.7310525723930256e-02 0.0000000000000000e+00  1.0013020381160951e+01 -3.5793760012919076e-02 0.0000000000000000e+00  1.0024401177199682e+01 1.8194512306977974e-02 0.0000000000000000e+00  9.9234474260530341e+00 -1.6061426198055239e-02 0.0000000000000000e+00  1.0041640757792289e+01 5.0993928677764856e-03 0.0000000000000000e+00  1.0005030712507669e+01 -6.5427495869444527e-03 0.0000000000000000e+00  9.9351604832768778e+00 -4.7893428908709918e-03 0.0000000000000000e+00  1.0022003160645456e+01 2.6879813629923596e-03 0.0000000000000000e+00  1.0031992409044330e+01 9.8808477971610419e-03 0.0000000000000000e+00  9.9052012931666766e+00 -2.6447264463790927e-02 0.0000000000000000e+00  1.0045647518781667e+01 2.9415293461549145e-02 0.0000000000000000e+00  1.0012662158851519e+01 -5.0639747861886755e-03 0.0000000000000000e+00  9.9242675040571342e+00 -1.1197833204205886e-02 0.0000000000000000e+00  1.0022196029316071e+01 1.5280906785816790e-02 0.0000000000000000e+00  1.0034941404543417e+01 1.9245900041028333e-02 0.0000000000000000e+00  9.9047981726833658e+00 -3.3111024255627584e-02 0.0000000000000000e+00  1.0036793197117989e+01 3.7630610493115529e-02 0.0000000000000000e+00  1.0014712185577464e+01 7.6124335026962980e-04 0.0000000000000000e+00  9.9280984723310493e+00 -6.5743671917175292e-03 0.0000000000000000e+00  1.0009194909627672e+01 1.1421804707880932e-02 0.0000000000000000e+00  1.0029693318883449e+01 3.0305810066883078e-02 0.0000000000000000e+00  9.9146006011545520e+00 -2.3872038919146733e-02 0.0000000000000000e+00  1.0014529835756495e+01 3.5476842551875769e-02 0.0000000000000000e+00  1.0003448676368087e+01 1.1403681732036527e-02 0.0000000000000000e+00  9.9328922593514655e+00 1.7763358507455730e-02 0.0000000000000000e+00  9.9793410419310629e+00 1.4105617811265347e-02 0.0000000000000000e+00  1.0000939430256031e+01 5.1859937329964162e-02 0.0000000000000000e+00  9.9077395833386870e+00 1.8992144747801958e-02 0.0000000000000000e+00  9.9645171945624220e+00 5.9080619342886491e-02 0.0000000000000000e+00  9.9495005551727367e+00 5.4990471273917998e-02 0.0000000000000000e+00  9.8932116517376603e+00 9.1856310795427151e-02 0.0000000000000000e+00  9.8979930205506523e+00 7.7832850173078158e-02 0.0000000000000000e+00  9.9008185419529635e+00 1.3531392482921545e-01 0.0000000000000000e+00  9.8174440398264462e+00 1.4523372780082136e-01 0.0000000000000000e+00  9.8277571898922655e+00 1.8004872583622564e-01 0.0000000000000000e+00  9.7874080770292888e+00 2.0569921741885430e-01 0.0000000000000000e+00  9.7272137485695556e+00 2.8337069798421050e-01 0.0000000000000000e+00  9.6892566743366704e+00 2.8281361342512290e-01 0.0000000000000000e+00  9.6572633175453433e+00 3.6444372221038435e-01 0.0000000000000000e+00  9.5638797189695559e+00 4.2705806132029173e-01 0.0000000000000000e+00  9.5313537631618352e+00 4.7070126430625425e-01 0.0000000000000000e+00  9.4573067320811433e+00 5.3473562748530801e-01 0.0000000000000000e+00  9.3790569409800195e+00 6.4987849459912472e-01 0.0000000000000000e+00  9.3059698931696264e+00 6.7493126352801625e-01 0.0000000000000000e+00  9.2400667802994167e+00 7.7901395433109144e-01 0.0000000000000000e+00  9.1299361050406613e+00 8.9191222203417642e-01 0.0000000000000000e+00  9.0658952996139863e+00 9.4098378374796099e-01 0.0000000000000000e+00  8.9664410575349809e+00 1.0462419213539929e+00 0.0000000000000000e+00  8.8680543167172790e+00 1.1822911378940322e+00 0.0000000000000000e+00  8.7758604094894341e+00 1.2357880142273769e+00 0.0000000000000000e+00  8.6849027893153306e+00 1.3493513204566172e+00 0.0000000000000000e+00  8.5622366098099381e+00 1.5084919385764068e+00 0.0000000000000000e+00  8.4800974725466780e+00 1.5486600139382132e+00 0.0000000000000000e+00  8.3679633565180325e+00 1.6958592364427787e+00 0.0000000000000000e+00  8.2518525927784516e+00 1.8360292301230818e+00 0.0000000000000000e+00  8.1551420565361461e+00 1.9132366617626264e+00 0.0000000000000000e+00  8.0493012372296739e+00 2.0286798573075986e+00 0.0000000000000000e+00  7.9176908137674129e+00 2.2261410526950756e+00 0.0000000000000000e+00  7.8294468318812118e+00 2.2504598952662711e+00 0.0000000000000000e+00  7.7129770889418481e+00 2.4274275125166564e+00 0.0000000000000000e+00  7.5838149451554839e+00 2.5833342654114850e+00 0.0000000000000000e+00  7.4895384816818220e+00 2.6519268508487515e+00 0.0000000000000000e+00  7.3800932563074113e+00 2.7881231153068953e+00 0.0000000000000000e+00  7.2379518418125377e+00 3.0025526102369873e+00 0.0000000000000000e+00  7.1544930304729890e+00 3.0192544529213525e+00 0.0000000000000000e+00  7.0390071477547087e+00 3.2018935692280941e+00 0.0000000000000000e+00  6.8983088048917418e+00 3.3843349129425930e+00 0.0000000000000000e+00  6.8113485703787591e+00 3.4465897781436046e+00 0.0000000000000000e+00  6.7079188041411761e+00 3.5678872113088826e+00 0.0000000000000000e+00  6.5497253984220745e+00 3.8293581280328328e+00 0.0000000000000000e+00  6.4776734782787395e+00 3.8179517069636075e+00 0.0000000000000000e+00  6.3712585871991765e+00 4.0181685797250486e+00 0.0000000000000000e+00  6.2089638398227311e+00 4.2001132220457507e+00 0.0000000000000000e+00  6.1381334836238306e+00 4.2800045396955850e+00 0.0000000000000000e+00  6.0473002011993486e+00 4.3857856459167532e+00 0.0000000000000000e+00  5.8581506185394669e+00 4.6729715162091372e+00 0.0000000000000000e+00  5.8158140509879024e+00 4.6574409407538475e+00 0.0000000000000000e+00  5.7175775892933727e+00 4.8332660125133424e+00 0.0000000000000000e+00  5.5222943130244841e+00 5.0830271441085033e+00 0.0000000000000000e+00  5.4933377754934911e+00 5.0992670098385950e+00 0.0000000000000000e+00  5.4075617131218161e+00 5.2234074030791797e+00 0.0000000000000000e+00  5.1796484281099442e+00 5.5493247890324238e+00 0.0000000000000000e+00  5.1984783313921223e+00 5.4894175861201049e+00 0.0000000000000000e+00  5.1027387520137184e+00 5.6400279752498079e+00 0.0000000000000000e+00  4.8705694784000144e+00 5.9753486962950291e+00 0.0000000000000000e+00  4.8843015957995606e+00 5.9224573462341832e+00 0.0000000000000000e+00  4.8241445251439989e+00 6.0392402844860698e+00 0.0000000000000000e+00  4.5466445271046796e+00 6.4217391101784713e+00 0.0000000000000000e+00  4.5655598274576112e+00 6.3893516829473462e+00 0.0000000000000000e+00  4.4624395395407683e+00 6.5369575125279367e+00 0.0000000000000000e+00  4.3707186187550553e+00 6.7055746502691305e+00 0.0000000000000000e+00  4.2574608925207480e+00 6.8320082951009820e+00 0.0000000000000000e+00  4.1855776085331096e+00 6.9762756789835798e+00 0.0000000000000000e+00  4.0762541689955158e+00 7.1164851977717491e+00 0.0000000000000000e+00  4.0442536898300157e+00 7.2034434366176177e+00 0.0000000000000000e+00  3.8656081296538867e+00 7.4498230056077617e+00 0.0000000000000000e+00  3.7695830814728719e+00 7.6051782106785080e+00 0.0000000000000000e+00  3.6774956057676893e+00 7.7095448417709367e+00 0.0000000000000000e+00  3.6579954566511530e+00 7.7759483539792686e+00 0.0000000000000000e+00  3.7899578801480476e+00 7.5749144784761402e+00 0.0000000000000000e+00  3.8998671606873363e+00 7.3841209406972821e+00 0.0000000000000000e+00  3.8564367706704377e+00 7.4355148558648656e+00 0.0000000000000000e+00  3.8569491676019831e+00 7.4327517510923782e+00 0.0000000000000000e+00  3.8747803048684673e+00 7.4088264338117824e+00 0.0000000000000000e+00  3.8975944181269377e+00 7.3749579268123151e+00 0.0000000000000000e+00  3.9109536135841680e+00 7.3574874942419566e+00 0.0000000000000000e+00  3.9073386030622630e+00 7.3603384309377384e+00 0.0000000000000000e+00  3.8973644381583674e+00 7.3719387844296875e+00 0.0000000000000000e+00  3.9002654725624595e+00 7.3640933239761521e+00 0.0000000000000000e+00  3.9154776012365100e+00 7.3434926574995982e+00 0.0000000000000000e+00  3.9271205994643310e+00 7.3288112120439823e+00 0.0000000000000000e+00  3.9253246946595510e+00 7.3300502036275592e+00 0.0000000000000000e+00  3.9113326893452798e+00 7.3449983671849788e+00 0.0000000000000000e+00  3.8995017836471693e+00 7.3558966254633642e+00 0.0000000000000000e+00  3.9002210154402692e+00 7.3519870667566929e+00 0.0000000000000000e+00  3.9084542074986524e+00 7.3418080186549348e+00 0.0000000000000000e+00  3.9156345049740469e+00 7.3346065499365150e+00 0.0000000000000000e+00  3.9164624441832077e+00 7.3343434675037997e+00 0.0000000000000000e+00  3.9111289272035230e+00 7.3400380964455882e+00 0.0000000000000000e+00  3.9062350602154958e+00 7.3429887505216263e+00 0.0000000000000000e+00  3.9058393503710032e+00 7.3397838583562178e+00 0.0000000000000000e+00  3.9075812115323072e+00 7.3352200892619770e+00 0.0000000000000000e+00  3.9102563967860222e+00 7.3300277484251639e+00 0.0000000000000000e+00  3.9134515044437839e+00 7.3246661511905025e+00 0.0000000000000000e+00  3.9154992217295859e+00 7.3222628667079421e+00 0.0000000000000000e+00  3.9166770993147053e+00 7.3218662061405890e+00 0.0000000000000000e+00  3.9179826706570782e+00 7.3222245502859415e+00 0.0000000000000000e+00  3.9190066922007576e+00 7.3244169831780450e+00 0.0000000000000000e+00  3.9197071454997086e+00 7.3271790611917398e+00 0.0000000000000000e+00  3.9204206742381880e+00 7.3289728323968522e+00 0.0000000000000000e+00  3.9209050577816575e+00 7.3295030638840011e+00 0.0000000000000000e+00  3.9206068254723143e+00 7.3269850119197093e+00 0.0000000000000000e+00  3.9182460317597090e+00 7.3195393902436026e+00 0.0000000000000000e+00  3.9116564990018747e+00 7.3035897215570706e+00 0.0000000000000000e+00  3.8955522761100139e+00 7.2697489682100755e+00 0.0000000000000000e+00  3.8586592620704665e+00 7.2013078237356680e+00 0.0000000000000000e+00  3.7790797100746096e+00 7.0631121621156945e+00 0.0000000000000000e+00  3.6084048925185019e+00 6.7671335707269407e+00 0.0000000000000000e+00  3.2609946020905070e+00 6.1365210357351243e+00 0.0000000000000000e+00  2.6183715365024272e+00 4.8103351389915172e+00 0.0000000000000000e+00  1.6618424607393605e+00 2.2100344368502567e+00 0.0000000000000000e+00  1.0469181436329134e+00 1.0464863053005280e-01 0.0000000000000000e+00  9.9881873904123419e-01 4.4463577283868037e-03 0.0000000000000000e+00  9.9994402054447240e-01 1.8521312309927599e-04 0.0000000000000000e+00  1.0001298485255357e+00 -3.9331684095990761e-04 0.0000000000000000e+00  9.9997908087385945e-01 5.7570738644564126e-05 0.0000000000000000e+00  9.9995869686677574e-01 1.3430817808034775e-04 0.0000000000000000e+00  1.0000610359265383e+00 -1.9285734430074238e-04 0.0000000000000000e+00  9.9993962522882041e-01 1.8814193868891676e-04 0.0000000000000000e+00  1.0000514808756937e+00 -1.5828255564236194e-04 0.0000000000000000e+00  9.9995901562225376e-01 1.2399496375615213e-04 0.0000000000000000e+00  1.0000323333867831e+00 -9.5951028773523620e-05 0.0000000000000000e+00  9.9997372932947381e-01 7.6438840461084465e-05 0.0000000000000000e+00  1.0000219250012701e+00 -6.2685932929017242e-05 0.0000000000000000e+00  9.9998179212878868e-01 5.1247982996469399e-05 0.0000000000000000e+00  1.0000146052766172e+00 -4.0437230090835842e-05 0.0000000000000000e+00  9.9998882012546830e-01 3.0359530871114258e-05 0.0000000000000000e+00  1.0000082036117603e+00 -2.1769097227128154e-05 0.0000000000000000e+00  9.9999414852822832e-01 1.5135828893539176e-05 0.0000000000000000e+00  1.0000041163132085e+00 -1.0381075849531113e-05 0.0000000000000000e+00  9.9999712394366513e-01 7.0908074753199888e-06 0.0000000000000000e+00  1.0000019896363388e+00 -4.8098013908812271e-06 0.0000000000000000e+00  9.9999864977039432e-01 3.2035242367608915e-06 0.0000000000000000e+00  1.0000008912009042e+00 -2.0714575397459385e-06 0.0000000000000000e+00  9.9999942961572597e-01 1.2942706285945038e-06 0.0000000000000000e+00  1.0000003553383681e+00 -7.8475734893962938e-07 0.0000000000000000e+00  9.9999978262982603e-01 4.6718245769390681e-07 0.0000000000000000e+00  1.0000001318035796e+00 -2.7685396164004045e-07 0.0000000000000000e+00  9.9999992036608709e-01 1.6468604560805713e-07 0.0000000000000000e+00  1.0000000478835278e+00 -9.8175518389319494e-08 0.0000000000000000e+00  9.9999997150395181e-01 5.8127973995683177e-08 0.0000000000000000e+00  1.0000000166997853e+00 -3.3883376916569012e-08 0.0000000000000000e+00  9.9999999036602472e-01 1.9407533663128136e-08 0.0000000000000000e+00  1.0000000055004572e+00 -1.0998360510727026e-08 0.0000000000000000e+00  9.9999999686574337e-01 6.2406044820650583e-09 0.0000000000000000e+00  1.0000000017932034e+00 -3.5759854688506289e-09 0.0000000000000000e+00  9.9999999897082836e-01 2.0651197025845952e-09 0.0000000000000000e+00  1.0000000005879504e+00 -1.1871607224683088e-09 0.0000000000000000e+00  9.9999999966895836e-01 6.6915714039800888e-10 0.0000000000000000e+00  1.0000000001825202e+00 -3.6627379819818627e-10 0.0000000000000000e+00  9.9999999990146737e-01 1.9464808185119159e-10 0.0000000000000000e+00  1.0000000000523925e+00 -1.0133176597729087e-10 0.0000000000000000e+00  9.9999999997239730e-01 5.2215881560493016e-11 0.0000000000000000e+00  1.0000000000145028e+00 -2.6913775234189593e-11 0.0000000000000000e+00  9.9999999999254718e-01 1.3425523031617896e-11 0.0000000000000000e+00  1.0000000000037625e+00 -6.5693595527518562e-12 0.0000000000000000e+00  9.9999999999825995e-01 2.7421448401369515e-12 0.0000000000000000e+00  1.0000000000007783e+00 -1.1032485531567958e-12 0.0000000000000000e+00  9.9999999999957745e-01 2.3212442801052112e-13 0.0000000000000000e+00  1.0000000000001319e+00 0.0000000000000000e+00 -8.6795312484728550e-14  1.0000000000011382e+00 0.0000000000000000e+00 -1.4058431720539965e-12  1.0000000000003264e+00 0.0000000000000000e+00 1.3466723592880695e-12  9.9999999999946176e-01 0.0000000000000000e+00 -1.4557465790171170e-12  1.0000000000003266e+00 0.0000000000000000e+00 -5.5701806600575368e-13  1.0000000000023410e+00 0.0000000000000000e+00 -3.2711256474987657e-12  1.0000000000005371e+00 0.0000000000000000e+00 2.5768694558334786e-12  9.9999999999950484e-01 0.0000000000000000e+00 -2.3078520490307762e-12  1.0000000000006573e+00 0.0000000000000000e+00 -6.5195534750331569e-13  1.0000000000041356e+00 0.0000000000000000e+00 -4.7465110945237505e-12  1.0000000000001599e+00 0.0000000000000000e+00 -7.3702527105689372e-14  1.0000000000019205e+00 0.0000000000000000e+00 -3.0969673969085522e-12  1.0000000000047287e+00 0.0000000000000000e+00 3.0693658728093611e-12  1.0000000000035545e+00 0.0000000000000000e+00 -1.7791652646328007e-12  9.9999999999797973e-01 0.0000000000000000e+00 5.0380168427443434e-12  1.0000000000030098e+00 0.0000000000000000e+00 -3.5606829556312932e-12  1.0000000000016143e+00 0.0000000000000000e+00 1.4777400933856174e-12  9.9999999999992528e-01 0.0000000000000000e+00 -1.2900276841901555e-12  9.9999999999997524e-01 0.0000000000000000e+00 2.0306977674162528e-12  1.0000000000031135e+00 0.0000000000000000e+00 -4.8932053278329660e-12  9.9999999999980238e-01 0.0000000000000000e+00 3.7137583525072700e-12  1.0000000000002507e+00 0.0000000000000000e+00 -1.2116036149593656e-12  9.9999999999994083e-01 0.0000000000000000e+00 7.0255147709671970e-13  1.0000000000008338e+00 0.0000000000000000e+00 -1.3709511273854071e-12  9.9999999999986200e-01 0.0000000000000000e+00 1.0427671549048611e-12  1.0000000000000875e+00 0.0000000000000000e+00 -2.5133069977478296e-13  9.9999999999990974e-01 0.0000000000000000e+00 1.9536542941194290e-13  1.0000000000000684e+00 0.0000000000000000e+00 -1.8423690763578389e-13  9.9999999999993261e-01 0.0000000000000000e+00 1.6382967103226848e-13  1.0000000000000044e+00 0.0000000000000000e+00 -9.5675484901202241e-14  9.9999999999995992e-01 0.0000000000000000e+00 4.3216020414563749e-14  1.0000000000000122e+00 0.0000000000000000e+00 -5.4533182553803930e-14  9.9999999999998990e-01 0.0000000000000000e+00 2.5750991760676267e-14  9.9999999999999534e-01 0.0000000000000000e+00 -4.5010654137121314e-15  9.9999999999998701e-01 0.0000000000000000e+00 3.5162981985763158e-15  9.9999999999999478e-01 0.0000000000000000e+00 -1.3201681267501130e-14  1.0000000000000018e+00 0.0000000000000000e+00 -4.3824205996601751e-15  1.0000000000000009e+00 0.0000000000000000e+00 -7.5192473202716732e-15  1.0000000000000073e+00 0.0000000000000000e+00 1.4584549845449982e-14  1.0000000000000098e+00 -2.1010553086772666e-14 0.0000000000000000e+00  9.9999999999998235e-01 6.7120533296308457e-14 0.0000000000000000e+00  1.0000000000000224e+00 -7.8234978545846634e-14 0.0000000000000000e+00  1.0000000000000075e+00 5.6141752337328681e-14 0.0000000000000000e+00  9.9999999999991707e-01 2.1065339537637719e-13 0.0000000000000000e+00  1.0000000000002807e+00 -8.5168922315567878e-13 0.0000000000000000e+00  9.9999999999961087e-01 1.4604797592045719e-12 0.0000000000000000e+00  1.0000000000003622e+00 -1.5747992158604492e-12 0.0000000000000000e+00  1.0000000000007430e+00 -1.9545088234413757e-12 0.0000000000000000e+00  9.9999999999615696e-01 9.8735087380585639e-12 0.0000000000000000e+00  1.0000000000065821e+00 -2.2871661387479400e-11 0.0000000000000000e+00  9.9999999999225542e-01 2.7155801621245588e-11 0.0000000000000000e+00  9.9999999999627687e-01 2.8197031531044779e-12 0.0000000000000000e+00  1.0000000000312907e+00 -7.9875571897770172e-11 0.0000000000000000e+00  9.9999999993741229e-01 1.7144912408113670e-10 0.0000000000000000e+00  1.0000000000543829e+00 -2.1220932430305058e-10 0.0000000000000000e+00  1.0000000000130844e+00 1.0483384627086647e-10 0.0000000000000000e+00  9.9999999986081500e-01 5.1808699102854496e-10 0.0000000000000000e+00  1.0000000004245742e+00 -1.7266937582903626e-09 0.0000000000000000e+00  9.9999999943296713e-01 1.3613072913257830e-09 0.0000000000000000e+00  9.9999999906963288e-01 2.4728245329723253e-09 0.0000000000000000e+00  1.0000000033532976e+00 -1.0569749824036113e-08 0.0000000000000000e+00  9.9999999496122949e-01 1.6533974790840768e-08 0.0000000000000000e+00  9.9999999971911824e-01 -2.7828584100455125e-10 0.0000000000000000e+00  1.0000000192102154e+00 -5.8306716693586539e-08 0.0000000000000000e+00  9.9999995354525473e-01 1.2019004232159952e-07 0.0000000000000000e+00  1.0000000374394122e+00 -8.3271172325298140e-08 0.0000000000000000e+00  1.0000000251010293e+00 -2.9558479934584476e-07 0.0000000000000000e+00  9.9999980154133572e-01 6.2305794920302686e-07 0.0000000000000000e+00  9.9999990756945556e-01 -7.0737953754039631e-07 0.0000000000000000e+00  1.0000007058548654e+00 -1.0386621550984275e-06 0.0000000000000000e+00  9.9999744432786375e-01 6.2913951884483434e-06 0.0000000000000000e+00  1.0000049589188851e+00 -1.2426345101367304e-05 0.0000000000000000e+00  9.9999328114620833e-01 1.6145846937953826e-05 0.0000000000000000e+00  1.0000061044916124e+00 -1.8347691075899152e-05 0.0000000000000000e+00  9.9999091488950098e-01 3.1169227910040659e-05 0.0000000000000000e+00  1.0000226872672169e+00 -5.1109141288036163e-05 0.0000000000000000e+00  9.9997989391781705e-01 1.2161031565966686e-05 0.0000000000000000e+00  1.0000029969942121e+00 1.1223269631270238e-05 0.0000000000000000e+00  9.9996237056632309e-01 7.2934792837656475e-06 0.0000000000000000e+00  1.0001267710650985e+00 -2.1315358804105603e-04 0.0000000000000000e+00