<?xml version="1.0"?>
<VTKFile type="UnstructuredGrid"  version="0.1"  >
<UnstructuredGrid>
<Piece  NumberOfPoints="9509" NumberOfCells="18536">
<Points>
<DataArray  type="Float64"  NumberOfComponents="3"  format="ascii">-5 -1 0  5 -1 0  5 1 0  -5 1 0  -4.949999999999965 -1 0  -4.899999999999877 -1 0  -4.849999999999826 -1 0  -4.799999999999754 -1 0  -4.749999999999695 -1 0  -4.69999999999963 -1 0  -4.649999999999565 -1 0  -4.599999999999507 -1 0  -4.549999999999454 -1 0  -4.499999999999384 -1 0  -4.449999999999317 -1 0  -4.399999999999261 -1 0  -4.349999999999206 -1 0  -4.299999999999137 -1 0  -4.249999999999075 -1 0  -4.199999999999013 -1 0  -4.149999999998934 -1 0  -4.09999999999889 -1 0  -4.049999999998847 -1 0  -3.999999999998767 -1 0  -3.949999999998706 -1 0  -3.899999999998644 -1 0  -3.849999999998594 -1 0  -3.799999999998552 -1 0  -3.749999999998549 -1 0  -3.699999999998651 -1 0  -3.649999999998804 -1 0  -3.59999999999894 -1 0  -3.549999999999097 -1 0  -3.499999999999261 -1 0  -3.449999999999394 -1 0  -3.399999999999582 -1 0  -3.349999999999742 -1 0  -3.299999999999902 -1 0  -3.25000000000006 -1 0  -3.200000000000223 -1 0  -3.150000000000369 -1 0  -3.100000000000544 -1 0  -3.050000000000704 -1 0  -3.000000000000864 -1 0  -2.950000000001029 -1 0  -2.900000000001185 -1 0  -2.850000000001347 -1 0  -2.800000000001506 -1 0  -2.750000000001665 -1 0  -2.700000000001827 -1 0  -2.650000000001979 -1 0  -2.600000000002148 -1 0  -2.550000000002311 -1 0  -2.500000000002468 -1 0  -2.450000000002635 -1 0  -2.400000000002789 -1 0  -2.35000000000295 -1 0  -2.30000000000311 -1 0  -2.250000000003253 -1 0  -2.200000000003431 -1 0  -2.150000000003601 -1 0  -2.100000000003752 -1 0  -2.050000000003922 -1 0  -2.000000000004072 -1 0  -1.950000000004237 -1 0  -1.900000000004393 -1 0  -1.850000000004541 -1 0  -1.800000000004714 -1 0  -1.750000000004886 -1 0  -1.700000000005035 -1 0  -1.650000000005206 -1 0  -1.600000000005355 -1 0  -1.550000000005516 -1 0  -1.500000000005676 -1 0  -1.450000000005824 -1 0  -1.400000000005996 -1 0  -1.350000000006146 -1 0  -1.300000000006318 -1 0  -1.250000000006505 -1 0  -1.200000000006638 -1 0  -1.150000000006797 -1 0  -1.100000000006959 -1 0  -1.050000000007106 -1 0  -1.000000000007245 -1 0  -0.9500000000072193 -1 0  -0.9000000000072612 -1 0  -0.8500000000071966 -1 0  -0.8000000000071381 -1 0  -0.750000000007085 -1 0  -0.700000000007015 -1 0  -0.6500000000069521 -1 0  -0.6000000000068919 -1 0  -0.5500000000068104 -1 0  -0.5000000000067688 -1 0  -0.4500000000067104 -1 0  -0.4000000000066457 -1 0  -0.3500000000065757 -1 0  -0.3000000000065226 -1 0  -0.2500000000064961 -1 0  -0.2000000000063995 -1 0  -0.1500000000063775 -1 0  -0.1000000000062764 -1 0  -0.0500000000062597 -1 0  -6.153300091682468e-12 -1 0  0.04999999999390781 -1 0  0.09999999999396891 -1 0  0.14999999999403 -1 0  0.1999999999940929 -1 0  0.2499999999941318 -1 0  0.299999999994216 -1 0  0.349999999994254 -1 0  0.3999999999943391 -1 0  0.4499999999944038 -1 0  0.4999999999944613 -1 0  0.5499999999945429 -1 0  0.5999999999945853 -1 0  0.6499999999946606 -1 0  0.6999999999947084 -1 0  0.7499999999947651 -1 0  0.7999999999948315 -1 0  0.8499999999948926 -1 0  0.8999999999949537 -1 0  0.9499999999950148 -1 0  0.9999999999950768 -1 0  1.049999999995139 -1 0  1.0999999999952 -1 0  1.149999999995266 -1 0  1.199999999995324 -1 0  1.249999999995385 -1 0  1.299999999995446 -1 0  1.349999999995488 -1 0  1.399999999995569 -1 0  1.449999999995604 -1 0  1.499999999995692 -1 0  1.549999999995753 -1 0  1.599999999995816 -1 0  1.649999999995892 -1 0  1.699999999995939 -1 0  1.749999999996017 -1 0  1.799999999996063 -1 0  1.849999999996111 -1 0  1.899999999996185 -1 0  1.949999999996246 -1 0  1.999999999996308 -1 0  2.049999999996351 -1 0  2.099999999996431 -1 0  2.149999999996504 -1 0  2.199999999996555 -1 0  2.249999999996616 -1 0  2.299999999996677 -1 0  2.349999999996736 -1 0  2.3999999999968 -1 0  2.449999999996847 -1 0  2.499999999996923 -1 0  2.549999999997 -1 0  2.599999999997047 -1 0  2.649999999997093 -1 0  2.69999999999717 -1 0  2.749999999997245 -1 0  2.799999999997293 -1 0  2.849999999997344 -1 0  2.899999999997416 -1 0  2.949999999997469 -1 0  2.999999999997539 -1 0  3.049999999997576 -1 0  3.099999999997662 -1 0  3.149999999997725 -1 0  3.199999999997784 -1 0  3.249999999997829 -1 0  3.299999999997908 -1 0  3.349999999997921 -1 0  3.39999999999803 -1 0  3.4499999999981 -1 0  3.499999999998153 -1 0  3.549999999998214 -1 0  3.599999999998277 -1 0  3.649999999998409 -1 0  3.699999999998401 -1 0  3.749999999998444 -1 0  3.799999999998523 -1 0  3.849999999998602 -1 0  3.899999999998645 -1 0  3.949999999998658 -1 0  3.999999999998769 -1 0  4.049999999998814 -1 0  4.099999999998893 -1 0  4.149999999998883 -1 0  4.199999999999015 -1 0  4.249999999999064 -1 0  4.299999999999137 -1 0  4.349999999999152 -1 0  4.399999999999261 -1 0  4.44999999999933 -1 0  4.499999999999385 -1 0  4.549999999999446 -1 0  4.599999999999508 -1 0  4.649999999999633 -1 0  4.699999999999632 -1 0  4.749999999999723 -1 0  4.799999999999754 -1 0  4.849999999999801 -1 0  4.899999999999876 -1 0  4.949999999999925 -1 0  5 -0.950000000000111 0  5 -0.9000000000002774 0  5 -0.8500000000004283 0  5 -0.8000000000005548 0  5 -0.7500000000006787 0  5 -0.7000000000008322 0  5 -0.6500000000009709 0  5 -0.6000000000011096 0  5 -0.5500000000012484 0  5 -0.500000000001387 0  5 -0.4500000000015256 0  5 -0.4000000000016644 0  5 -0.3500000000018031 0  5 -0.3000000000019418 0  5 -0.2500000000020806 0  5 -0.2000000000022192 0  5 -0.1500000000023578 0  5 -0.1000000000024964 0  5 -0.05000000000262439 0  5 -2.752242878045763e-12 0  5 0.0499999999973757 0  5 0.09999999999750342 0  5 0.1499999999976422 0  5 0.1999999999977808 0  5 0.2499999999979194 0  5 0.2999999999980583 0  5 0.3499999999981969 0  5 0.3999999999983355 0  5 0.4499999999984743 0  5 0.4999999999986129 0  5 0.5499999999987515 0  5 0.5999999999988903 0  5 0.6499999999990291 0  5 0.699999999999168 0  5 0.7499999999993068 0  5 0.7999999999994454 0  5 0.849999999999584 0  5 0.8999999999997226 0  5 0.9499999999998612 0  4.949999999999965 1 0  4.899999999999877 1 0  4.849999999999826 1 0  4.799999999999754 1 0  4.749999999999695 1 0  4.69999999999963 1 0  4.649999999999565 1 0  4.599999999999507 1 0  4.549999999999454 1 0  4.499999999999384 1 0  4.449999999999317 1 0  4.399999999999261 1 0  4.349999999999206 1 0  4.299999999999137 1 0  4.249999999999075 1 0  4.199999999999013 1 0  4.149999999998934 1 0  4.09999999999889 1 0  4.049999999998847 1 0  3.999999999998767 1 0  3.949999999998706 1 0  3.899999999998644 1 0  3.849999999998594 1 0  3.799999999998552 1 0  3.749999999998549 1 0  3.699999999998651 1 0  3.649999999998804 1 0  3.59999999999894 1 0  3.549999999999097 1 0  3.499999999999261 1 0  3.449999999999394 1 0  3.399999999999582 1 0  3.349999999999742 1 0  3.299999999999902 1 0  3.25000000000006 1 0  3.200000000000223 1 0  3.150000000000369 1 0  3.100000000000544 1 0  3.050000000000704 1 0  3.000000000000864 1 0  2.950000000001029 1 0  2.900000000001185 1 0  2.850000000001347 1 0  2.800000000001506 1 0  2.750000000001665 1 0  2.700000000001827 1 0  2.650000000001979 1 0  2.600000000002148 1 0  2.550000000002311 1 0  2.500000000002468 1 0  2.450000000002635 1 0  2.400000000002789 1 0  2.35000000000295 1 0  2.30000000000311 1 0  2.250000000003253 1 0  2.200000000003431 1 0  2.150000000003601 1 0  2.100000000003752 1 0  2.050000000003922 1 0  2.000000000004072 1 0  1.950000000004237 1 0  1.900000000004393 1 0  1.850000000004541 1 0  1.800000000004714 1 0  1.750000000004886 1 0  1.700000000005035 1 0  1.650000000005206 1 0  1.600000000005355 1 0  1.550000000005516 1 0  1.500000000005676 1 0  1.450000000005824 1 0  1.400000000005996 1 0  1.350000000006146 1 0  1.300000000006318 1 0  1.250000000006505 1 0  1.200000000006638 1 0  1.150000000006797 1 0  1.100000000006959 1 0  1.050000000007106 1 0  1.000000000007245 1 0  0.9500000000072193 1 0  0.9000000000072612 1 0  0.8500000000071966 1 0  0.8000000000071381 1 0  0.750000000007085 1 0  0.700000000007015 1 0  0.6500000000069521 1 0  0.6000000000068919 1 0  0.5500000000068104 1 0  0.5000000000067688 1 0  0.4500000000067104 1 0  0.4000000000066457 1 0  0.3500000000065757 1 0  0.3000000000065226 1 0  0.2500000000064961 1 0  0.2000000000063995 1 0  0.1500000000063775 1 0  0.1000000000062764 1 0  0.0500000000062597 1 0  6.153300091682468e-12 1 0  -0.04999999999390781 1 0  -0.09999999999396891 1 0  -0.14999999999403 1 0  -0.1999999999940929 1 0  -0.2499999999941318 1 0  -0.299999999994216 1 0  -0.349999999994254 1 0  -0.3999999999943391 1 0  -0.4499999999944038 1 0  -0.4999999999944613 1 0  -0.5499999999945429 1 0  -0.5999999999945853 1 0  -0.6499999999946606 1 0  -0.6999999999947084 1 0  -0.7499999999947651 1 0  -0.7999999999948315 1 0  -0.8499999999948926 1 0  -0.8999999999949537 1 0  -0.9499999999950148 1 0  -0.9999999999950768 1 0  -1.049999999995139 1 0  -1.0999999999952 1 0  -1.149999999995266 1 0  -1.199999999995324 1 0  -1.249999999995385 1 0  -1.299999999995446 1 0  -1.349999999995488 1 0  -1.399999999995569 1 0  -1.449999999995604 1 0  -1.499999999995692 1 0  -1.549999999995753 1 0  -1.599999999995816 1 0  -1.649999999995892 1 0  -1.699999999995939 1 0  -1.749999999996017 1 0  -1.799999999996063 1 0  -1.849999999996111 1 0  -1.899999999996185 1 0  -1.949999999996246 1 0  -1.999999999996308 1 0  -2.049999999996351 1 0  -2.099999999996431 1 0  -2.149999999996504 1 0  -2.199999999996555 1 0  -2.249999999996616 1 0  -2.299999999996677 1 0  -2.349999999996736 1 0  -2.3999999999968 1 0  -2.449999999996847 1 0  -2.499999999996923 1 0  -2.549999999997 1 0  -2.599999999997047 1 0  -2.649999999997093 1 0  -2.69999999999717 1 0  -2.749999999997245 1 0  -2.799999999997293 1 0  -2.849999999997344 1 0  -2.899999999997416 1 0  -2.949999999997469 1 0  -2.999999999997539 1 0  -3.049999999997576 1 0  -3.099999999997662 1 0  -3.149999999997725 1 0  -3.199999999997784 1 0  -3.249999999997829 1 0  -3.29999
[...]
<PointData  Vectors="(h, u)"> 
<DataArray  type="Float64"  Name="(h, u)"  NumberOfComponents="3" format="ascii">9.9899055010711848e+00 0.0000000000000000e+00 0.0000000000000000e+00  9.9999999999999378e-01 0.0000000000000000e+00 0.0000000000000000e+00  9.9999999999999900e-01 0.0000000000000000e+00 0.0000000000000000e+00  9.9801565778932098e+00 0.0000000000000000e+00 0.0000000000000000e+00  1.0012879006106759e+01 6.5151192910520277e-03 0.0000000000000000e+00  9.9865516020236988e+00 1.9596425380627707e-02 0.0000000000000000e+00  1.0005417777340977e+01 -1.4680045598383523e-03 0.0000000000000000e+00  9.9879240424452842e+00 -5.7924561251129188e-03 0.0000000000000000e+00  1.0009024452402160e+01 1.3912621567442988e-02 0.0000000000000000e+00  9.9816094557237758e+00 -2.1077401314856723e-02 0.0000000000000000e+00  1.0011601584459264e+01 1.0543431233365928e-02 0.0000000000000000e+00  9.9682194127415329e+00 4.7204900135319992e-02 0.0000000000000000e+00  1.0008286274880383e+01 -6.0396688947096787e-02 0.0000000000000000e+00  9.9960429308089918e+00 -1.5927539197338289e-02 0.0000000000000000e+00  9.9845493333317492e+00 4.6385998187514550e-02 0.0000000000000000e+00  9.9861980902521470e+00 -5.3060809422275639e-02 0.0000000000000000e+00  1.0025445198200670e+01 4.8947353612930726e-03 0.0000000000000000e+00  9.9540675853699909e+00 8.0637881996281219e-03 0.0000000000000000e+00  1.0011068039245888e+01 -8.1008062360553874e-03 0.0000000000000000e+00  1.0012234425316734e+01 -1.7490433059344154e-02 0.0000000000000000e+00  9.9615267175473878e+00 1.7581650858544292e-02 0.0000000000000000e+00  1.0002377316931424e+01 -1.1508393628309962e-02 0.0000000000000000e+00  1.0031467687149378e+01 6.2221553023373722e-03 0.0000000000000000e+00  9.9348625667944557e+00 -1.4488017627439339e-02 0.0000000000000000e+00  1.0027188838508936e+01 2.2517554526596310e-02 0.0000000000000000e+00  1.0016603529879896e+01 -9.4182254357863000e-03 0.0000000000000000e+00  9.9399660144851971e+00 -5.2488349319900086e-03 0.0000000000000000e+00  1.0020318595407135e+01 1.2502865476314084e-02 0.0000000000000000e+00  1.0029795877993134e+01 1.6873168778756231e-02 0.0000000000000000e+00  9.9187369902650921e+00 -3.5924405075584212e-02 0.0000000000000000e+00  1.0037435476217480e+01 4.0801782231626491e-02 0.0000000000000000e+00  1.0016309361622392e+01 -8.4731771707440386e-04 0.0000000000000000e+00  9.9264834545831864e+00 -1.8268721387390333e-02 0.0000000000000000e+00  1.0024641826439190e+01 2.0008651077443713e-02 0.0000000000000000e+00  1.0028312516163751e+01 2.7193965891230281e-02 0.0000000000000000e+00  9.9118458076326323e+00 -4.1660445233354382e-02 0.0000000000000000e+00  1.0032711177692040e+01 4.1785343637342036e-02 0.0000000000000000e+00  1.0013540107719841e+01 8.9176988566548408e-03 0.0000000000000000e+00  9.9250260850737657e+00 -1.1950985539608721e-02 0.0000000000000000e+00  1.0009918251610527e+01 1.6436334216651458e-02 0.0000000000000000e+00  1.0020473448967632e+01 3.9988781201902891e-02 0.0000000000000000e+00  9.9111130173131148e+00 -2.1146592203645207e-02 0.0000000000000000e+00  1.0005673506719784e+01 4.2173120181991298e-02 0.0000000000000000e+00  9.9926237871025752e+00 3.0197900449283863e-02 0.0000000000000000e+00  9.9146631221121364e+00 2.8416543338653899e-02 0.0000000000000000e+00  9.9640686055608683e+00 3.5847935815972704e-02 0.0000000000000000e+00  9.9718596179390211e+00 7.9549467260107809e-02 0.0000000000000000e+00  9.8757801575845434e+00 5.4728298788241245e-02 0.0000000000000000e+00  9.9236110291384705e+00 9.5750470982655753e-02 0.0000000000000000e+00  9.9011801422177186e+00 1.1347784636002138e-01 0.0000000000000000e+00  9.8255574698452950e+00 1.5104477840477334e-01 0.0000000000000000e+00  9.8302148624123760e+00 1.5598575447934082e-01 0.0000000000000000e+00  9.8093298038882839e+00 2.2228563282966873e-01 0.0000000000000000e+00  9.7141726631414933e+00 2.5638092930828521e-01 0.0000000000000000e+00  9.7083071398014873e+00 2.9365738493255678e-01 0.0000000000000000e+00  9.6562312903139951e+00 3.5159582197920536e-01 0.0000000000000000e+00  9.5640530904232595e+00 4.3562536687046993e-01 0.0000000000000000e+00  9.5261386361025480e+00 4.6237289602800818e-01 0.0000000000000000e+00  9.4634704531531231e+00 5.5331499787899474e-01 0.0000000000000000e+00  9.3543731498837221e+00 6.5096540021790661e-01 0.0000000000000000e+00  9.3032164034497082e+00 6.9374555078785527e-01 0.0000000000000000e+00  9.2192054982688596e+00 7.9735124975924465e-01 0.0000000000000000e+00  9.1034521565281459e+00 9.1692775307748242e-01 0.0000000000000000e+00  9.0354309605711514e+00 9.7291822010402262e-01 0.0000000000000000e+00  8.9387518239738277e+00 1.0813875139881890e+00 0.0000000000000000e+00  8.8137097057352669e+00 1.2347080059221649e+00 0.0000000000000000e+00  8.7351512504762621e+00 1.2764335516908623e+00 0.0000000000000000e+00  8.6289320708191006e+00 1.4214162011706055e+00 0.0000000000000000e+00  8.4944374975987085e+00 1.5620155202262784e+00 0.0000000000000000e+00  8.4117764171487774e+00 1.6402104446815975e+00 0.0000000000000000e+00  8.2963925166734036e+00 1.7598555994485883e+00 0.0000000000000000e+00  8.1563439004326952e+00 1.9538390999018935e+00 0.0000000000000000e+00  8.0697141752019093e+00 1.9913764927320419e+00 0.0000000000000000e+00  7.9509955609007807e+00 2.1621694426849229e+00 0.0000000000000000e+00  7.8037375361299066e+00 2.3275753950239406e+00 0.0000000000000000e+00  7.7162259650162568e+00 2.4027993032828650e+00 0.0000000000000000e+00  7.5984140150004746e+00 2.5416847434505265e+00 0.0000000000000000e+00  7.4401048782414749e+00 2.7595888529677661e+00 0.0000000000000000e+00  7.3599556554154493e+00 2.7921688086380207e+00 0.0000000000000000e+00  7.2376654432301040e+00 2.9682164644106166e+00 0.0000000000000000e+00  7.0778070383904463e+00 3.1709280687820978e+00 0.0000000000000000e+00  6.9946009440630927e+00 3.2275209502009972e+00 0.0000000000000000e+00  6.8857755477316225e+00 3.3671767811725717e+00 0.0000000000000000e+00  6.7035549403801555e+00 3.6281007782086760e+00 0.0000000000000000e+00  6.6415424554918898e+00 3.6356839686491758e+00 0.0000000000000000e+00  6.5229991254295125e+00 3.8212028816738148e+00 0.0000000000000000e+00  6.3420565424658601e+00 4.0421614655542939e+00 0.0000000000000000e+00  6.2765379105241044e+00 4.1061778338746251e+00 0.0000000000000000e+00  6.1782619628399242e+00 4.2307141503931920e+00 0.0000000000000000e+00  5.9634833929477962e+00 4.5260226577259139e+00 0.0000000000000000e+00  5.9354266122181381e+00 4.5214082265237785e+00 0.0000000000000000e+00  5.8173224113986048e+00 4.7000929308449466e+00 0.0000000000000000e+00  5.6096313349125015e+00 4.9737976764157077e+00 0.0000000000000000e+00  5.5803060809801694e+00 4.9809973506926752e+00 0.0000000000000000e+00  5.4870735063592893e+00 5.1316607987247096e+00 0.0000000000000000e+00  5.2384979818243425e+00 5.4577368676277169e+00 0.0000000000000000e+00  5.2558265234014980e+00 5.4191024570962822e+00 0.0000000000000000e+00  5.1509733535315831e+00 5.5713393679221621e+00 0.0000000000000000e+00  4.9125877586322622e+00 5.9160053631159633e+00 0.0000000000000000e+00  4.9091389283369233e+00 5.8773222335445574e+00 0.0000000000000000e+00  4.8495798077230257e+00 6.0069553612188189e+00 0.0000000000000000e+00  4.5742746543983319e+00 6.3734923161644979e+00 0.0000000000000000e+00  4.5753439512506109e+00 6.3694569097820333e+00 0.0000000000000000e+00  4.4475188601207796e+00 6.5484822281437820e+00 0.0000000000000000e+00  4.3566825666154241e+00 6.7141071278456810e+00 0.0000000000000000e+00  4.2468889617897263e+00 6.8405266290258968e+00 0.0000000000000000e+00  4.1659579772637967e+00 6.9977584346796560e+00 0.0000000000000000e+00  4.0352667596235205e+00 7.1691734543090790e+00 0.0000000000000000e+00  4.0006191513915237e+00 7.2607994867059515e+00 0.0000000000000000e+00  3.8445015777398051e+00 7.4939279441606423e+00 0.0000000000000000e+00  3.7628411461612230e+00 7.6202204670065683e+00 0.0000000000000000e+00  3.6443230920009655e+00 7.7618006320556736e+00 0.0000000000000000e+00  3.6440225282892835e+00 7.7741419384658439e+00 0.0000000000000000e+00  3.8703981487532237e+00 7.4241751528690534e+00 0.0000000000000000e+00  3.9062371112090175e+00 7.3623688730812429e+00 0.0000000000000000e+00  3.8538571052648343e+00 7.4282005437394387e+00 0.0000000000000000e+00  3.8495903464309302e+00 7.4311622664585535e+00 0.0000000000000000e+00  3.8682266668787331e+00 7.4071548614975562e+00 0.0000000000000000e+00  3.8936433297246280e+00 7.3765665989213307e+00 0.0000000000000000e+00  3.9100263060695988e+00 7.3575749437268820e+00 0.0000000000000000e+00  3.9106169917468181e+00 7.3587997410137858e+00 0.0000000000000000e+00  3.9042411311723479e+00 7.3678911380391883e+00 0.0000000000000000e+00  3.9082131711212567e+00 7.3617689968917954e+00 0.0000000000000000e+00  3.9213672149700840e+00 7.3453285529649488e+00 0.0000000000000000e+00  3.9344421129003608e+00 7.3310624064534817e+00 0.0000000000000000e+00  3.9387178492999557e+00 7.3270601971039531e+00 0.0000000000000000e+00  3.9310150469525262e+00 7.3361592439230243e+00 0.0000000000000000e+00  3.9202135875294584e+00 7.3466190114978556e+00 0.0000000000000000e+00  3.9162807771488954e+00 7.3476283571994125e+00 0.0000000000000000e+00  3.9182756151408888e+00 7.3430934278439404e+00 0.0000000000000000e+00  3.9224767541474930e+00 7.3374372240129526e+00 0.0000000000000000e+00  3.9251369020796627e+00 7.3336911834307061e+00 0.0000000000000000e+00  3.9235666235641227e+00 7.3344125068869088e+00 0.0000000000000000e+00  3.9209414820834967e+00 7.3347258676715619e+00 0.0000000000000000e+00  3.9201440894588138e+00 7.3320480445352167e+00 0.0000000000000000e+00  3.9199070955235498e+00 7.3297496150886321e+00 0.0000000000000000e+00  3.9206172847503238e+00 7.3273819353279501e+00 0.0000000000000000e+00  3.9225909701620698e+00 7.3250832118852403e+00 0.0000000000000000e+00  3.9239692458511675e+00 7.3257775112238193e+00 0.0000000000000000e+00  3.9247892780936016e+00 7.3280566966166756e+00 0.0000000000000000e+00  3.9258183298754186e+00 7.3299675325614668e+00 0.0000000000000000e+00  3.9261225678302547e+00 7.3316915515138472e+00 0.0000000000000000e+00  3.9251936488621220e+00 7.3309496803200771e+00 0.0000000000000000e+00  3.9224999984404207e+00 7.3247098650725100e+00 0.0000000000000000e+00  3.9152294253369151e+00 7.3091532641859835e+00 0.0000000000000000e+00  3.8971222919655495e+00 7.2739005611923231e+00 0.0000000000000000e+00  3.8558031262715882e+00 7.1994860986374283e+00 0.0000000000000000e+00  3.7678338234325390e+00 7.0470894516909510e+00 0.0000000000000000e+00  3.5808976842933071e+00 6.7222098705008637e+00 0.0000000000000000e+00  3.2018224187393489e+00 6.0268008030170979e+00 0.0000000000000000e+00  2.5182064870148975e+00 4.5805658163954677e+00 0.0000000000000000e+00  1.5431094030315198e+00 1.8192700764926093e+00 0.0000000000000000e+00  1.0256094664148809e+00 5.2333553195891135e-02 0.0000000000000000e+00  1.0001732219790338e+00 1.2266098955610620e-03 0.0000000000000000e+00  9.9957961452571475e-01 1.4140570011172689e-03 0.0000000000000000e+00  1.0002498352043352e+00 -7.8212188761861130e-04 0.0000000000000000e+00  9.9989706872763895e-01 3.2766936177982696e-04 0.0000000000000000e+00  1.0000441105297355e+00 -1.4228024794924710e-04 0.0000000000000000e+00  9.9997512377734998e-01 8.1109521985764859e-05 0.0000000000000000e+00  1.0000211199177775e+00 -6.8075267236534593e-05 0.0000000000000000e+00  9.9997675500403083e-01 7.3426886915660595e-05 0.0000000000000000e+00  1.0000256080042549e+00 -7.9709890615461566e-05 0.0000000000000000e+00  9.9997475250965306e-01 7.7752118945137468e-05 0.0000000000000000e+00  1.0000221031657737e+00 -6.7339744831711119e-05 0.0000000000000000e+00  9.9998225814397623e-01 5.3327840285169685e-05 0.0000000000000000e+00  1.0000136832114368e+00 -4.0425790694091751e-05 0.0000000000000000e+00  9.9998942208552621e-01 3.0653099339648289e-05 0.0000000000000000e+00  1.0000083319902597e+00 -2.3700475171174218e-05 0.0000000000000000e+00  9.9999340426126260e-01 1.8453927071773046e-05 0.0000000000000000e+00  1.0000051175768057e+00 -1.4092855492801016e-05 0.0000000000000000e+00  9.9999617496966653e-01 1.0352627247186766e-05 0.0000000000000000e+00  1.0000027441374484e+00 -7.2790458044240770e-06 0.0000000000000000e+00  9.9999809670740292e-01 4.9347099162645474e-06 0.0000000000000000e+00  1.0000012915247123e+00 -3.2696234153595264e-06 0.0000000000000000e+00  9.9999913419791930e-01 2.1429999508671115e-06 0.0000000000000000e+00  1.0000005749165415e+00 -1.3950548087097786e-06 0.0000000000000000e+00  9.9999962356581495e-01 8.9738346198050979e-07 0.0000000000000000e+00  1.0000002412209965e+00 -5.6498247247007516e-07 0.0000000000000000e+00  9.9999984952604026e-01 3.4558681140903590e-07 0.0000000000000000e+00  1.0000000913650404e+00 -2.0520706963961219e-07 0.0000000000000000e+00  9.9999994571184836e-01 1.1908696684019867e-07 0.0000000000000000e+00  1.0000000318371147e+00 -6.8339964165380632e-08 0.0000000000000000e+00  9.9999998143262669e-01 3.9215689690048872e-08 0.0000000000000000e+00  1.0000000107993674e+00 -2.2601296514767568e-08 0.0000000000000000e+00  9.9999999375191917e-01 1.3027508682930870e-08 0.0000000000000000e+00  1.0000000035772267e+00 -7.4455205926187981e-09 0.0000000000000000e+00  9.9999999798016359e-01 4.1929474944415462e-09 0.0000000000000000e+00  1.0000000011261563e+00 -2.3282087296858580e-09 0.0000000000000000e+00  9.9999999937644923e-01 1.2842370889600819e-09 0.0000000000000000e+00  1.0000000003452032e+00 -7.1032381024310549e-10 0.0000000000000000e+00  9.9999999980834597e-01 3.9554797211082906e-10 0.0000000000000000e+00  1.0000000001063356e+00 -2.2052754957807705e-10 0.0000000000000000e+00  9.9999999994153399e-01 1.2156405353000985e-10 0.0000000000000000e+00  1.0000000000315830e+00 -6.5432072893406600e-11 0.0000000000000000e+00  9.9999999998331557e-01 3.4159837840774012e-11 0.0000000000000000e+00  1.0000000000086318e+00 -1.7331337598791909e-11 0.0000000000000000e+00  9.9999999999560873e-01 8.6046774845014757e-12 0.0000000000000000e+00  1.0000000000022173e+00 -4.2388923732893130e-12 0.0000000000000000e+00  9.9999999999890377e-01 2.0283881929710123e-12 0.0000000000000000e+00  1.0000000000005358e+00 -9.6177199154682604e-13 0.0000000000000000e+00  9.9999999999975853e-01 3.9575200381266558e-13 0.0000000000000000e+00  1.0000000000001064e+00 -1.5811953945627702e-13 0.0000000000000000e+00  9.9999999999994615e-01 3.3422072011136094e-14 0.0000000000000000e+00  1.0000000000000167e+00 0.0000000000000000e+00 -9.7095796937200712e-15  1.0000000000001448e+00 0.0000000000000000e+00 -1.7363829148398012e-13  1.0000000000000444e+00 0.0000000000000000e+00 1.5733546821065456e-13  9.9999999999992906e-01 0.0000000000000000e+00 -1.7363949691588222e-13  1.0000000000000411e+00 0.0000000000000000e+00 -6.4470766912166898e-14  1.0000000000002929e+00 0.0000000000000000e+00 -3.9978145348436688e-13  1.0000000000000713e+00 0.0000000000000000e+00 2.9979678895507180e-13  9.9999999999993494e-01 0.0000000000000000e+00 -2.7184084463329577e-13  1.0000000000000830e+00 0.0000000000000000e+00 -7.2326317568279613e-14  1.0000000000005111e+00 0.0000000000000000e+00 -5.7687286957480255e-13  1.0000000000000273e+00 0.0000000000000000e+00 -3.5637365659781389e-14  1.0000000000002416e+00 0.0000000000000000e+00 -3.6330461244599629e-13  1.0000000000006051e+00 0.0000000000000000e+00 3.6862500309645708e-13  1.0000000000004492e+00 0.0000000000000000e+00 -2.2738124721806715e-13  9.9999999999975275e-01 0.0000000000000000e+00 6.0853998351828710e-13  1.0000000000003673e+00 0.0000000000000000e+00 -4.1588610713951540e-13  1.0000000000002116e+00 0.0000000000000000e+00 1.5589009315094881e-13  9.9999999999998690e-01 0.0000000000000000e+00 -1.5323938953533365e-13  9.9999999999999745e-01 0.0000000000000000e+00 2.5595770875503125e-13  1.0000000000003821e+00 0.0000000000000000e+00 -5.9512670417496384e-13  9.9999999999997902e-01 0.0000000000000000e+00 4.3865991633507768e-13  1.0000000000000280e+00 0.0000000000000000e+00 -1.3947575803639774e-13  9.9999999999999278e-01 0.0000000000000000e+00 8.3021153285577161e-14  1.0000000000000953e+00 0.0000000000000000e+00 -1.5682689572185520e-13  9.9999999999998535e-01 0.0000000000000000e+00 1.1579177619236310e-13  1.0000000000000091e+00 0.0000000000000000e+00 -2.7107662911536865e-14  9.9999999999999034e-01 0.0000000000000000e+00 1.9937119601510210e-14  1.0000000000000064e+00 0.0000000000000000e+00 -1.9028536654088375e-14  9.9999999999999423e-01 0.0000000000000000e+00 1.6091136380674916e-14  1.0000000000000000e+00 0.0000000000000000e+00 -9.5602561024808212e-15  9.9999999999999611e-01 0.0000000000000000e+00 4.3267905233158484e-15  1.0000000000000009e+00 0.0000000000000000e+00 -5.4431668176311937e-15  9.9999999999999967e-01 0.0000000000000000e+00 1.9867828727049411e-15  9.9999999999999889e-01 0.0000000000000000e+00 -2.9107918026740914e-16  9.9999999999999900e-01 0.0000000000000000e+00 3.3412732695686493e-16  9.9999999999999889e-01 0.0000000000000000e+00 -1.0390690847681977e-15  1.0000000000000007e+00 0.0000000000000000e+00 -2.7334958212418230e-16  9.9999999999999967e-01 0.0000000000000000e+00 -3.9197120999356266e-16  1.0000000000000016e+00 0.0000000000000000e+00 1.8870629271125717e-15  1.0000000000000018e+00 -2.0566024817679575e-15 0.0000000000000000e+00  9.9999999999999778e-01 7.1471812568545395e-15 0.0000000000000000e+00  1.0000000000000029e+00 -8.5633395098831383e-15 0.0000000000000000e+00  1.0000000000000002e+00 7.2623863361764353e-15 0.0000000000000000e+00  9.9999999999999034e-01 2.4367448619292338e-14 0.0000000000000000e+00  1.0000000000000331e+00 -1.0080833487959950e-13 0.0000000000000000e+00  9.9999999999995182e-01 1.7685202025380285e-13 0.0000000000000000e+00  1.0000000000000526e+00 -2.0438138328545695e-13 0.0000000000000000e+00  1.0000000000000588e+00 -1.5425121678319114e-13 0.0000000000000000e+00  9.9999999999961386e-01 9.9591348828552546e-13 0.0000000000000000e+00  1.0000000000006692e+00 -2.3916620295460460e-12 0.0000000000000000e+00  9.9999999999923428e-01 2.7506130372858045e-12 0.0000000000000000e+00  9.9999999999937972e-01 9.1212055307608322e-13 0.0000000000000000e+00  1.0000000000039360e+00 -1.0305222545153626e-11 0.0000000000000000e+00  9.9999999999215072e-01 2.1756248680717742e-11 0.0000000000000000e+00  1.0000000000070888e+00 -2.7574563361843980e-11 0.0000000000000000e+00  1.0000000000007647e+00 1.2968049315530624e-11 0.0000000000000000e+00  9.9999999998209688e-01 6.6260885977513192e-11 0.0000000000000000e+00  1.0000000000536888e+00 -2.1588874701734290e-10 0.0000000000000000e+00  9.9999999993187072e-01 1.7858137107681689e-10 0.0000000000000000e+00  9.9999999987638932e-01 3.0549268816739142e-10 0.0000000000000000e+00  1.0000000004571603e+00 -1.3528125066130619e-09 0.0000000000000000e+00  9.9999999927509586e-01 2.1975448163952848e-09 0.0000000000000000e+00  1.0000000001684313e+00 -3.2910756766227214e-10 0.0000000000000000e+00  1.0000000020442312e+00 -6.7321200937538233e-09 0.0000000000000000e+00  9.9999999494319525e-01 1.3445995197678410e-08 0.0000000000000000e+00  1.0000000025406424e+00 -4.1580337565666063e-09 0.0000000000000000e+00  1.0000000086860967e+00 -5.7183927079283400e-08 0.0000000000000000e+00  9.9999996321305362e-01 1.1037150769716967e-07 0.0000000000000000e+00  9.9999998880190855e-01 -1.1488218081496230e-07 0.0000000000000000e+00  1.0000001166684584e+00 -1.8993821470074162e-07 0.0000000000000000e+00  9.9999955623645043e-01 1.1219100662799055e-06 0.0000000000000000e+00  1.0000008894127090e+00 -2.2700249198152317e-06 0.0000000000000000e+00  9.9999879333931163e-01 2.9479574000665129e-06 0.0000000000000000e+00  1.0000009850123086e+00 -3.0996240508156077e-06 0.0000000000000000e+00  9.9999869525749741e-01 5.1492115854138812e-06 0.0000000000000000e+00  1.0000036811259359e+00 -7.6210356545948030e-06 0.0000000000000000e+00  9.9999763440668010e-01 -3.3705804702115300e-06 0.0000000000000000e+00  9.9999775927651080e-01 9.4169741800178052e-06 0.0000000000000000e+00  9.9999215394650076e-01 -3.6672791398176894e-06 0.0000000000000000e+00  1.0000315222774638e+00 -5.4447427966231297e-05 0.000000000000