<?xml version="1.0"?>
<VTKFile type="UnstructuredGrid"  version="0.1"  >
<UnstructuredGrid>
<Piece  NumberOfPoints="9509" NumberOfCells="18536">
<Points>
<DataArray  type="Float64"  NumberOfComponents="3"  format="ascii">-5 -1 0  5 -1 0  5 1 0  -5 1 0  -4.949999999999965 -1 0  -4.899999999999877 -1 0  -4.849999999999826 -1 0  -4.799999999999754 -1 0  -4.749999999999695 -1 0  -4.69999999999963 -1 0  -4.649999999999565 -1 0  -4.599999999999507 -1 0  -4.549999999999454 -1 0  -4.499999999999384 -1 0  -4.449999999999317 -1 0  -4.399999999999261 -1 0  -4.349999999999206 -1 0  -4.299999999999137 -1 0  -4.249999999999075 -1 0  -4.199999999999013 -1 0  -4.149999999998934 -1 0  -4.09999999999889 -1 0  -4.049999999998847 -1 0  -3.999999999998767 -1 0  -3.949999999998706 -1 0  -3.899999999998644 -1 0  -3.849999999998594 -1 0  -3.799999999998552 -1 0  -3.749999999998549 -1 0  -3.699999999998651 -1 0  -3.649999999998804 -1 0  -3.59999999999894 -1 0  -3.549999999999097 -1 0  -3.499999999999261 -1 0  -3.449999999999394 -1 0  -3.399999999999582 -1 0  -3.349999999999742 -1 0  -3.299999999999902 -1 0  -3.25000000000006 -1 0  -3.200000000000223 -1 0  -3.150000000000369 -1 0  -3.100000000000544 -1 0  -3.050000000000704 -1 0  -3.000000000000864 -1 0  -2.950000000001029 -1 0  -2.900000000001185 -1 0  -2.850000000001347 -1 0  -2.800000000001506 -1 0  -2.750000000001665 -1 0  -2.700000000001827 -1 0  -2.650000000001979 -1 0  -2.600000000002148 -1 0  -2.550000000002311 -1 0  -2.500000000002468 -1 0  -2.450000000002635 -1 0  -2.400000000002789 -1 0  -2.35000000000295 -1 0  -2.30000000000311 -1 0  -2.250000000003253 -1 0  -2.200000000003431 -1 0  -2.150000000003601 -1 0  -2.100000000003752 -1 0  -2.050000000003922 -1 0  -2.000000000004072 -1 0  -1.950000000004237 -1 0  -1.900000000004393 -1 0  -1.850000000004541 -1 0  -1.800000000004714 -1 0  -1.750000000004886 -1 0  -1.700000000005035 -1 0  -1.650000000005206 -1 0  -1.600000000005355 -1 0  -1.550000000005516 -1 0  -1.500000000005676 -1 0  -1.450000000005824 -1 0  -1.400000000005996 -1 0  -1.350000000006146 -1 0  -1.300000000006318 -1 0  -1.250000000006505 -1 0  -1.200000000006638 -1 0  -1.150000000006797 -1 0  -1.100000000006959 -1 0  -1.050000000007106 -1 0  -1.000000000007245 -1 0  -0.9500000000072193 -1 0  -0.9000000000072612 -1 0  -0.8500000000071966 -1 0  -0.8000000000071381 -1 0  -0.750000000007085 -1 0  -0.700000000007015 -1 0  -0.6500000000069521 -1 0  -0.6000000000068919 -1 0  -0.5500000000068104 -1 0  -0.5000000000067688 -1 0  -0.4500000000067104 -1 0  -0.4000000000066457 -1 0  -0.3500000000065757 -1 0  -0.3000000000065226 -1 0  -0.2500000000064961 -1 0  -0.2000000000063995 -1 0  -0.1500000000063775 -1 0  -0.1000000000062764 -1 0  -0.0500000000062597 -1 0  -6.153300091682468e-12 -1 0  0.04999999999390781 -1 0  0.09999999999396891 -1 0  0.14999999999403 -1 0  0.1999999999940929 -1 0  0.2499999999941318 -1 0  0.299999999994216 -1 0  0.349999999994254 -1 0  0.3999999999943391 -1 0  0.4499999999944038 -1 0  0.4999999999944613 -1 0  0.5499999999945429 -1 0  0.5999999999945853 -1 0  0.6499999999946606 -1 0  0.6999999999947084 -1 0  0.7499999999947651 -1 0  0.7999999999948315 -1 0  0.8499999999948926 -1 0  0.8999999999949537 -1 0  0.9499999999950148 -1 0  0.9999999999950768 -1 0  1.049999999995139 -1 0  1.0999999999952 -1 0  1.149999999995266 -1 0  1.199999999995324 -1 0  1.249999999995385 -1 0  1.299999999995446 -1 0  1.349999999995488 -1 0  1.399999999995569 -1 0  1.449999999995604 -1 0  1.499999999995692 -1 0  1.549999999995753 -1 0  1.599999999995816 -1 0  1.649999999995892 -1 0  1.699999999995939 -1 0  1.749999999996017 -1 0  1.799999999996063 -1 0  1.849999999996111 -1 0  1.899999999996185 -1 0  1.949999999996246 -1 0  1.999999999996308 -1 0  2.049999999996351 -1 0  2.099999999996431 -1 0  2.149999999996504 -1 0  2.199999999996555 -1 0  2.249999999996616 -1 0  2.299999999996677 -1 0  2.349999999996736 -1 0  2.3999999999968 -1 0  2.449999999996847 -1 0  2.499999999996923 -1 0  2.549999999997 -1 0  2.599999999997047 -1 0  2.649999999997093 -1 0  2.69999999999717 -1 0  2.749999999997245 -1 0  2.799999999997293 -1 0  2.849999999997344 -1 0  2.899999999997416 -1 0  2.949999999997469 -1 0  2.999999999997539 -1 0  3.049999999997576 -1 0  3.099999999997662 -1 0  3.149999999997725 -1 0  3.199999999997784 -1 0  3.249999999997829 -1 0  3.299999999997908 -1 0  3.349999999997921 -1 0  3.39999999999803 -1 0  3.4499999999981 -1 0  3.499999999998153 -1 0  3.549999999998214 -1 0  3.599999999998277 -1 0  3.649999999998409 -1 0  3.699999999998401 -1 0  3.749999999998444 -1 0  3.799999999998523 -1 0  3.849999999998602 -1 0  3.899999999998645 -1 0  3.949999999998658 -1 0  3.999999999998769 -1 0  4.049999999998814 -1 0  4.099999999998893 -1 0  4.149999999998883 -1 0  4.199999999999015 -1 0  4.249999999999064 -1 0  4.299999999999137 -1 0  4.349999999999152 -1 0  4.399999999999261 -1 0  4.44999999999933 -1 0  4.499999999999385 -1 0  4.549999999999446 -1 0  4.599999999999508 -1 0  4.649999999999633 -1 0  4.699999999999632 -1 0  4.749999999999723 -1 0  4.799999999999754 -1 0  4.849999999999801 -1 0  4.899999999999876 -1 0  4.949999999999925 -1 0  5 -0.950000000000111 0  5 -0.9000000000002774 0  5 -0.8500000000004283 0  5 -0.8000000000005548 0  5 -0.7500000000006787 0  5 -0.7000000000008322 0  5 -0.6500000000009709 0  5 -0.6000000000011096 0  5 -0.5500000000012484 0  5 -0.500000000001387 0  5 -0.4500000000015256 0  5 -0.4000000000016644 0  5 -0.3500000000018031 0  5 -0.3000000000019418 0  5 -0.2500000000020806 0  5 -0.2000000000022192 0  5 -0.1500000000023578 0  5 -0.1000000000024964 0  5 -0.05000000000262439 0  5 -2.752242878045763e-12 0  5 0.0499999999973757 0  5 0.09999999999750342 0  5 0.1499999999976422 0  5 0.1999999999977808 0  5 0.2499999999979194 0  5 0.2999999999980583 0  5 0.3499999999981969 0  5 0.3999999999983355 0  5 0.4499999999984743 0  5 0.4999999999986129 0  5 0.5499999999987515 0  5 0.5999999999988903 0  5 0.6499999999990291 0  5 0.699999999999168 0  5 0.7499999999993068 0  5 0.7999999999994454 0  5 0.849999999999584 0  5 0.8999999999997226 0  5 0.9499999999998612 0  4.949999999999965 1 0  4.899999999999877 1 0  4.849999999999826 1 0  4.799999999999754 1 0  4.749999999999695 1 0  4.69999999999963 1 0  4.649999999999565 1 0  4.599999999999507 1 0  4.549999999999454 1 0  4.499999999999384 1 0  4.449999999999317 1 0  4.399999999999261 1 0  4.349999999999206 1 0  4.299999999999137 1 0  4.249999999999075 1 0  4.199999999999013 1 0  4.149999999998934 1 0  4.09999999999889 1 0  4.049999999998847 1 0  3.999999999998767 1 0  3.949999999998706 1 0  3.899999999998644 1 0  3.849999999998594 1 0  3.799999999998552 1 0  3.749999999998549 1 0  3.699999999998651 1 0  3.649999999998804 1 0  3.59999999999894 1 0  3.549999999999097 1 0  3.499999999999261 1 0  3.449999999999394 1 0  3.399999999999582 1 0  3.349999999999742 1 0  3.299999999999902 1 0  3.25000000000006 1 0  3.200000000000223 1 0  3.150000000000369 1 0  3.100000000000544 1 0  3.050000000000704 1 0  3.000000000000864 1 0  2.950000000001029 1 0  2.900000000001185 1 0  2.850000000001347 1 0  2.800000000001506 1 0  2.750000000001665 1 0  2.700000000001827 1 0  2.650000000001979 1 0  2.600000000002148 1 0  2.550000000002311 1 0  2.500000000002468 1 0  2.450000000002635 1 0  2.400000000002789 1 0  2.35000000000295 1 0  2.30000000000311 1 0  2.250000000003253 1 0  2.200000000003431 1 0  2.150000000003601 1 0  2.100000000003752 1 0  2.050000000003922 1 0  2.000000000004072 1 0  1.950000000004237 1 0  1.900000000004393 1 0  1.850000000004541 1 0  1.800000000004714 1 0  1.750000000004886 1 0  1.700000000005035 1 0  1.650000000005206 1 0  1.600000000005355 1 0  1.550000000005516 1 0  1.500000000005676 1 0  1.450000000005824 1 0  1.400000000005996 1 0  1.350000000006146 1 0  1.300000000006318 1 0  1.250000000006505 1 0  1.200000000006638 1 0  1.150000000006797 1 0  1.100000000006959 1 0  1.050000000007106 1 0  1.000000000007245 1 0  0.9500000000072193 1 0  0.9000000000072612 1 0  0.8500000000071966 1 0  0.8000000000071381 1 0  0.750000000007085 1 0  0.700000000007015 1 0  0.6500000000069521 1 0  0.6000000000068919 1 0  0.5500000000068104 1 0  0.5000000000067688 1 0  0.4500000000067104 1 0  0.4000000000066457 1 0  0.3500000000065757 1 0  0.3000000000065226 1 0  0.2500000000064961 1 0  0.2000000000063995 1 0  0.1500000000063775 1 0  0.1000000000062764 1 0  0.0500000000062597 1 0  6.153300091682468e-12 1 0  -0.04999999999390781 1 0  -0.09999999999396891 1 0  -0.14999999999403 1 0  -0.1999999999940929 1 0  -0.2499999999941318 1 0  -0.299999999994216 1 0  -0.349999999994254 1 0  -0.3999999999943391 1 0  -0.4499999999944038 1 0  -0.4999999999944613 1 0  -0.5499999999945429 1 0  -0.5999999999945853 1 0  -0.6499999999946606 1 0  -0.6999999999947084 1 0  -0.7499999999947651 1 0  -0.7999999999948315 1 0  -0.8499999999948926 1 0  -0.8999999999949537 1 0  -0.9499999999950148 1 0  -0.9999999999950768 1 0  -1.049999999995139 1 0  -1.0999999999952 1 0  -1.149999999995266 1 0  -1.199999999995324 1 0  -1.249999999995385 1 0  -1.299999999995446 1 0  -1.349999999995488 1 0  -1.399999999995569 1 0  -1.449999999995604 1 0  -1.499999999995692 1 0  -1.549999999995753 1 0  -1.599999999995816 1 0  -1.649999999995892 1 0  -1.699999999995939 1 0  -1.749999999996017 1 0  -1.799999999996063 1 0  -1.849999999996111 1 0  -1.899999999996185 1 0  -1.949999999996246 1 0  -1.999999999996308 1 0  -2.049999999996351 1 0  -2.099999999996431 1 0  -2.149999999996504 1 0  -2.199999999996555 1 0  -2.249999999996616 1 0  -2.299999999996677 1 0  -2.349999999996736 1 0  -2.3999999999968 1 0  -2.449999999996847 1 0  -2.499999999996923 1 0  -2.549999999997 1 0  -2.599999999997047 1 0  -2.649999999997093 1 0  -2.69999999999717 1 0  -2.749999999997245 1 0  -2.799999999997293 1 0  -2.849999999997344 1 0  -2.899999999997416 1 0  -2.949999999997469 1 0  -2.999999999997539 1 0  -3.049999999997576 1 0  -3.099999999997662 1 0  -3.149999999997725 1 0  -3.199999999997784 1 0  -3.249999999997829 1 0  -3.29999
[...]
<PointData  Vectors="(h, u)"> 
<DataArray  type="Float64"  Name="(h, u)"  NumberOfComponents="3" format="ascii">7.9765458105710687e+00 0.0000000000000000e+00 0.0000000000000000e+00  9.4686325420969215e+00 0.0000000000000000e+00 0.0000000000000000e+00  9.4837579363735394e+00 0.0000000000000000e+00 0.0000000000000000e+00  7.9839178559757578e+00 0.0000000000000000e+00 0.0000000000000000e+00  7.9765672286864220e+00 9.3826167507253186e-02 0.0000000000000000e+00  7.9748683801292604e+00 1.8344037131154955e-01 0.0000000000000000e+00  7.9712464157327707e+00 2.7251067305111654e-01 0.0000000000000000e+00  7.9663428117273440e+00 3.6488850464215494e-01 0.0000000000000000e+00  7.9661257010183766e+00 4.5635852035186897e-01 0.0000000000000000e+00  7.9559383006701854e+00 5.4268518281405831e-01 0.0000000000000000e+00  7.9491862438755998e+00 6.3237655512817081e-01 0.0000000000000000e+00  7.9432058534005865e+00 7.3425284627986398e-01 0.0000000000000000e+00  7.9317172463561612e+00 7.9945227327939394e-01 0.0000000000000000e+00  7.9216185378726403e+00 8.9512878547937935e-01 0.0000000000000000e+00  7.9152072027077649e+00 9.9769159817046449e-01 0.0000000000000000e+00  7.8952024422471281e+00 1.0633308528101819e+00 0.0000000000000000e+00  7.8841070509523457e+00 1.1560419609888402e+00 0.0000000000000000e+00  7.8746569446195727e+00 1.2567684340080127e+00 0.0000000000000000e+00  7.8503557001557676e+00 1.3215298347273698e+00 0.0000000000000000e+00  7.8327997092194774e+00 1.4145936658862834e+00 0.0000000000000000e+00  7.8264441930524757e+00 1.5052275677310951e+00 0.0000000000000000e+00  7.7904550461343458e+00 1.5771519914927827e+00 0.0000000000000000e+00  7.7750456431301194e+00 1.6563668664402218e+00 0.0000000000000000e+00  7.7606077971947158e+00 1.7560389192838433e+00 0.0000000000000000e+00  7.7264921107261513e+00 1.8112953265370317e+00 0.0000000000000000e+00  7.6968152160413243e+00 1.9040961560877434e+00 0.0000000000000000e+00  7.6924300424646406e+00 1.9818870796927666e+00 0.0000000000000000e+00  7.6402466632164385e+00 2.0545069854446361e+00 0.0000000000000000e+00  7.6177014712901752e+00 2.1211633426910903e+00 0.0000000000000000e+00  7.5997616796183722e+00 2.2227139059914474e+00 0.0000000000000000e+00  7.5552219696291747e+00 2.2615200356669241e+00 0.0000000000000000e+00  7.5125312123197325e+00 2.3510086697487043e+00 0.0000000000000000e+00  7.5098158816313605e+00 2.4411015032077485e+00 0.0000000000000000e+00  7.4434540585658056e+00 2.4510585911003049e+00 0.0000000000000000e+00  7.4127095697045400e+00 2.6046965847290910e+00 0.0000000000000000e+00  7.3914966058450373e+00 2.5814884546711609e+00 0.0000000000000000e+00  7.3394239064646865e+00 2.7298686171641462e+00 0.0000000000000000e+00  7.2855672893166279e+00 2.7283605321097113e+00 0.0000000000000000e+00  7.2808370393021526e+00 2.8297647743046692e+00 0.0000000000000000e+00  7.2099539255119849e+00 2.9102136893715311e+00 0.0000000000000000e+00  7.1677219943004662e+00 2.8848569543931046e+00 0.0000000000000000e+00  7.1461526980567802e+00 3.0765159264029895e+00 0.0000000000000000e+00  7.0887717818703360e+00 3.0442963390223658e+00 0.0000000000000000e+00  7.0337674799447942e+00 3.0817099088793074e+00 0.0000000000000000e+00  7.0144362754062639e+00 3.2870379080610772e+00 0.0000000000000000e+00  6.9580345943700861e+00 3.1616126408002381e+00 0.0000000000000000e+00  6.9022730729944666e+00 3.3355105166304875e+00 0.0000000000000000e+00  6.8773967703241796e+00 3.3873374024763061e+00 0.0000000000000000e+00  6.8247381864308174e+00 3.3872612023694040e+00 0.0000000000000000e+00  6.7745245556886529e+00 3.5012332272800228e+00 0.0000000000000000e+00  6.7304278808503328e+00 3.5230974250063491e+00 0.0000000000000000e+00  6.6986545756300577e+00 3.6157689845877115e+00 0.0000000000000000e+00  6.6360685358018952e+00 3.6255354545167053e+00 0.0000000000000000e+00  6.5930885900666452e+00 3.7300987602339757e+00 0.0000000000000000e+00  6.5564877626910674e+00 3.7606774615901686e+00 0.0000000000000000e+00  6.5140241489811981e+00 3.8260605702313377e+00 0.0000000000000000e+00  6.4366234617022178e+00 3.8728897955099697e+00 0.0000000000000000e+00  6.4314997124965911e+00 3.9681110148891872e+00 0.0000000000000000e+00  6.3717250877826563e+00 3.9606982819798850e+00 0.0000000000000000e+00  6.3022805703618925e+00 4.0777257407820082e+00 0.0000000000000000e+00  6.2836139194828062e+00 4.1253512058378856e+00 0.0000000000000000e+00  6.2506451170411035e+00 4.1415526856076275e+00 0.0000000000000000e+00  6.1512871367516819e+00 4.2272868214392183e+00 0.0000000000000000e+00  6.1545546890378162e+00 4.3398149765443046e+00 0.0000000000000000e+00  6.1104836800541245e+00 4.2650192993066147e+00 0.0000000000000000e+00  6.0226216110098161e+00 4.4226994940974418e+00 0.0000000000000000e+00  6.0110191401520821e+00 4.5180705662195670e+00 0.0000000000000000e+00  5.9794707298783072e+00 4.4066874824972553e+00 0.0000000000000000e+00  5.8913881848366598e+00 4.6362346840749025e+00 0.0000000000000000e+00  5.8715800138003695e+00 4.6438102748417140e+00 0.0000000000000000e+00  5.8449457965579272e+00 4.6228567314881328e+00 0.0000000000000000e+00  5.7629871795753260e+00 4.7797332041275755e+00 0.0000000000000000e+00  5.7423757018346047e+00 4.8164469348778134e+00 0.0000000000000000e+00  5.6974091140584191e+00 4.8106586680329952e+00 0.0000000000000000e+00  5.6583016489198554e+00 4.9254330729960323e+00 0.0000000000000000e+00  5.5968746241166905e+00 4.9957748579408907e+00 0.0000000000000000e+00  5.5779754970846129e+00 4.9697514656147614e+00 0.0000000000000000e+00  5.5199350023743490e+00 5.1227984627270420e+00 0.0000000000000000e+00  5.4932577496395734e+00 5.1060068350157195e+00 0.0000000000000000e+00  5.4187200252785956e+00 5.2109146923121896e+00 0.0000000000000000e+00  5.4203143132803646e+00 5.2397621537145298e+00 0.0000000000000000e+00  5.3408569990838899e+00 5.3136920212588334e+00 0.0000000000000000e+00  5.3215781854726298e+00 5.3475435050168221e+00 0.0000000000000000e+00  5.2507312446594945e+00 5.4673604197337040e+00 0.0000000000000000e+00  5.2523958770120664e+00 5.4270912525239972e+00 0.0000000000000000e+00  5.1643462180230584e+00 5.5749242895691840e+00 0.0000000000000000e+00  5.1543167214571257e+00 5.5886777681074129e+00 0.0000000000000000e+00  5.0945336007107436e+00 5.6456339641947331e+00 0.0000000000000000e+00  5.0783223960043360e+00 5.7006564248739240e+00 0.0000000000000000e+00  4.9809309107893007e+00 5.8208982487048893e+00 0.0000000000000000e+00  5.0193282459908124e+00 5.7522077981803363e+00 0.0000000000000000e+00  4.9081111163141040e+00 5.9503205855696297e+00 0.0000000000000000e+00  4.8986043978408471e+00 5.9211887509978034e+00 0.0000000000000000e+00  4.8591769184632172e+00 5.9940782308834786e+00 0.0000000000000000e+00  4.8364116040060603e+00 6.0535732208630142e+00 0.0000000000000000e+00  4.7279350295864742e+00 6.1508188570514006e+00 0.0000000000000000e+00  4.7735616190588832e+00 6.1410083514723892e+00 0.0000000000000000e+00  4.6894171250912189e+00 6.2452499372246013e+00 0.0000000000000000e+00  4.6555183518366592e+00 6.2608860679012883e+00 0.0000000000000000e+00  4.6341046376935822e+00 6.3644675585858028e+00 0.0000000000000000e+00  4.6003716274697011e+00 6.3361844644757745e+00 0.0000000000000000e+00  4.4820711442972723e+00 6.5629848154809522e+00 0.0000000000000000e+00  4.5736373801269492e+00 6.4108217533043224e+00 0.0000000000000000e+00  4.4686889254310156e+00 6.5571761641275241e+00 0.0000000000000000e+00  4.4143648007843836e+00 6.6449917024735585e+00 0.0000000000000000e+00  4.3367429499079293e+00 6.7643169130837908e+00 0.0000000000000000e+00  4.3713188499609084e+00 6.6972234390028778e+00 0.0000000000000000e+00  4.3076037764545907e+00 6.8266425779961279e+00 0.0000000000000000e+00  4.2687744532216483e+00 6.8333746458436897e+00 0.0000000000000000e+00  4.2022148198743414e+00 6.9845225179643009e+00 0.0000000000000000e+00  4.2016676104284070e+00 6.9409219312863071e+00 0.0000000000000000e+00  4.1018848590001005e+00 7.1177832348847279e+00 0.0000000000000000e+00  4.1036866189014747e+00 7.1141795566677573e+00 0.0000000000000000e+00  4.0586762417724804e+00 7.1652174453137079e+00 0.0000000000000000e+00  4.0713622905910016e+00 7.1867953849032284e+00 0.0000000000000000e+00  3.9709349424379798e+00 7.3037761880385856e+00 0.0000000000000000e+00  4.0031265089064307e+00 7.2906476005222070e+00 0.0000000000000000e+00  3.9560762690960041e+00 7.3593286919543077e+00 0.0000000000000000e+00  3.9813411457091634e+00 7.3463288298526681e+00 0.0000000000000000e+00  3.8199406884498228e+00 7.5482718547416976e+00 0.0000000000000000e+00  3.8425214892747079e+00 7.5397468815822615e+00 0.0000000000000000e+00  3.9167976661184150e+00 7.4273069880561113e+00 0.0000000000000000e+00  3.5843186175885737e+00 7.9214434323160123e+00 0.0000000000000000e+00  3.7700033303544389e+00 7.6609704100924851e+00 0.0000000000000000e+00  3.7968876889412697e+00 7.6165286614893697e+00 0.0000000000000000e+00  3.8549211946580422e+00 7.5059795706736141e+00 0.0000000000000000e+00  3.9103068825343770e+00 7.4140826750942708e+00 0.0000000000000000e+00  4.0850241157387703e+00 7.2033669618743801e+00 0.0000000000000000e+00  3.7714205895101580e+00 7.6079306496926860e+00 0.0000000000000000e+00  4.0490896443829323e+00 7.2411127602588490e+00 0.0000000000000000e+00  4.1411740464557241e+00 7.1043737099071373e+00 0.0000000000000000e+00  3.9999864597429560e+00 7.2999845390805129e+00 0.0000000000000000e+00  3.9842032923668493e+00 7.3283001429281978e+00 0.0000000000000000e+00  3.9968592856738834e+00 7.2919884320751569e+00 0.0000000000000000e+00  4.0758041499307733e+00 7.2020417789063567e+00 0.0000000000000000e+00  3.9932369553021831e+00 7.3271826357897067e+00 0.0000000000000000e+00  3.9241505109930350e+00 7.3793841788908558e+00 0.0000000000000000e+00  3.9703789981915021e+00 7.3438623011615780e+00 0.0000000000000000e+00  3.9573335322632794e+00 7.3607814090647601e+00 0.0000000000000000e+00  3.9566362887938120e+00 7.3404502520638744e+00 0.0000000000000000e+00  3.9353928463441163e+00 7.3791165622694415e+00 0.0000000000000000e+00  3.9910692932671568e+00 7.3275766564845632e+00 0.0000000000000000e+00  3.9547657320453236e+00 7.3417375302065997e+00 0.0000000000000000e+00  3.9398775900190781e+00 7.3677567215948434e+00 0.0000000000000000e+00  3.9821835090274189e+00 7.3636601482313919e+00 0.0000000000000000e+00  3.9463158530033633e+00 7.3164959767209208e+00 0.0000000000000000e+00  3.9858403508083402e+00 7.3555021102785654e+00 0.0000000000000000e+00  3.9545271067834560e+00 7.3525455182059902e+00 0.0000000000000000e+00  3.9700298475664422e+00 7.3517206253529492e+00 0.0000000000000000e+00  3.9730674233372332e+00 7.3034487607376377e+00 0.0000000000000000e+00  3.9978474611847061e+00 7.3928280608615315e+00 0.0000000000000000e+00  3.9216344780261458e+00 7.3107280230398279e+00 0.0000000000000000e+00  4.0067369372177151e+00 7.3595580311207938e+00 0.0000000000000000e+00  3.9814480809909409e+00 7.3225467627175247e+00 0.0000000000000000e+00  3.9770181464869268e+00 7.3525208485958737e+00 0.0000000000000000e+00  3.9577597020107604e+00 7.3040910180889833e+00 0.0000000000000000e+00  4.0377574976633319e+00 7.3932504239377224e+00 0.0000000000000000e+00  3.9283735538973694e+00 7.2617710415736925e+00 0.0000000000000000e+00  4.0029537868565583e+00 7.4073890446237458e+00 0.0000000000000000e+00  3.9673107247814934e+00 7.3244828666854627e+00 0.0000000000000000e+00  3.9841885379040818e+00 7.3297387435273116e+00 0.0000000000000000e+00  3.9601826453272957e+00 7.3473432243556118e+00 0.0000000000000000e+00  3.9993811637824868e+00 7.3863863661047322e+00 0.0000000000000000e+00  3.9367942239928619e+00 7.2914820880255551e+00 0.0000000000000000e+00  4.0072941815880592e+00 7.3882500587016811e+00 0.0000000000000000e+00  3.9496223582432144e+00 7.3448343505661509e+00 0.0000000000000000e+00  3.9759272072929992e+00 7.3306833220513807e+00 0.0000000000000000e+00  3.9758196085171562e+00 7.3485171970630958e+00 0.0000000000000000e+00  3.9891040046728712e+00 7.4044342199278006e+00 0.0000000000000000e+00  3.9336804754700525e+00 7.2325398664344833e+00 0.0000000000000000e+00  4.0159344365848550e+00 7.4675435921027500e+00 0.0000000000000000e+00  3.9413178193490452e+00 7.3241478623241569e+00 0.0000000000000000e+00  3.9681196637786482e+00 7.2649790546944590e+00 0.0000000000000000e+00  3.9977409095684435e+00 7.4555956008803648e+00 0.0000000000000000e+00  3.9655919767748351e+00 7.3427067131255406e+00 0.0000000000000000e+00  3.9433987374829060e+00 7.2113802668290221e+00 0.0000000000000000e+00  3.9913011271588359e+00 7.5351372767915938e+00 0.0000000000000000e+00  3.9843517155494323e+00 7.3091803293881998e+00 0.0000000000000000e+00  3.9010137936158817e+00 7.2153832609515609e+00 0.0000000000000000e+00  4.0408214343164079e+00 7.5275878861544738e+00 0.0000000000000000e+00  3.9668836266138934e+00 7.3009031718186828e+00 0.0000000000000000e+00  3.9133725878808807e+00 7.2004854354038850e+00 0.0000000000000000e+00  4.0010625741353660e+00 7.5779904698351768e+00 0.0000000000000000e+00  4.0047317032247500e+00 7.2118379978294849e+00 0.0000000000000000e+00  3.8845651077259085e+00 7.3383126868544570e+00 0.0000000000000000e+00  4.0106908178151386e+00 7.4321136092481916e+00 0.0000000000000000e+00  3.9873527116348093e+00 7.3169819933293851e+00 0.0000000000000000e+00  3.9266653884554330e+00 7.2992520667920688e+00 0.0000000000000000e+00  3.9757386008949243e+00 7.3994537677890850e+00 0.0000000000000000e+00  4.0127859142711051e+00 7.3478831390406691e+00 0.0000000000000000e+00  3.9112098205457482e+00 7.2278851105711093e+00 0.0000000000000000e+00  3.9557673292777076e+00 7.6077745412908362e+00 0.0000000000000000e+00  4.1002680635647142e+00 7.1053605893610632e+00 0.0000000000000000e+00  4.4128020394003373e+00 6.0270003927992057e+00 0.0000000000000000e+00  1.0215986713992370e+01 -5.7830276470226394e-01 0.0000000000000000e+00  9.0454931697534899e+00 5.3414746330920193e-01 0.0000000000000000e+00  9.5721336015775389e+00 -7.2680938013413618e-02 0.0000000000000000e+00  9.4113394061621349e+00 3.1859696908926771e-03 0.0000000000000000e+00  9.5857568339349051e+00 -8.3770294097238983e-03 0.0000000000000000e+00  9.5423629280800473e+00 -1.2517714053359469e-01 0.0000000000000000e+00  9.4599121404950903e+00 6.8814626229528650e-02 0.0000000000000000e+00  9.4997742540793464e+00 -1.1552228438432441e-01 0.0000000000000000e+00  9.5428510319849718e+00 -1.2609949472094378e-01 0.0000000000000000e+00  9.5161375044940257e+00 0.0000000000000000e+00 -6.0133481844792419e-02  9.4718288752957722e+00 0.0000000000000000e+00 -2.7208167877713903e-02  9.5066370730675551e+00 0.0000000000000000e+00 -2.4879987926854932e-02  9.5062510652412637e+00 0.0000000000000000e+00 -1.0525377872449167e-01  9.4794925416266977e+00 0.0000000000000000e+00 2.8684837811921261e-02  9.5331962582343586e+00 0.0000000000000000e+00 6.4982131707977731e-02  9.4801511292694034e+00 0.0000000000000000e+00 1.1914638614431428e-02  9.5378008715468816e+00 0.0000000000000000e+00 -1.0216191740180756e-01  9.4643263114015852e+00 0.0000000000000000e+00 -1.3109939336773735e-01  9.5040002616218846e+00 0.0000000000000000e+00 1.4610970280523550e-01  9.5222848903043680e+00 0.0000000000000000e+00 -1.1978541250317620e-02  9.4964906466506296e+00 0.0000000000000000e+00 3.9016771458719977e-02  9.4206777619068856e+00 0.0000000000000000e+00 -5.3893571836945216e-02  9.5850981937956057e+00 0.0000000000000000e+00 -3.0770185133090232e-02  9.4449395624584547e+00 0.0000000000000000e+00 -2.3654312954786903e-02  9.4820293307757204e+00 0.0000000000000000e+00 -1.5213009246098047e-01  9.5184688955042898e+00 0.0000000000000000e+00 -6.0335325095865380e-02  9.5118744928728329e+00 0.0000000000000000e+00 -3.5235007463703616e-01  9.4780323325657285e+00 0.0000000000000000e+00 7.8908098143952290e-02  9.5571864054372231e+00 0.0000000000000000e+00 9.3912002752294332e-02  9.4658987420295642e+00 0.0000000000000000e+00 -7.6729976093262348e-02  9.5614264403548681e+00 0.0000000000000000e+00 -1.7259719859106867e-01  9.4923508655488309e+00 0.0000000000000000e+00 -9.1022187572750934e-02  9.4728460990190282e+00 0.0000000000000000e+00 2.9612789110507959e-01  9.5404980892714839e+00 0.0000000000000000e+00 1.0412798949098670e-02  9.4884794523442562e+00 0.0000000000000000e+00 3.8547400933989485e-02  9.4554005235929015e+00 0.0000000000000000e+00 -3.4752683751720595e-02  9.4697807116782577e+00 0.0000000000000000e+00 -1.0980017812261963e-01  9.5562051222375910e+00 0.0000000000000000e+00 -3.9709011066219498e-02  9.5039499086162014e+00 0.0000000000000000e+00 5.2707263500766752e-02  9.4680504040898583e+00 0.0000000000000000e+00 -5.3786958459906995e-03  9.5344727818135109e+00 0.0000000000000000e+00 -1.0679090150034953e-01  9.5878072672557195e+00 0.0000000000000000e+00 -5.8951315964544025e-02  9.5674025232265691e+00 0.0000000000000000e+00 -1.2554298038803285e-01  9.6154108401243708e+00 0.0000000000000000e+00 -4.3783370659379067e-02  9.6089637892138597e+00 0.0000000000000000e+00 -4.5424416051520367e-02  9.6921656581519375e+00 0.0000000000000000e+00 -1.2831389432279641e-01  9.3732054562488116e+00 0.0000000000000000e+00 -2.3211259671559484e-01  9.4603612651575837e+00 0.0000000000000000e+00 6.4776984064738363e-02  9.5115006248251550e+00 -3.8780490227260533e-01 0.0000000000000000e+00  9.3903333664277664e+00 -1.3408761920064874e-01 0.0000000000000000e+00  9.5562628669313270e+00 -1.9250765797200028e-01 0.0000000000000000e+00  9.3031148331006612e+00 -3.5734473402685885e-01 0.0000000000000000e+00  9.5134171118502273e+00 -7.7129452647467267e-01 0.0000000000000000e+00  9.5459761825614819e+00 -7.2932948201505765e-01 0.0000000000000000e+00  9.6231342631419849e+00 -4.6158875874043220e-01 0.0000000000000000e+00  8.8125826854627718e+00 2.3337944249655646e-01 0.0000000000000000e+00  1.0290293231295594e+01 -1.3363575018947120e+00 0.0000000000000000e+00  4.7497027825849578e+00 5.9732556759908517e+00 0.0000000000000000e+00  3.8266787852438338e+00 6.8437386281329982e+00 0.0000000000000000e+00  4.0468426766167651e+00 7.4741986467819617e+00 0.0000000000000000e+00  3.8730054041518867e+00 7.3119705021676582e+00 0.0000000000000000e+00  3.9494918820300819e+00 7.1062026144144053e+00 0.0000000000000000e+00  3.9364040944132666e+00 7.4722748502332994e+00 0.0000000000000000e+00  3.9835991563910524e+00 7.1861736353725112e+00 0.0000000000000000e+00  3.8841215877517938e+00 7.4364078542098202e+00 0.0000000000000000e+00  3.9371672892177165e+00 7.3145399129427231e+00 0.0000000000000000e+00  3.9245774375821099e+00 7.2863400186600238e+00 0.0000000000000000e+00  3.9544810881686630e+00 7.4275787600484211e+00 0.0000000000000000e+00  3.9029789722491119e+00 7.3565710578789156e+00 0.0000000000000000e+00  3.9515248592734098e+00 7.2812619305683999e+00 0.0000000000000000e+00  3.8904713351184634e+00 7.4301247773248456e+00 0.0000000000000000e+00  3.9508124215006806e+00 7.2603534375569820e+00 0.0000000000000000e+00  3.9362964386785215e+00 7.3202455875944530e+00 0.0000000000000000e+00  3.9078475527438523e+00 7.3347014226730973e+00 0.0000000000000000e+00  3.9534914145904794e+00 7.3081428934136818e+00 0.0000000000000000e+00  3.9088292462343492e+00 7.2600546883746100e+00 0.0000000000000000e+00  3.9413103511797463e+00 7.4048119376576969e+00 0.0000000000000000e+00  3.8874473666284026e+00 7.3051095084204931e+00 0.0000000000000000e+00  3.9247008828861927e+00 7.3140446995482193e+00 0.0000000000000000e+00  3.9297011081993150e+00 7.3413810813201792e+00 0.0000000000000000e+00  3.9111310434881332e+00 7.2897990513779378e+00 0.0000000000000000e+00  3.9357785251649426e+00 7.2866122749459956e+00 0.0000000000000000e+00  3.9347986050079284e+00 7.3596591105097442e+00 0.0000000000000000e+00  3.8905488939384041e+00 7.2901105047700216e+00 0.0000000000000000e+00  3.9449715111498054e+00 7.3636769041947217e+00 0.0000000000000000e+00  3.9028370941045583e+00 7.3198584908833455e+00 0.0000000000000000e+00  3.9610164607996095e+00 7.2870679199476776e+00 0.0000000000000000e+00  3.9155329245255066e+00 7.3505741037433037e+00 0.0000000000000000e+00  3.9496315313559003e+00 7.3134652156524549e+00 0.0000000000000000e+00  3.9033781175841744e+00 7.355814847518