<?xml version="1.0"?>
<VTKFile type="UnstructuredGrid"  version="0.1"  >
<UnstructuredGrid>
<Piece  NumberOfPoints="201" NumberOfCells="200">
<Points>
<DataArray  type="Float64"  NumberOfComponents="3"  format="ascii">-5 0 0  -4.95 0 0  -4.9 0 0  -4.85 0 0  -4.8 0 0  -4.75 0 0  -4.7 0 0  -4.65 0 0  -4.6 0 0  -4.55 0 0  -4.5 0 0  -4.45 0 0  -4.4 0 0  -4.35 0 0  -4.3 0 0  -4.25 0 0  -4.2 0 0  -4.15 0 0  -4.1 0 0  -4.05 0 0  -4 0 0  -3.95 0 0  -3.9 0 0  -3.85 0 0  -3.8 0 0  -3.75 0 0  -3.7 0 0  -3.65 0 0  -3.6 0 0  -3.55 0 0  -3.5 0 0  -3.45 0 0  -3.4 0 0  -3.35 0 0  -3.3 0 0  -3.25 0 0  -3.2 0 0  -3.15 0 0  -3.1 0 0  -3.05 0 0  -3 0 0  -2.95 0 0  -2.9 0 0  -2.85 0 0  -2.8 0 0  -2.75 0 0  -2.7 0 0  -2.65 0 0  -2.6 0 0  -2.55 0 0  -2.5 0 0  -2.45 0 0  -2.4 0 0  -2.35 0 0  -2.3 0 0  -2.25 0 0  -2.2 0 0  -2.15 0 0  -2.1 0 0  -2.05 0 0  -2 0 0  -1.95 0 0  -1.9 0 0  -1.85 0 0  -1.8 0 0  -1.75 0 0  -1.7 0 0  -1.65 0 0  -1.6 0 0  -1.55 0 0  -1.5 0 0  -1.45 0 0  -1.4 0 0  -1.35 0 0  -1.3 0 0  -1.25 0 0  -1.2 0 0  -1.15 0 0  -1.1 0 0  -1.05 0 0  -1 0 0  -0.9500000000000002 0 0  -0.9000000000000004 0 0  -0.8499999999999996 0 0  -0.7999999999999998 0 0  -0.75 0 0  -0.7000000000000002 0 0  -0.6500000000000004 0 0  -0.5999999999999996 0 0  -0.5499999999999998 0 0  -0.5 0 0  -0.4500000000000002 0 0  -0.4000000000000004 0 0  -0.3499999999999996 0 0  -0.2999999999999998 0 0  -0.25 0 0  -0.2000000000000002 0 0  -0.1500000000000004 0 0  -0.09999999999999964 0 0  -0.04999999999999982 0 0  0 0 0  0.04999999999999982 0 0  0.09999999999999964 0 0  0.1500000000000004 0 0  0.2000000000000002 0 0  0.25 0 0  0.2999999999999998 0 0  0.3499999999999996 0 0  0.4000000000000004 0 0  0.4500000000000002 0 0  0.5 0 0  0.5499999999999998 0 0  0.5999999999999996 0 0  0.6500000000000004 0 0  0.7000000000000002 0 0  0.75 0 0  0.7999999999999998 0 0  0.8499999999999996 0 0  0.9000000000000004 0 0  0.9500000000000002 0 0  1 0 0  1.05 0 0  1.1 0 0  1.15 0 0  1.2 0 0  1.25 0 0  1.3 0 0  1.35 0 0  1.4 0 0  1.45 0 0  1.5 0 0  1.55 0 0  1.6 0 0  1.65 0 0  1.7 0 0  1.75 0 0  1.8 0 0  1.85 0 0  1.9 0 0  1.95 0 0  2 0 0  2.05 0 0  2.1 0 0  2.15 0 0  2.2 0 0  2.25 0 0  2.3 0 0  2.35 0 0  2.4 0 0  2.45 0 0  2.5 0 0  2.55 0 0  2.6 0 0  2.65 0 0  2.7 0 0  2.75 0 0  2.8 0 0  2.85 0 0  2.9 0 0  2.95 0 0  3 0 0  3.050000000000001 0 0  3.1 0 0  3.15 0 0  3.199999999999999 0 0  3.25 0 0  3.300000000000001 0 0  3.35 0 0  3.4 0 0  3.449999999999999 0 0  3.5 0 0  3.550000000000001 0 0  3.6 0 0  3.65 0 0  3.699999999999999 0 0  3.75 0 0  3.800000000000001 0 0  3.85 0 0  3.9 0 0  3.949999999999999 0 0  4 0 0  4.050000000000001 0 0  4.1 0 0  4.15 0 0  4.199999999999999 0 0  4.25 0 0  4.300000000000001 0 0  4.35 0 0  4.4 0 0  4.449999999999999 0 0  4.5 0 0  4.550000000000001 0 0  4.6 0 0  4.65 0 0  4.699999999999999 0 0  4.75 0 0  4.800000000000001 0 0  4.85 0 0  4.9 0 0  4.949999999999999 0 0  5 0 0  </DataArray>
</Points>
<Cells>
<DataArray  type="UInt32"  Name="connectivity"  format="ascii">0 1  1 2  2 3  3 4  4 5  5 6  6 7  7 8  8 9  9 10  10 11  11 12  12 13  13 14  14 15  15 16  16 17  17 18  18 19  19 20  20 21  21 22  22 23  23 24  24 25  25 26  26 27  27 28  28 29  29 30  30 31  31 32  32 33  33 34  34 35  35 36  36 37  37 38  38 39  39 40  40 41  41 42  42 43  43 44  44 45  45 46  46 47  47 48  48 49  49 50  50 51  51 52  52 53  53 54  54 55  55 56  56 57  57 58  58 59  59 60  60 61  61 62  62 63  63 64  64 65  65 66  66 67  67 68  68 69  69 70  70 71  71 72  72 73  73 74  74 75  75 76  76 77  77 78  78 79  79 80  80 81  81 82  82 83  83 84  84 85  85 86  86 87  87 88  88 89  89 90  90 91  91 92  92 93  93 94  94 95  95 96  96 97  97 98  98 99  99 100  100 101  101 102  102 103  103 104  104 105  105 106  106 107  107 108  108 109  109 110  110 111  111 112  112 113  113 114  114 115  115 116  116 117  117 118  118 119  119 120  120 121  121 122  122 123  123 124  124 125  125 126  126 127  127 128  128 129  129 130  130 131  131 132  132 133  133 134  134 135  135 136  136 137  137 138  138 139  139 140  140 141  141 142  142 143  143 144  144 145  145 146  146 147  147 148  148 149  149 150  150 151  151 152  152 153  153 154  154 155  155 156  156 157  157 158  158 159  159 160  160 161  161 162  162 163  163 164  164 165  165 166  166 167  167 168  168 169  169 170  170 171  171 172  172 173  173 174  174 175  175 176  176 177  177 178  178 179  179 180  180 181  181 182  182 183  183 184  184 185  185 186  186 187  187 188  188 189  189 190  190 191  191 192  192 193  193 194  194 195  195 196  196 197  197 198  198 199  199 200  </DataArray>
<DataArray  type="UInt32"  Name="offsets"  format="ascii">2 4 6 8 10 12 14 16 18 20 22 24 26 28 30 32 34 36 38 40 42 44 46 48 50 52 54 56 58 60 62 64 66 68 70 72 74 76 78 80 82 84 86 88 90 92 94 96 98 100 102 104 106 108 110 112 114 116 118 120 122 124 126 128 130 132 134 136 138 140 142 144 146 148 150 152 154 156 158 160 162 164 166 168 170 172 174 176 178 180 182 184 186 188 190 192 194 196 198 200 202 204 206 208 210 212 214 216 218 220 222 224 226 228 230 232 234 236 238 240 242 244 246 248 250 252 254 256 258 260 262 264 266 268 270 272 274 276 278 280 282 284 286 288 290 292 294 296 298 300 302 304 306 308 310 312 314 316 318 320 322 324 326 328 330 332 334 336 338 340 342 344 346 348 350 352 354 356 358 360 362 364 366 368 370 372 374 376 378 380 382 384 386 388 390 392 394 396 398 400 </DataArray>
<DataArray  type="UInt8"  Name="types"  format="ascii">3 3 3 3 3 3 3 3 3 3 3 3 3 3 3 3 3 3 3 3 3 3 3 3 3 3 3 3 3 3 3 3 3 3 3 3 3 3 3 3 3 3 3 3 3 3 3 3 3 3 3 3 3 3 3 3 3 3 3 3 3 3 3 3 3 3 3 3 3 3 3 3 3 3 3 3 3 3 3 3 3 3 3 3 3 3 3 3 3 3 3 3 3 3 3 3 3 3 3 3 3 3 3 3 3 3 3 3 3 3 3 3 3 3 3 3 3 3 3 3 3 3 3 3 3 3 3 3 3 3 3 3 3 3 3 3 3 3 3 3 3 3 3 3 3 3 3 3 3 3 3 3 3 3 3 3 3 3 3 3 3 3 3 3 3 3 3 3 3 3 3 3 3 3 3 3 3 3 3 3 3 3 3 3 3 3 3 3 3 3 3 3 3 3 3 3 3 3 3 3 </DataArray>
</Cells>
<PointData  Vectors="(h, u)"> 
<DataArray  type="Float64"  Name="(h, u)"  NumberOfComponents="3" format="ascii">1.0000000000041844e+00 0.0000000000000000e+00 0.0000000000000000e+00  9.9999999999568490e-01 -3.3717592273259343e-12 0.0000000000000000e+00  1.0000000000047158e+00 6.9370597704213208e-12 0.0000000000000000e+00  9.9999999999459521e-01 -1.0894508960275983e-11 0.0000000000000000e+00  1.0000000000064178e+00 1.5462149308094894e-11 0.0000000000000000e+00  9.9999999999219724e-01 -2.0880973013280139e-11 0.0000000000000000e+00  1.0000000000096265e+00 2.7426344121265000e-11 0.0000000000000000e+00  9.9999999998802802e-01 -3.5414546926035104e-11 0.0000000000000000e+00  1.0000000000149438e+00 4.5215107430302314e-11 0.0000000000000000e+00  9.9999999998133293e-01 -5.7254113960461386e-11 0.0000000000000000e+00  1.0000000000232927e+00 7.2028499721587726e-11 0.0000000000000000e+00  9.9999999997100530e-01 -9.0107470284591283e-11 0.0000000000000000e+00  1.0000000000359768e+00 1.1213956326345485e-10 0.0000000000000000e+00  9.9999999995553479e-01 -1.3885062705769675e-10 0.0000000000000000e+00  1.0000000000547136e+00 1.7104063908442291e-10 0.0000000000000000e+00  9.9999999993300948e-01 -2.0956181861795515e-10 0.0000000000000000e+00  1.0000000000815776e+00 2.5529588831771934e-10 0.0000000000000000e+00  9.9999999990125510e-01 -3.0910063784357778e-10 0.0000000000000000e+00  1.0000000001187381e+00 3.7174082679260539e-10 0.0000000000000000e+00  9.9999999985826704e-01 -4.4377526149672476e-10 0.0000000000000000e+00  1.0000000001677951e+00 5.2540736572890917e-10 0.0000000000000000e+00  9.9999999980319387e-01 -6.1627108656403937e-10 0.0000000000000000e+00  1.0000000002283747e+00 7.1513983106694247e-10 0.0000000000000000e+00  9.9999999973828801e-01 -8.1954564720307962e-10 0.0000000000000000e+00  1.0000000002954701e+00 9.2526561204610769e-10 0.0000000000000000e+00  9.9999999967246767e-01 -1.0256761391322163e-09 0.0000000000000000e+00  1.0000000003547458e+00 1.1108981461745000e-09 0.0000000000000000e+00  9.9999999962741926e-01 -1.1667531692957971e-09 0.0000000000000000e+00  1.0000000003747116e+00 1.1734254190916868e-09 0.0000000000000000e+00  9.9999999964750974e-01 -1.1038418056983188e-09 0.0000000000000000e+00  1.0000000002943192e+00 9.2167413122287474e-10 0.0000000000000000e+00  9.9999999981511989e-01 -5.7896257360199159e-10 0.0000000000000000e+00  1.0000000000042386e+00 1.3271833743300574e-11 0.0000000000000000e+00  1.0000000002732232e+00 8.5561370053504487e-10 0.0000000000000000e+00  9.9999999931998362e-01 -2.1295106147025119e-09 0.0000000000000000e+00  1.0000000012569310e+00 3.9361516346777075e-09 0.0000000000000000e+00  9.9999999794544070e-01 -6.4339705088513905e-09 0.0000000000000000e+00  1.0000000031349598e+00 9.8173061394608210e-09 0.0000000000000000e+00  9.9999999542660201e-01 -1.4321858308421498e-08 0.0000000000000000e+00  1.0000000064601289e+00 2.0230261932560922e-08 0.0000000000000000e+00  9.9999999109789262e-01 -2.7877460627572011e-08 0.0000000000000000e+00  1.0000000120245407e+00 3.7655529616491796e-08 0.0000000000000000e+00  9.9999998402791179e-01 -5.0017525196975053e-08 0.0000000000000000e+00  1.0000000209096060e+00 6.5479568457878690e-08 0.0000000000000000e+00  9.9999997297800758e-01 -8.4621089371201911e-08 0.0000000000000000e+00  1.0000000345135043e+00 1.0808045023952170e-07 0.0000000000000000e+00  9.9999995639569483e-01 -1.3655112912470300e-07 0.0000000000000000e+00  1.0000000545300158e+00 1.7075837452931314e-07 0.0000000000000000e+00  9.9999993247508978e-01 -2.1147508388527002e-07 0.0000000000000000e+00  1.0000000828476905e+00 2.5939022885658126e-07 0.0000000000000000e+00  9.9999989933320421e-01 -3.1540194974251692e-07 0.0000000000000000e+00  1.0000001213642282e+00 3.7958307855058524e-07 0.0000000000000000e+00  9.9999985543675851e-01 -4.5412702410562729e-07 0.0000000000000000e+00  1.0000001719684648e+00 5.3433808126999470e-07 0.0000000000000000e+00  9.9999980111834086e-01 -6.3507291795491951e-07 0.0000000000000000e+00  1.0000002390100227e+00 7.1291328197806692e-07 0.0000000000000000e+00  9.9999974774395362e-01 -8.9215728659049914e-07 0.0000000000000000e+00  1.0000003527186854e+00 8.1331334903678817e-07 0.0000000000000000e+00  9.9999978569423775e-01 -1.4943391281160796e-06 0.0000000000000000e+00  1.0000007551486538e+00 5.5696502921237440e-08 0.0000000000000000e+00  1.0000005992032230e+00 -4.5538632777067162e-06 0.0000000000000000e+00  1.0000033076801673e+00 -7.4287327387227729e-06 0.0000000000000000e+00  1.0000073006194328e+00 -2.6030813766965224e-05 0.0000000000000000e+00  1.0000218733164090e+00 -6.5112048501238693e-05 0.0000000000000000e+00  1.0000573980575640e+00 -1.8331356709098639e-04 0.0000000000000000e+00  1.0001572285113847e+00 -4.8865340288655140e-04 0.0000000000000000e+00  1.0004201398765449e+00 -1.3194234872841415e-03 0.0000000000000000e+00  1.0011229606926508e+00 -3.5124014723549014e-03 0.0000000000000000e+00  1.0029653032856567e+00 -9.2867900969536461e-03 0.0000000000000000e+00  1.0077197906148421e+00 -2.4151388164911587e-02 0.0000000000000000e+00  1.0195248601019380e+00 -6.1016769089587343e-02 0.0000000000000000e+00  1.0466834454784815e+00 -1.4543824692486729e-01 0.0000000000000000e+00  1.1007290460762051e+00 -3.1183966877138486e-01 0.0000000000000000e+00  1.1866363328898988e+00 -5.7122837016481554e-01 0.0000000000000000e+00  1.2909461985265727e+00 -8.7556901884221083e-01 0.0000000000000000e+00  1.3892006845586200e+00 -1.1502253869224366e+00 0.0000000000000000e+00  1.4645908747122456e+00 -1.3528150377291077e+00 0.0000000000000000e+00  1.5128415492535270e+00 -1.4788509736785795e+00 0.0000000000000000e+00  1.5370138932519866e+00 -1.5411937600637313e+00 0.0000000000000000e+00  1.5424615649001976e+00 -1.5557815123821994e+00 0.0000000000000000e+00  1.5342257994811896e+00 -1.5360373759182695e+00 0.0000000000000000e+00  1.5162739850672013e+00 -1.4919001704751180e+00 0.0000000000000000e+00  1.4915028699940871e+00 -1.4303498462123154e+00 0.0000000000000000e+00  1.4619743772192739e+00 -1.3562515952837493e+00 0.0000000000000000e+00  1.4291677863175876e+00 -1.2730251571116094e+00 0.0000000000000000e+00  1.3941605951477132e+00 -1.1831681202177864e+00 0.0000000000000000e+00  1.3577718075082557e+00 -1.0885707782871266e+00 0.0000000000000000e+00  1.3206438710790152e+00 -9.9075515644419421e-01 0.0000000000000000e+00  1.2833091743446099e+00 -8.9101778267505438e-01 0.0000000000000000e+00  1.2462292584164736e+00 -7.9053699194663851e-01 0.0000000000000000e+00  1.2098279332250650e+00 -6.9045925149575460e-01 0.0000000000000000e+00  1.1745149249353435e+00 -5.9196383206499947e-01 0.0000000000000000e+00  1.1407106246007266e+00 -4.9632705432586266e-01 0.0000000000000000e+00  1.1088606720913781e+00 -4.0497956535691082e-01 0.0000000000000000e+00  1.0794581248891131e+00 -3.1952918589300883e-01 0.0000000000000000e+00  1.0530451886655636e+00 -2.4173766577506897e-01 0.0000000000000000e+00  1.0302144798622153e+00 -1.7335104742640689e-01 0.0000000000000000e+00  1.0115804659991559e+00 -1.1570471644794575e-01 0.0000000000000000e+00  9.9773680061820857e-01 -6.9053911967927067e-02 0.0000000000000000e+00  9.8919094991367185e-01 -3.1779489084974036e-02 0.0000000000000000e+00  9.8629955825641791e-01 -5.4588067885141604e-16 0.0000000000000000e+00  9.8919094991367207e-01 3.1779489084974709e-02 0.0000000000000000e+00  9.9773680061820869e-01 6.9053911967926804e-02 0.0000000000000000e+00  1.0115804659991563e+00 1.1570471644794621e-01 0.0000000000000000e+00  1.0302144798622150e+00 1.7335104742640650e-01 0.0000000000000000e+00  1.0530451886655638e+00 2.4173766577506858e-01 0.0000000000000000e+00  1.0794581248891129e+00 3.1952918589300844e-01 0.0000000000000000e+00  1.1088606720913783e+00 4.0497956535690988e-01 0.0000000000000000e+00  1.1407106246007261e+00 4.9632705432586238e-01 0.0000000000000000e+00  1.1745149249353437e+00 5.9196383206499847e-01 0.0000000000000000e+00  1.2098279332250648e+00 6.9045925149575449e-01 0.0000000000000000e+00  1.2462292584164734e+00 7.9053699194663729e-01 0.0000000000000000e+00  1.2833091743446101e+00 8.9101778267505483e-01 0.0000000000000000e+00  1.3206438710790149e+00 9.9075515644419332e-01 0.0000000000000000e+00  1.3577718075082561e+00 1.0885707782871270e+00 0.0000000000000000e+00  1.3941605951477130e+00 1.1831681202177846e+00 0.0000000000000000e+00  1.4291677863175882e+00 1.2730251571116116e+00 0.0000000000000000e+00  1.4619743772192739e+00 1.3562515952837475e+00 0.0000000000000000e+00  1.4915028699940880e+00 1.4303498462123168e+00 0.0000000000000000e+00  1.5162739850672009e+00 1.4919001704751174e+00 0.0000000000000000e+00  1.5342257994811905e+00 1.5360373759182699e+00 0.0000000000000000e+00  1.5424615649001965e+00 1.5557815123822005e+00 0.0000000000000000e+00  1.5370138932519875e+00 1.5411937600637324e+00 0.0000000000000000e+00  1.5128415492535259e+00 1.4788509736785787e+00 0.0000000000000000e+00  1.4645908747122460e+00 1.3528150377291073e+00 0.0000000000000000e+00  1.3892006845586193e+00 1.1502253869224373e+00 0.0000000000000000e+00  1.2909461985265738e+00 8.7556901884220983e-01 0.0000000000000000e+00  1.1866363328898992e+00 5.7122837016481987e-01 0.0000000000000000e+00  1.1007290460762051e+00 3.1183966877138336e-01 0.0000000000000000e+00  1.0466834454784808e+00 1.4543824692486954e-01 0.0000000000000000e+00  1.0195248601019384e+00 6.1016769089586927e-02 0.0000000000000000e+00  1.0077197906148418e+00 2.4151388164912711e-02 0.0000000000000000e+00  1.0029653032856571e+00 9.2867900969529609e-03 0.0000000000000000e+00  1.0011229606926506e+00 3.5124014723563529e-03 0.0000000000000000e+00  1.0004201398765451e+00 1.3194234872837829e-03 0.0000000000000000e+00  1.0001572285113847e+00 4.8865340288683232e-04 0.0000000000000000e+00  1.0000573980575644e+00 1.8331356709071290e-04 0.0000000000000000e+00  1.0000218733164090e+00 6.5112048502058621e-05 0.0000000000000000e+00  1.0000073006194328e+00 2.6030813766840219e-05 0.0000000000000000e+00  1.0000033076801673e+00 7.4287327390088828e-06 0.0000000000000000e+00  1.0000005992032230e+00 4.5538632776905117e-06 0.0000000000000000e+00  1.0000007551486536e+00 -5.5696503461810684e-08 0.0000000000000000e+00  9.9999978569423742e-01 1.4943391283915085e-06 0.0000000000000000e+00  1.0000003527186854e+00 -8.1331334968577010e-07 0.0000000000000000e+00  9.9999974774395350e-01 8.9215728727201655e-07 0.0000000000000000e+00  1.0000002390100227e+00 -7.1291328203155970e-07 0.0000000000000000e+00  9.9999980111834075e-01 6.3507291798350825e-07 0.0000000000000000e+00  1.0000001719684650e+00 -5.3433808214062736e-07 0.0000000000000000e+00  9.9999985543675840e-01 4.5412702425921808e-07 0.0000000000000000e+00  1.0000001213642284e+00 -3.7958307912708698e-07 0.0000000000000000e+00  9.9999989933320432e-01 3.1540195002750989e-07 0.0000000000000000e+00  1.0000000828476905e+00 -2.5939022922171022e-07 0.0000000000000000e+00  9.9999993247508978e-01 2.1147508439726406e-07 0.0000000000000000e+00  1.0000000545300156e+00 -1.7075837443275210e-07 0.0000000000000000e+00  9.9999995639569461e-01 1.3655112979592939e-07 0.0000000000000000e+00  1.0000000345135038e+00 -1.0808045078177199e-07 0.0000000000000000e+00  9.9999997297800725e-01 8.4621088793584442e-08 0.0000000000000000e+00  1.0000000209096056e+00 -6.5479569171758905e-08 0.0000000000000000e+00  9.9999998402791146e-01 5.0017524525267060e-08 0.0000000000000000e+00  1.0000000120245405e+00 -3.7655529234130080e-08 0.0000000000000000e+00  9.9999999109789217e-01 2.7877460635771273e-08 0.0000000000000000e+00  1.0000000064601291e+00 -2.0230261931629440e-08 0.0000000000000000e+00  9.9999999542660178e-01 1.4321858444337559e-08 0.0000000000000000e+00  1.0000000031349601e+00 -9.8173061202704260e-09 0.0000000000000000e+00  9.9999999794544037e-01 6.4339711659254939e-09 0.0000000000000000e+00  1.0000000012569310e+00 -3.9361511999351415e-09 0.0000000000000000e+00  9.9999999931998351e-01 2.1295110383466398e-09 0.0000000000000000e+00  1.0000000002732230e+00 -8.5561367621033847e-10 0.0000000000000000e+00  1.0000000000042384e+00 -1.3272098505349427e-11 0.0000000000000000e+00  9.9999999981511944e-01 5.7896204393185417e-10 0.0000000000000000e+00  1.0000000002943192e+00 -9.2167382962804561e-10 0.0000000000000000e+00  9.9999999964750941e-01 1.1038421591048430e-09 0.0000000000000000e+00  1.0000000003747116e+00 -1.1734252689801961e-09 0.0000000000000000e+00  9.9999999962741881e-01 1.1667530447996880e-09 0.0000000000000000e+00  1.0000000003547460e+00 -1.1108982621941686e-09 0.0000000000000000e+00  9.9999999967246744e-01 1.0256747565324474e-09 0.0000000000000000e+00  1.0000000002954705e+00 -9.2526609093446832e-10 0.0000000000000000e+00  9.9999999973828779e-01 8.1954495683470148e-10 0.0000000000000000e+00  1.0000000002283749e+00 -7.1514007742746035e-10 0.0000000000000000e+00  9.9999999980319376e-01 6.1627080926545263e-10 0.0000000000000000e+00  1.0000000001677953e+00 -5.2540765674912784e-10 0.0000000000000000e+00  9.9999999985826693e-01 4.4377447068880241e-10 0.0000000000000000e+00  1.0000000001187384e+00 -3.7174057082519968e-10 0.0000000000000000e+00  9.9999999990125477e-01 3.0909991474538805e-10 0.0000000000000000e+00  1.0000000000815774e+00 -2.5529598811977386e-10 0.0000000000000000e+00  9.9999999993300925e-01 2.0956113575242816e-10 0.0000000000000000e+00  1.0000000000547136e+00 -1.7104103680670395e-10 0.0000000000000000e+00  9.9999999995553490e-01 1.3885072234191426e-10 0.0000000000000000e+00  1.0000000000359768e+00 -1.1213976971696587e-10 0.0000000000000000e+00  9.9999999997100530e-01 9.0107490901460447e-11 0.0000000000000000e+00  1.0000000000232925e+00 -7.2028404953657916e-11 0.0000000000000000e+00  9.9999999998133293e-01 5.7254537019246992e-11 0.0000000000000000e+00  1.0000000000149438e+00 -4.5214945580067186e-11 0.0000000000000000e+00  9.9999999998802813e-01 3.5414912042066052e-11 0.0000000000000000e+00  1.0000000000096265e+00 -2.7426727809460918e-11 0.0000000000000000e+00  9.9999999999219746e-01 2.0881129820257724e-11 0.0000000000000000e+00  1.0000000000064178e+00 -1.5461805722659320e-11 0.0000000000000000e+00  9.9999999999459521e-01 1.0894837786150284e-11 0.0000000000000000e+00  1.0000000000047156e+00 -6.9367432140559744e-12 0.0000000000000000e+00  9.9999999999568490e-01 3.3723658825454177e-12 0.0000000000000000e+00  1.0000000000041842e+00 0.0000000000000000e+00 0.0000000000000000e+00  </DataArray> 
</PointData> 
</Piece>
</UnstructuredGrid>
</VTKFile>