<?xml version="1.0"?>
<VTKFile type="UnstructuredGrid"  version="0.1"  >
<UnstructuredGrid>
<Piece  NumberOfPoints="201" NumberOfCells="200">
<Points>
<DataArray  type="Float64"  NumberOfComponents="3"  format="ascii">-5 0 0  -4.95 0 0  -4.9 0 0  -4.85 0 0  -4.8 0 0  -4.75 0 0  -4.7 0 0  -4.65 0 0  -4.6 0 0  -4.55 0 0  -4.5 0 0  -4.45 0 0  -4.4 0 0  -4.35 0 0  -4.3 0 0  -4.25 0 0  -4.2 0 0  -4.15 0 0  -4.1 0 0  -4.05 0 0  -4 0 0  -3.95 0 0  -3.9 0 0  -3.85 0 0  -3.8 0 0  -3.75 0 0  -3.7 0 0  -3.65 0 0  -3.6 0 0  -3.55 0 0  -3.5 0 0  -3.45 0 0  -3.4 0 0  -3.35 0 0  -3.3 0 0  -3.25 0 0  -3.2 0 0  -3.15 0 0  -3.1 0 0  -3.05 0 0  -3 0 0  -2.95 0 0  -2.9 0 0  -2.85 0 0  -2.8 0 0  -2.75 0 0  -2.7 0 0  -2.65 0 0  -2.6 0 0  -2.55 0 0  -2.5 0 0  -2.45 0 0  -2.4 0 0  -2.35 0 0  -2.3 0 0  -2.25 0 0  -2.2 0 0  -2.15 0 0  -2.1 0 0  -2.05 0 0  -2 0 0  -1.95 0 0  -1.9 0 0  -1.85 0 0  -1.8 0 0  -1.75 0 0  -1.7 0 0  -1.65 0 0  -1.6 0 0  -1.55 0 0  -1.5 0 0  -1.45 0 0  -1.4 0 0  -1.35 0 0  -1.3 0 0  -1.25 0 0  -1.2 0 0  -1.15 0 0  -1.1 0 0  -1.05 0 0  -1 0 0  -0.9500000000000002 0 0  -0.9000000000000004 0 0  -0.8499999999999996 0 0  -0.7999999999999998 0 0  -0.75 0 0  -0.7000000000000002 0 0  -0.6500000000000004 0 0  -0.5999999999999996 0 0  -0.5499999999999998 0 0  -0.5 0 0  -0.4500000000000002 0 0  -0.4000000000000004 0 0  -0.3499999999999996 0 0  -0.2999999999999998 0 0  -0.25 0 0  -0.2000000000000002 0 0  -0.1500000000000004 0 0  -0.09999999999999964 0 0  -0.04999999999999982 0 0  0 0 0  0.04999999999999982 0 0  0.09999999999999964 0 0  0.1500000000000004 0 0  0.2000000000000002 0 0  0.25 0 0  0.2999999999999998 0 0  0.3499999999999996 0 0  0.4000000000000004 0 0  0.4500000000000002 0 0  0.5 0 0  0.5499999999999998 0 0  0.5999999999999996 0 0  0.6500000000000004 0 0  0.7000000000000002 0 0  0.75 0 0  0.7999999999999998 0 0  0.8499999999999996 0 0  0.9000000000000004 0 0  0.9500000000000002 0 0  1 0 0  1.05 0 0  1.1 0 0  1.15 0 0  1.2 0 0  1.25 0 0  1.3 0 0  1.35 0 0  1.4 0 0  1.45 0 0  1.5 0 0  1.55 0 0  1.6 0 0  1.65 0 0  1.7 0 0  1.75 0 0  1.8 0 0  1.85 0 0  1.9 0 0  1.95 0 0  2 0 0  2.05 0 0  2.1 0 0  2.15 0 0  2.2 0 0  2.25 0 0  2.3 0 0  2.35 0 0  2.4 0 0  2.45 0 0  2.5 0 0  2.55 0 0  2.6 0 0  2.65 0 0  2.7 0 0  2.75 0 0  2.8 0 0  2.85 0 0  2.9 0 0  2.95 0 0  3 0 0  3.050000000000001 0 0  3.1 0 0  3.15 0 0  3.199999999999999 0 0  3.25 0 0  3.300000000000001 0 0  3.35 0 0  3.4 0 0  3.449999999999999 0 0  3.5 0 0  3.550000000000001 0 0  3.6 0 0  3.65 0 0  3.699999999999999 0 0  3.75 0 0  3.800000000000001 0 0  3.85 0 0  3.9 0 0  3.949999999999999 0 0  4 0 0  4.050000000000001 0 0  4.1 0 0  4.15 0 0  4.199999999999999 0 0  4.25 0 0  4.300000000000001 0 0  4.35 0 0  4.4 0 0  4.449999999999999 0 0  4.5 0 0  4.550000000000001 0 0  4.6 0 0  4.65 0 0  4.699999999999999 0 0  4.75 0 0  4.800000000000001 0 0  4.85 0 0  4.9 0 0  4.949999999999999 0 0  5 0 0  </DataArray>
</Points>
<Cells>
<DataArray  type="UInt32"  Name="connectivity"  format="ascii">0 1  1 2  2 3  3 4  4 5  5 6  6 7  7 8  8 9  9 10  10 11  11 12  12 13  13 14  14 15  15 16  16 17  17 18  18 19  19 20  20 21  21 22  22 23  23 24  24 25  25 26  26 27  27 28  28 29  29 30  30 31  31 32  32 33  33 34  34 35  35 36  36 37  37 38  38 39  39 40  40 41  41 42  42 43  43 44  44 45  45 46  46 47  47 48  48 49  49 50  50 51  51 52  52 53  53 54  54 55  55 56  56 57  57 58  58 59  59 60  60 61  61 62  62 63  63 64  64 65  65 66  66 67  67 68  68 69  69 70  70 71  71 72  72 73  73 74  74 75  75 76  76 77  77 78  78 79  79 80  80 81  81 82  82 83  83 84  84 85  85 86  86 87  87 88  88 89  89 90  90 91  91 92  92 93  93 94  94 95  95 96  96 97  97 98  98 99  99 100  100 101  101 102  102 103  103 104  104 105  105 106  106 107  107 108  108 109  109 110  110 111  111 112  112 113  113 114  114 115  115 116  116 117  117 118  118 119  119 120  120 121  121 122  122 123  123 124  124 125  125 126  126 127  127 128  128 129  129 130  130 131  131 132  132 133  133 134  134 135  135 136  136 137  137 138  138 139  139 140  140 141  141 142  142 143  143 144  144 145  145 146  146 147  147 148  148 149  149 150  150 151  151 152  152 153  153 154  154 155  155 156  156 157  157 158  158 159  159 160  160 161  161 162  162 163  163 164  164 165  165 166  166 167  167 168  168 169  169 170  170 171  171 172  172 173  173 174  174 175  175 176  176 177  177 178  178 179  179 180  180 181  181 182  182 183  183 184  184 185  185 186  186 187  187 188  188 189  189 190  190 191  191 192  192 193  193 194  194 195  195 196  196 197  197 198  198 199  199 200  </DataArray>
<DataArray  type="UInt32"  Name="offsets"  format="ascii">2 4 6 8 10 12 14 16 18 20 22 24 26 28 30 32 34 36 38 40 42 44 46 48 50 52 54 56 58 60 62 64 66 68 70 72 74 76 78 80 82 84 86 88 90 92 94 96 98 100 102 104 106 108 110 112 114 116 118 120 122 124 126 128 130 132 134 136 138 140 142 144 146 148 150 152 154 156 158 160 162 164 166 168 170 172 174 176 178 180 182 184 186 188 190 192 194 196 198 200 202 204 206 208 210 212 214 216 218 220 222 224 226 228 230 232 234 236 238 240 242 244 246 248 250 252 254 256 258 260 262 264 266 268 270 272 274 276 278 280 282 284 286 288 290 292 294 296 298 300 302 304 306 308 310 312 314 316 318 320 322 324 326 328 330 332 334 336 338 340 342 344 346 348 350 352 354 356 358 360 362 364 366 368 370 372 374 376 378 380 382 384 386 388 390 392 394 396 398 400 </DataArray>
<DataArray  type="UInt8"  Name="types"  format="ascii">3 3 3 3 3 3 3 3 3 3 3 3 3 3 3 3 3 3 3 3 3 3 3 3 3 3 3 3 3 3 3 3 3 3 3 3 3 3 3 3 3 3 3 3 3 3 3 3 3 3 3 3 3 3 3 3 3 3 3 3 3 3 3 3 3 3 3 3 3 3 3 3 3 3 3 3 3 3 3 3 3 3 3 3 3 3 3 3 3 3 3 3 3 3 3 3 3 3 3 3 3 3 3 3 3 3 3 3 3 3 3 3 3 3 3 3 3 3 3 3 3 3 3 3 3 3 3 3 3 3 3 3 3 3 3 3 3 3 3 3 3 3 3 3 3 3 3 3 3 3 3 3 3 3 3 3 3 3 3 3 3 3 3 3 3 3 3 3 3 3 3 3 3 3 3 3 3 3 3 3 3 3 3 3 3 3 3 3 3 3 3 3 3 3 3 3 3 3 3 3 </DataArray>
</Cells>
<PointData  Vectors="(h, u)"> 
<DataArray  type="Float64"  Name="(h, u)"  NumberOfComponents="3" format="ascii">9.8667095734569277e-01 0.0000000000000000e+00 0.0000000000000000e+00  9.8666841018698470e-01 -6.5407976109294790e-04 0.0000000000000000e+00  9.8665884324720488e-01 -1.3089976913887409e-03 0.0000000000000000e+00  9.8664416018174483e-01 -1.9654107173015913e-03 0.0000000000000000e+00  9.8662241706104570e-01 -2.6243273188314587e-03 0.0000000000000000e+00  9.8659549882243203e-01 -3.2862099399753545e-03 0.0000000000000000e+00  9.8656145425673636e-01 -3.9522083055426507e-03 0.0000000000000000e+00  9.8652216316282426e-01 -4.6225513599423363e-03 0.0000000000000000e+00  9.8647569340887775e-01 -5.2984536034572250e-03 0.0000000000000000e+00  9.8642395453780041e-01 -5.9798073245797660e-03 0.0000000000000000e+00  9.8636509017122709e-01 -6.6677181921304613e-03 0.0000000000000000e+00  9.8630111550476574e-01 -7.3615106265362629e-03 0.0000000000000000e+00  9.8623036167077027e-01 -8.0618322478883623e-03 0.0000000000000000e+00  9.8615509568805715e-01 -8.7669872806912779e-03 0.0000000000000000e+00  9.8607403573825447e-01 -9.4765374422466197e-03 0.0000000000000000e+00  9.8598995064081507e-01 -1.0186986867302022e-02 0.0000000000000000e+00  9.8590226356187949e-01 -1.0895808507517471e-02 0.0000000000000000e+00  9.8581462086546190e-01 -1.1596529074559788e-02 0.0000000000000000e+00  9.8572759333618276e-01 -1.2283135275471943e-02 0.0000000000000000e+00  9.8564618878858135e-01 -1.2944656804448092e-02 0.0000000000000000e+00  9.8557264329939542e-01 -1.3569959457244651e-02 0.0000000000000000e+00  9.8551382961768985e-01 -1.4141994114869697e-02 0.0000000000000000e+00  9.8547411080613589e-01 -1.4643049371969606e-02 0.0000000000000000e+00  9.8546257589256026e-01 -1.5048897748003281e-02 0.0000000000000000e+00  9.8548591702112043e-01 -1.5334619894552981e-02 0.0000000000000000e+00  9.8555541997779184e-01 -1.5468888265579404e-02 0.0000000000000000e+00  9.8567983890809352e-01 -1.5420438750874879e-02 0.0000000000000000e+00  9.8587209514873753e-01 -1.5152645676644861e-02 0.0000000000000000e+00  9.8614216714338054e-01 -1.4630583630109497e-02 0.0000000000000000e+00  9.8650350328607717e-01 -1.3815875255474000e-02 0.0000000000000000e+00  9.8696600427808401e-01 -1.2674101423971804e-02 0.0000000000000000e+00  9.8754220933754844e-01 -1.1169724652248487e-02 0.0000000000000000e+00  9.8824049151975402e-01 -9.2734725978144365e-03 0.0000000000000000e+00  9.8907109827341111e-01 -6.9570627726024932e-03 0.0000000000000000e+00  9.9003967947607574e-01 -4.2001920482490065e-03 0.0000000000000000e+00  9.9115323748787854e-01 -9.8486397695527958e-04 0.0000000000000000e+00  9.9241406305107738e-01 2.6982340714466380e-03 0.0000000000000000e+00  9.9382559281163185e-01 6.8558214803740129e-03 0.0000000000000000e+00  9.9538676780920377e-01 1.1486277701055262e-02 0.0000000000000000e+00  9.9709774164855258e-01 1.6585998887600276e-02 0.0000000000000000e+00  9.9895463242106275e-01 2.2144153197342881e-02 0.0000000000000000e+00  1.0009549973777045e+00 2.8149066720021671e-02 0.0000000000000000e+00  1.0030929362100931e+00 3.4583307105596373e-02 0.0000000000000000e+00  1.0053642512646341e+00 4.1429874931628370e-02 0.0000000000000000e+00  1.0077618718835255e+00 4.8667478270340007e-02 0.0000000000000000e+00  1.0102806402766729e+00 5.6276375614167956e-02 0.0000000000000000e+00  1.0129130479438584e+00 6.4233772583475721e-02 0.0000000000000000e+00  1.0156536114741350e+00 7.2519241360405010e-02 0.0000000000000000e+00  1.0184949307387876e+00 8.1110231817287590e-02 0.0000000000000000e+00  1.0214316373563821e+00 8.9987051518144581e-02 0.0000000000000000e+00  1.0244567952535111e+00 9.9128520386917260e-02 0.0000000000000000e+00  1.0275654152865672e+00 1.0851652813286289e-01 0.0000000000000000e+00  1.0307512221782344e+00 1.1813187502969467e-01 0.0000000000000000e+00  1.0340097335811078e+00 1.2795843590669970e-01 0.0000000000000000e+00  1.0373354157528423e+00 1.3797922764963946e-01 0.0000000000000000e+00  1.0407243268750141e+00 1.4818020952260655e-01 0.0000000000000000e+00  1.0441716795728531e+00 1.5854660859359265e-01 0.0000000000000000e+00  1.0476740487281124e+00 1.6906638219356968e-01 0.0000000000000000e+00  1.0512273537202039e+00 1.7972682089470524e-01 0.0000000000000000e+00  1.0548286315877760e+00 1.9051769454523229e-01 0.0000000000000000e+00  1.0584744465156206e+00 2.0142814125747122e-01 0.0000000000000000e+00  1.0621622306199037e+00 2.1244951545088567e-01 0.0000000000000000e+00  1.0658891231020917e+00 2.2357256120289207e-01 0.0000000000000000e+00  1.0696528834291628e+00 2.3478997916279193e-01 0.0000000000000000e+00  1.0734511580113113e+00 2.4609387288111689e-01 0.0000000000000000e+00  1.0772819744663873e+00 2.5747804976783728e-01 0.0000000000000000e+00  1.0811434304151875e+00 2.6893571710351649e-01 0.0000000000000000e+00  1.0850337840403483e+00 2.8046152570045652e-01 0.0000000000000000e+00  1.0889515601029589e+00 2.9204947084685257e-01 0.0000000000000000e+00  1.0928952651624892e+00 3.0369466256858696e-01 0.0000000000000000e+00  1.0968639178190760e+00 3.1539133382214030e-01 0.0000000000000000e+00  1.1008564495008373e+00 3.2713423921140711e-01 0.0000000000000000e+00  1.1048727119982766e+00 3.3891652277876982e-01 0.0000000000000000e+00  1.1089127152141840e+00 3.5073039374599901e-01 0.0000000000000000e+00  1.1129783121719679e+00 3.6256416628696297e-01 0.0000000000000000e+00  1.1170726870344554e+00 3.7440110646813851e-01 0.0000000000000000e+00  1.1212033592053681e+00 3.8621366959350889e-01 0.0000000000000000e+00  1.1253830933310427e+00 3.9795722088188373e-01 0.0000000000000000e+00  1.1296361411405496e+00 4.0955581080770342e-01 0.0000000000000000e+00  1.1340038806817296e+00 4.2088133112283088e-01 0.0000000000000000e+00  1.1385596978963763e+00 4.3171520397341023e-01 0.0000000000000000e+00  1.1434281150889873e+00 4.4168803796419615e-01 0.0000000000000000e+00  1.1488215296181938e+00 4.5017969809247993e-01 0.0000000000000000e+00  1.1550906231578426e+00 4.5617006209523214e-01 0.0000000000000000e+00  1.1627998351233955e+00 4.5803318147580513e-01 0.0000000000000000e+00  1.1728040816313692e+00 4.5332361629951717e-01 0.0000000000000000e+00  1.1862814421521486e+00 4.3871872775507770e-01 0.0000000000000000e+00  1.2045841531131123e+00 4.1049158910161060e-01 0.0000000000000000e+00  1.2287560735686254e+00 3.6595806386708535e-01 0.0000000000000000e+00  1.2587292763352844e+00 3.0575156106515428e-01 0.0000000000000000e+00  1.2927209658672016e+00 2.3535319698155646e-01 0.0000000000000000e+00  1.3275605714461385e+00 1.6382209689445407e-01 0.0000000000000000e+00  1.3599528031610351e+00 1.0005773064083340e-01 0.0000000000000000e+00  1.3876692728639961e+00 4.9612714986491786e-02 0.0000000000000000e+00  1.4098879412443539e+00 1.4065172071083961e-02 0.0000000000000000e+00  1.4268256435755147e+00 -7.7802325021799667e-03 0.0000000000000000e+00  1.4392058034897959e+00 -1.8402337622968255e-02 0.0000000000000000e+00  1.4478575257484583e+00 -2.0551079770043553e-02 0.0000000000000000e+00  1.4535054905731737e+00 -1.6771290556438525e-02 0.0000000000000000e+00  1.4566814837047184e+00 -9.2763257647907327e-03 0.0000000000000000e+00  1.4577051722152006e+00 -8.8850495050301502e-16 0.0000000000000000e+00  1.4566814837047184e+00 9.2763257647881306e-03 0.0000000000000000e+00  1.4535054905731737e+00 1.6771290556437547e-02 0.0000000000000000e+00  1.4478575257484581e+00 2.0551079770041922e-02 0.0000000000000000e+00  1.4392058034897961e+00 1.8402337622967564e-02 0.0000000000000000e+00  1.4268256435755144e+00 7.7802325021800612e-03 0.0000000000000000e+00  1.4098879412443546e+00 -1.4065172071083484e-02 0.0000000000000000e+00  1.3876692728639963e+00 -4.9612714986490329e-02 0.0000000000000000e+00  1.3599528031610362e+00 -1.0005773064083097e-01 0.0000000000000000e+00  1.3275605714461391e+00 -1.6382209689445196e-01 0.0000000000000000e+00  1.2927209658672023e+00 -2.3535319698155502e-01 0.0000000000000000e+00  1.2587292763352849e+00 -3.0575156106515183e-01 0.0000000000000000e+00  1.2287560735686260e+00 -3.6595806386708440e-01 0.0000000000000000e+00  1.2045841531131127e+00 -4.1049158910160838e-01 0.0000000000000000e+00  1.1862814421521490e+00 -4.3871872775507637e-01 0.0000000000000000e+00  1.1728040816313690e+00 -4.5332361629951601e-01 0.0000000000000000e+00  1.1627998351233955e+00 -4.5803318147580535e-01 0.0000000000000000e+00  1.1550906231578419e+00 -4.5617006209523248e-01 0.0000000000000000e+00  1.1488215296181936e+00 -4.5017969809248021e-01 0.0000000000000000e+00  1.1434281150889873e+00 -4.4168803796419598e-01 0.0000000000000000e+00  1.1385596978963766e+00 -4.3171520397341073e-01 0.0000000000000000e+00  1.1340038806817296e+00 -4.2088133112283149e-01 0.0000000000000000e+00  1.1296361411405496e+00 -4.0955581080770470e-01 0.0000000000000000e+00  1.1253830933310425e+00 -3.9795722088188429e-01 0.0000000000000000e+00  1.1212033592053678e+00 -3.8621366959351061e-01 0.0000000000000000e+00  1.1170726870344552e+00 -3.7440110646813923e-01 0.0000000000000000e+00  1.1129783121719679e+00 -3.6256416628696392e-01 0.0000000000000000e+00  1.1089127152141838e+00 -3.5073039374600185e-01 0.0000000000000000e+00  1.1048727119982771e+00 -3.3891652277877166e-01 0.0000000000000000e+00  1.1008564495008371e+00 -3.2713423921141005e-01 0.0000000000000000e+00  1.0968639178190764e+00 -3.1539133382214191e-01 0.0000000000000000e+00  1.0928952651624890e+00 -3.0369466256858935e-01 0.0000000000000000e+00  1.0889515601029591e+00 -2.9204947084685456e-01 0.0000000000000000e+00  1.0850337840403483e+00 -2.8046152570045740e-01 0.0000000000000000e+00  1.0811434304151877e+00 -2.6893571710351655e-01 0.0000000000000000e+00  1.0772819744663871e+00 -2.5747804976783817e-01 0.0000000000000000e+00  1.0734511580113122e+00 -2.4609387288111792e-01 0.0000000000000000e+00  1.0696528834291630e+00 -2.3478997916279262e-01 0.0000000000000000e+00  1.0658891231020926e+00 -2.2357256120289246e-01 0.0000000000000000e+00  1.0621622306199039e+00 -2.1244951545088567e-01 0.0000000000000000e+00  1.0584744465156217e+00 -2.0142814125747024e-01 0.0000000000000000e+00  1.0548286315877760e+00 -1.9051769454523174e-01 0.0000000000000000e+00  1.0512273537202048e+00 -1.7972682089470410e-01 0.0000000000000000e+00  1.0476740487281122e+00 -1.6906638219356937e-01 0.0000000000000000e+00  1.0441716795728535e+00 -1.5854660859359210e-01 0.0000000000000000e+00  1.0407243268750137e+00 -1.4818020952260627e-01 0.0000000000000000e+00  1.0373354157528425e+00 -1.3797922764963946e-01 0.0000000000000000e+00  1.0340097335811071e+00 -1.2795843590670017e-01 0.0000000000000000e+00  1.0307512221782347e+00 -1.1813187502969542e-01 0.0000000000000000e+00  1.0275654152865670e+00 -1.0851652813286328e-01 0.0000000000000000e+00  1.0244567952535115e+00 -9.9128520386917329e-02 0.0000000000000000e+00  1.0214316373563823e+00 -8.9987051518144442e-02 0.0000000000000000e+00  1.0184949307387881e+00 -8.1110231817287562e-02 0.0000000000000000e+00  1.0156536114741355e+00 -7.2519241360405162e-02 0.0000000000000000e+00  1.0129130479438588e+00 -6.4233772583475582e-02 0.0000000000000000e+00  1.0102806402766735e+00 -5.6276375614167866e-02 0.0000000000000000e+00  1.0077618718835260e+00 -4.8667478270341374e-02 0.0000000000000000e+00  1.0053642512646348e+00 -4.1429874931629335e-02 0.0000000000000000e+00  1.0030929362100935e+00 -3.4583307105597316e-02 0.0000000000000000e+00  1.0009549973777048e+00 -2.8149066720021786e-02 0.0000000000000000e+00  9.9895463242106330e-01 -2.2144153197342732e-02 0.0000000000000000e+00  9.9709774164855303e-01 -1.6585998887600373e-02 0.0000000000000000e+00  9.9538676780920432e-01 -1.1486277701055109e-02 0.0000000000000000e+00  9.9382559281163219e-01 -6.8558214803738854e-03 0.0000000000000000e+00  9.9241406305107782e-01 -2.6982340714460655e-03 0.0000000000000000e+00  9.9115323748787876e-01 9.8486397695551789e-04 0.0000000000000000e+00  9.9003967947607607e-01 4.2001920482490074e-03 0.0000000000000000e+00  9.8907109827341133e-01 6.9570627726022001e-03 0.0000000000000000e+00  9.8824049151975435e-01 9.2734725978139559e-03 0.0000000000000000e+00  9.8754220933754866e-01 1.1169724652248176e-02 0.0000000000000000e+00  9.8696600427808412e-01 1.2674101423971637e-02 0.0000000000000000e+00  9.8650350328607728e-01 1.3815875255474248e-02 0.0000000000000000e+00  9.8614216714338032e-01 1.4630583630109670e-02 0.0000000000000000e+00  9.8587209514873719e-01 1.5152645676644792e-02 0.0000000000000000e+00  9.8567983890809308e-01 1.5420438750874774e-02 0.0000000000000000e+00  9.8555541997779128e-01 1.5468888265579097e-02 0.0000000000000000e+00  9.8548591702111998e-01 1.5334619894552474e-02 0.0000000000000000e+00  9.8546257589255981e-01 1.5048897748003526e-02 0.0000000000000000e+00  9.8547411080613556e-01 1.4643049371969525e-02 0.0000000000000000e+00  9.8551382961768952e-01 1.4141994114870091e-02 0.0000000000000000e+00  9.8557264329939509e-01 1.3569959457244230e-02 0.0000000000000000e+00  9.8564618878858101e-01 1.2944656804448068e-02 0.0000000000000000e+00  9.8572759333618221e-01 1.2283135275471126e-02 0.0000000000000000e+00  9.8581462086546179e-01 1.1596529074559795e-02 0.0000000000000000e+00  9.8590226356187916e-01 1.0895808507516352e-02 0.0000000000000000e+00  9.8598995064081507e-01 1.0186986867302746e-02 0.0000000000000000e+00  9.8607403573825425e-01 9.4765374422468643e-03 0.0000000000000000e+00  9.8615509568805726e-01 8.7669872806919701e-03 0.0000000000000000e+00  9.8623036167077005e-01 8.0618322478884959e-03 0.0000000000000000e+00  9.8630111550476618e-01 7.3615106265362672e-03 0.0000000000000000e+00  9.8636509017122664e-01 6.6677181921311543e-03 0.0000000000000000e+00  9.8642395453780074e-01 5.9798073245795440e-03 0.0000000000000000e+00  9.8647569340887731e-01 5.2984536034571478e-03 0.0000000000000000e+00  9.8652216316282471e-01 4.6225513599414316e-03 0.0000000000000000e+00  9.8656145425673569e-01 3.9522083055421797e-03 0.0000000000000000e+00  9.8659549882243236e-01 3.2862099399739294e-03 0.0000000000000000e+00  9.8662241706104503e-01 2.6243273188303762e-03 0.0000000000000000e+00  9.8664416018174550e-01 1.9654107173005387e-03 0.0000000000000000e+00  9.8665884324720421e-01 1.3089976913887335e-03 0.0000000000000000e+00  9.8666841018698515e-01 6.5407976109276369e-04 0.0000000000000000e+00  9.8667095734569221e-01 0.0000000000000000e+00 0.0000000000000000e+00  </DataArray> 
</PointData> 
</Piece>
</UnstructuredGrid>
</VTKFile>