<?xml version="1.0"?>
<VTKFile type="UnstructuredGrid"  version="0.1"  >
<UnstructuredGrid>
<Piece  NumberOfPoints="201" NumberOfCells="200">
<Points>
<DataArray  type="Float64"  NumberOfComponents="3"  format="ascii">-5 0 0  -4.95 0 0  -4.9 0 0  -4.85 0 0  -4.8 0 0  -4.75 0 0  -4.7 0 0  -4.65 0 0  -4.6 0 0  -4.55 0 0  -4.5 0 0  -4.45 0 0  -4.4 0 0  -4.35 0 0  -4.3 0 0  -4.25 0 0  -4.2 0 0  -4.15 0 0  -4.1 0 0  -4.05 0 0  -4 0 0  -3.95 0 0  -3.9 0 0  -3.85 0 0  -3.8 0 0  -3.75 0 0  -3.7 0 0  -3.65 0 0  -3.6 0 0  -3.55 0 0  -3.5 0 0  -3.45 0 0  -3.4 0 0  -3.35 0 0  -3.3 0 0  -3.25 0 0  -3.2 0 0  -3.15 0 0  -3.1 0 0  -3.05 0 0  -3 0 0  -2.95 0 0  -2.9 0 0  -2.85 0 0  -2.8 0 0  -2.75 0 0  -2.7 0 0  -2.65 0 0  -2.6 0 0  -2.55 0 0  -2.5 0 0  -2.45 0 0  -2.4 0 0  -2.35 0 0  -2.3 0 0  -2.25 0 0  -2.2 0 0  -2.15 0 0  -2.1 0 0  -2.05 0 0  -2 0 0  -1.95 0 0  -1.9 0 0  -1.85 0 0  -1.8 0 0  -1.75 0 0  -1.7 0 0  -1.65 0 0  -1.6 0 0  -1.55 0 0  -1.5 0 0  -1.45 0 0  -1.4 0 0  -1.35 0 0  -1.3 0 0  -1.25 0 0  -1.2 0 0  -1.15 0 0  -1.1 0 0  -1.05 0 0  -1 0 0  -0.9500000000000002 0 0  -0.9000000000000004 0 0  -0.8499999999999996 0 0  -0.7999999999999998 0 0  -0.75 0 0  -0.7000000000000002 0 0  -0.6500000000000004 0 0  -0.5999999999999996 0 0  -0.5499999999999998 0 0  -0.5 0 0  -0.4500000000000002 0 0  -0.4000000000000004 0 0  -0.3499999999999996 0 0  -0.2999999999999998 0 0  -0.25 0 0  -0.2000000000000002 0 0  -0.1500000000000004 0 0  -0.09999999999999964 0 0  -0.04999999999999982 0 0  0 0 0  0.04999999999999982 0 0  0.09999999999999964 0 0  0.1500000000000004 0 0  0.2000000000000002 0 0  0.25 0 0  0.2999999999999998 0 0  0.3499999999999996 0 0  0.4000000000000004 0 0  0.4500000000000002 0 0  0.5 0 0  0.5499999999999998 0 0  0.5999999999999996 0 0  0.6500000000000004 0 0  0.7000000000000002 0 0  0.75 0 0  0.7999999999999998 0 0  0.8499999999999996 0 0  0.9000000000000004 0 0  0.9500000000000002 0 0  1 0 0  1.05 0 0  1.1 0 0  1.15 0 0  1.2 0 0  1.25 0 0  1.3 0 0  1.35 0 0  1.4 0 0  1.45 0 0  1.5 0 0  1.55 0 0  1.6 0 0  1.65 0 0  1.7 0 0  1.75 0 0  1.8 0 0  1.85 0 0  1.9 0 0  1.95 0 0  2 0 0  2.05 0 0  2.1 0 0  2.15 0 0  2.2 0 0  2.25 0 0  2.3 0 0  2.35 0 0  2.4 0 0  2.45 0 0  2.5 0 0  2.55 0 0  2.6 0 0  2.65 0 0  2.7 0 0  2.75 0 0  2.8 0 0  2.85 0 0  2.9 0 0  2.95 0 0  3 0 0  3.050000000000001 0 0  3.1 0 0  3.15 0 0  3.199999999999999 0 0  3.25 0 0  3.300000000000001 0 0  3.35 0 0  3.4 0 0  3.449999999999999 0 0  3.5 0 0  3.550000000000001 0 0  3.6 0 0  3.65 0 0  3.699999999999999 0 0  3.75 0 0  3.800000000000001 0 0  3.85 0 0  3.9 0 0  3.949999999999999 0 0  4 0 0  4.050000000000001 0 0  4.1 0 0  4.15 0 0  4.199999999999999 0 0  4.25 0 0  4.300000000000001 0 0  4.35 0 0  4.4 0 0  4.449999999999999 0 0  4.5 0 0  4.550000000000001 0 0  4.6 0 0  4.65 0 0  4.699999999999999 0 0  4.75 0 0  4.800000000000001 0 0  4.85 0 0  4.9 0 0  4.949999999999999 0 0  5 0 0  </DataArray>
</Points>
<Cells>
<DataArray  type="UInt32"  Name="connectivity"  format="ascii">0 1  1 2  2 3  3 4  4 5  5 6  6 7  7 8  8 9  9 10  10 11  11 12  12 13  13 14  14 15  15 16  16 17  17 18  18 19  19 20  20 21  21 22  22 23  23 24  24 25  25 26  26 27  27 28  28 29  29 30  30 31  31 32  32 33  33 34  34 35  35 36  36 37  37 38  38 39  39 40  40 41  41 42  42 43  43 44  44 45  45 46  46 47  47 48  48 49  49 50  50 51  51 52  52 53  53 54  54 55  55 56  56 57  57 58  58 59  59 60  60 61  61 62  62 63  63 64  64 65  65 66  66 67  67 68  68 69  69 70  70 71  71 72  72 73  73 74  74 75  75 76  76 77  77 78  78 79  79 80  80 81  81 82  82 83  83 84  84 85  85 86  86 87  87 88  88 89  89 90  90 91  91 92  92 93  93 94  94 95  95 96  96 97  97 98  98 99  99 100  100 101  101 102  102 103  103 104  104 105  105 106  106 107  107 108  108 109  109 110  110 111  111 112  112 113  113 114  114 115  115 116  116 117  117 118  118 119  119 120  120 121  121 122  122 123  123 124  124 125  125 126  126 127  127 128  128 129  129 130  130 131  131 132  132 133  133 134  134 135  135 136  136 137  137 138  138 139  139 140  140 141  141 142  142 143  143 144  144 145  145 146  146 147  147 148  148 149  149 150  150 151  151 152  152 153  153 154  154 155  155 156  156 157  157 158  158 159  159 160  160 161  161 162  162 163  163 164  164 165  165 166  166 167  167 168  168 169  169 170  170 171  171 172  172 173  173 174  174 175  175 176  176 177  177 178  178 179  179 180  180 181  181 182  182 183  183 184  184 185  185 186  186 187  187 188  188 189  189 190  190 191  191 192  192 193  193 194  194 195  195 196  196 197  197 198  198 199  199 200  </DataArray>
<DataArray  type="UInt32"  Name="offsets"  format="ascii">2 4 6 8 10 12 14 16 18 20 22 24 26 28 30 32 34 36 38 40 42 44 46 48 50 52 54 56 58 60 62 64 66 68 70 72 74 76 78 80 82 84 86 88 90 92 94 96 98 100 102 104 106 108 110 112 114 116 118 120 122 124 126 128 130 132 134 136 138 140 142 144 146 148 150 152 154 156 158 160 162 164 166 168 170 172 174 176 178 180 182 184 186 188 190 192 194 196 198 200 202 204 206 208 210 212 214 216 218 220 222 224 226 228 230 232 234 236 238 240 242 244 246 248 250 252 254 256 258 260 262 264 266 268 270 272 274 276 278 280 282 284 286 288 290 292 294 296 298 300 302 304 306 308 310 312 314 316 318 320 322 324 326 328 330 332 334 336 338 340 342 344 346 348 350 352 354 356 358 360 362 364 366 368 370 372 374 376 378 380 382 384 386 388 390 392 394 396 398 400 </DataArray>
<DataArray  type="UInt8"  Name="types"  format="ascii">3 3 3 3 3 3 3 3 3 3 3 3 3 3 3 3 3 3 3 3 3 3 3 3 3 3 3 3 3 3 3 3 3 3 3 3 3 3 3 3 3 3 3 3 3 3 3 3 3 3 3 3 3 3 3 3 3 3 3 3 3 3 3 3 3 3 3 3 3 3 3 3 3 3 3 3 3 3 3 3 3 3 3 3 3 3 3 3 3 3 3 3 3 3 3 3 3 3 3 3 3 3 3 3 3 3 3 3 3 3 3 3 3 3 3 3 3 3 3 3 3 3 3 3 3 3 3 3 3 3 3 3 3 3 3 3 3 3 3 3 3 3 3 3 3 3 3 3 3 3 3 3 3 3 3 3 3 3 3 3 3 3 3 3 3 3 3 3 3 3 3 3 3 3 3 3 3 3 3 3 3 3 3 3 3 3 3 3 3 3 3 3 3 3 3 3 3 3 3 3 </DataArray>
</Cells>
<PointData  Vectors="(h, u)"> 
<DataArray  type="Float64"  Name="(h, u)"  NumberOfComponents="3" format="ascii">1.0188850179613806e+00 0.0000000000000000e+00 0.0000000000000000e+00  1.0208141516984139e+00 -3.3009306007027409e-02 0.0000000000000000e+00  1.0266371594200849e+00 -6.9325860127094893e-02 0.0000000000000000e+00  1.0363886789922503e+00 -1.1159530811367588e-01 0.0000000000000000e+00  1.0498863412290076e+00 -1.6108595406578505e-01 0.0000000000000000e+00  1.0665114382948226e+00 -2.1709997940901057e-01 0.0000000000000000e+00  1.0851176121106338e+00 -2.7691877087114763e-01 0.0000000000000000e+00  1.1042098964002940e+00 -3.3653828449945916e-01 0.0000000000000000e+00  1.1222977943212677e+00 -3.9191432256169689e-01 0.0000000000000000e+00  1.1382475901440285e+00 -4.4004832333414090e-01 0.0000000000000000e+00  1.1514362079631262e+00 -4.7944342542739954e-01 0.0000000000000000e+00  1.1617219577162081e+00 -5.0995158888309344e-01 0.0000000000000000e+00  1.1692925569089938e+00 -5.3232430829369537e-01 0.0000000000000000e+00  1.1745141476415202e+00 -5.4775109471773997e-01 0.0000000000000000e+00  1.1778036112489714e+00 -5.5752355061064007e-01 0.0000000000000000e+00  1.1795626100070664e+00 -5.6284178521172801e-01 0.0000000000000000e+00  1.1801363689778008e+00 -5.6472956298308430e-01 0.0000000000000000e+00  1.1798103044980499e+00 -5.6401560647088655e-01 0.0000000000000000e+00  1.1788064402967393e+00 -5.6134831430740073e-01 0.0000000000000000e+00  1.1772983019634429e+00 -5.5722404764185041e-01 0.0000000000000000e+00  1.1754144137638971e+00 -5.5201692844796690e-01 0.0000000000000000e+00  1.1732536572673811e+00 -5.4600671340860363e-01 0.0000000000000000e+00  1.1708869349085700e+00 -5.3940085018951334e-01 0.0000000000000000e+00  1.1683693315341315e+00 -5.3235333535678897e-01 0.0000000000000000e+00  1.1657390775076082e+00 -5.2497758649745763e-01 0.0000000000000000e+00  1.1630268974143947e+00 -5.1735806416750862e-01 0.0000000000000000e+00  1.1602531487895840e+00 -5.0955674884033464e-01 0.0000000000000000e+00  1.1574352843334019e+00 -5.0162040726285184e-01 0.0000000000000000e+00  1.1545840225186803e+00 -4.9358316275395880e-01 0.0000000000000000e+00  1.1517096108277289e+00 -4.8547146199875635e-01 0.0000000000000000e+00  1.1488175879755576e+00 -4.7730431735559631e-01 0.0000000000000000e+00  1.1459142603103216e+00 -4.6909719875754063e-01 0.0000000000000000e+00  1.1430023796437128e+00 -4.6086084485295348e-01 0.0000000000000000e+00  1.1400860610229184e+00 -4.5260476119459547e-01 0.0000000000000000e+00  1.1371665544142171e+00 -4.4433508707001185e-01 0.0000000000000000e+00  1.1342467262773044e+00 -4.3605806723549273e-01 0.0000000000000000e+00  1.1313270203128265e+00 -4.2777723406663720e-01 0.0000000000000000e+00  1.1284095684221755e+00 -4.1949704708545427e-01 0.0000000000000000e+00  1.1254943896496203e+00 -4.1121952908384168e-01 0.0000000000000000e+00  1.1225831669553228e+00 -4.0294817391421256e-01 0.0000000000000000e+00  1.1196757078599737e+00 -3.9468411264356490e-01 0.0000000000000000e+00  1.1167734092783657e+00 -3.8643033918292830e-01 0.0000000000000000e+00  1.1138759887784524e+00 -3.7818745115591673e-01 0.0000000000000000e+00  1.1109846534080778e+00 -3.6995821478310825e-01 0.0000000000000000e+00  1.1080991017791615e+00 -3.6174291021349614e-01 0.0000000000000000e+00  1.1052204105201076e+00 -3.5354424081585339e-01 0.0000000000000000e+00  1.1023483018778455e+00 -3.4536230636905541e-01 0.0000000000000000e+00  1.0994837610932544e+00 -3.3719985182041207e-01 0.0000000000000000e+00  1.0966265604790539e+00 -3.2905688985835202e-01 0.0000000000000000e+00  1.0937776215644288e+00 -3.2093627729726582e-01 0.0000000000000000e+00  1.0909367839459534e+00 -3.1283800904394210e-01 0.0000000000000000e+00  1.0881049269114562e+00 -3.0476510502059950e-01 0.0000000000000000e+00  1.0852819694191496e+00 -2.9671759929080382e-01 0.0000000000000000e+00  1.0824687667889128e+00 -2.8869871604491770e-01 0.0000000000000000e+00  1.0796653267633158e+00 -2.8070858009789013e-01 0.0000000000000000e+00  1.0768724975882642e+00 -2.7275065652698849e-01 0.0000000000000000e+00  1.0740903841562586e+00 -2.6482521157626177e-01 0.0000000000000000e+00  1.0713198443071712e+00 -2.5693598684609525e-01 0.0000000000000000e+00  1.0685610884969257e+00 -2.4908344264279733e-01 0.0000000000000000e+00  1.0658150013989622e+00 -2.4127163406480828e-01 0.0000000000000000e+00  1.0630819083474192e+00 -2.3350127187587078e-01 0.0000000000000000e+00  1.0603627393077641e+00 -2.2577676435135571e-01 0.0000000000000000e+00  1.0576579454889077e+00 -2.1809913369310982e-01 0.0000000000000000e+00  1.0549685224988377e+00 -2.1047318404116760e-01 0.0000000000000000e+00  1.0522950609874975e+00 -2.0290031413394000e-01 0.0000000000000000e+00  1.0496386453512325e+00 -1.9538576839694485e-01 0.0000000000000000e+00  1.0470000230440935e+00 -1.8793138880228522e-01 0.0000000000000000e+00  1.0443803945980876e+00 -1.8054290234615286e-01 0.0000000000000000e+00  1.0417806873081457e+00 -1.7322265668088158e-01 0.0000000000000000e+00  1.0392022516472301e+00 -1.6597689353034928e-01 0.0000000000000000e+00  1.0366462263522882e+00 -1.5880851349856395e-01 0.0000000000000000e+00  1.0341141555589235e+00 -1.5172428107839767e-01 0.0000000000000000e+00  1.0316074338017793e+00 -1.4472766406918910e-01 0.0000000000000000e+00  1.0291278573254072e+00 -1.3782591205773187e-01 0.0000000000000000e+00  1.0266771389741609e+00 -1.3102301538847885e-01 0.0000000000000000e+00  1.0242574059865845e+00 -1.2432659595819483e-01 0.0000000000000000e+00  1.0218707758625942e+00 -1.1774103040667007e-01 0.0000000000000000e+00  1.0195198112070609e+00 -1.1127409086210654e-01 0.0000000000000000e+00  1.0172071479752038e+00 -1.0493027815466589e-01 0.0000000000000000e+00  1.0149359151946606e+00 -9.8717152233156719e-02 0.0000000000000000e+00  1.0127094060413702e+00 -9.2638925129353636e-02 0.0000000000000000e+00  1.0105314662281040e+00 -8.6702427456906386e-02 0.0000000000000000e+00  1.0084061959408148e+00 -8.0911018415683961e-02 0.0000000000000000e+00  1.0063383054469721e+00 -7.5270146329813645e-02 0.0000000000000000e+00  1.0043328324433338e+00 -6.9781643409517632e-02 0.0000000000000000e+00  1.0023954579229983e+00 -6.4448852770645743e-02 0.0000000000000000e+00  1.0005322203163112e+00 -5.9271385668337569e-02 0.0000000000000000e+00  9.9874978075096899e-01 -5.4249800293152614e-02 0.0000000000000000e+00  9.9705511476361619e-01 -4.9380903138869489e-02 0.0000000000000000e+00  9.9545571627482698e-01 -4.4661970013942218e-02 0.0000000000000000e+00  9.9395925199761992e-01 -4.0086665401940960e-02 0.0000000000000000e+00  9.9257369967685649e-01 -3.5648789240623702e-02 0.0000000000000000e+00  9.9130696073221847e-01 -3.1338866763405311e-02 0.0000000000000000e+00  9.9016694047437559e-01 -2.7147387193585368e-02 0.0000000000000000e+00  9.8916112944987500e-01 -2.3062087031632400e-02 0.0000000000000000e+00  9.8829664834991526e-01 -1.9070627874789893e-02 0.0000000000000000e+00  9.8757982354579033e-01 -1.5158570201998414e-02 0.0000000000000000e+00  9.8701623182828147e-01 -1.1311429678726651e-02 0.0000000000000000e+00  9.8661030498760771e-01 -7.5133276993138111e-03 0.0000000000000000e+00  9.8636541391984278e-01 -3.7483765783841117e-03 0.0000000000000000e+00  9.8628353644925659e-01 -1.6676586782179912e-15 0.0000000000000000e+00  9.8636541391984289e-01 3.7483765783842948e-03 0.0000000000000000e+00  9.8661030498760782e-01 7.5133276993109488e-03 0.0000000000000000e+00  9.8701623182828147e-01 1.1311429678726502e-02 0.0000000000000000e+00  9.8757982354579088e-01 1.5158570201995231e-02 0.0000000000000000e+00  9.8829664834991526e-01 1.9070627874790028e-02 0.0000000000000000e+00  9.8916112944987555e-01 2.3062087031629860e-02 0.0000000000000000e+00  9.9016694047437526e-01 2.7147387193585441e-02 0.0000000000000000e+00  9.9130696073221902e-01 3.1338866763403361e-02 0.0000000000000000e+00  9.9257369967685583e-01 3.5648789240624638e-02 0.0000000000000000e+00  9.9395925199762047e-01 4.0086665401939926e-02 0.0000000000000000e+00  9.9545571627482643e-01 4.4661970013943689e-02 0.0000000000000000e+00  9.9705511476361663e-01 4.9380903138868691e-02 0.0000000000000000e+00  9.9874978075096832e-01 5.4249800293153919e-02 0.0000000000000000e+00  1.0005322203163116e+00 5.9271385668337132e-02 0.0000000000000000e+00  1.0023954579229979e+00 6.4448852770646672e-02 0.0000000000000000e+00  1.0043328324433345e+00 6.9781643409516730e-02 0.0000000000000000e+00  1.0063383054469719e+00 7.5270146329814464e-02 0.0000000000000000e+00  1.0084061959408148e+00 8.0911018415682934e-02 0.0000000000000000e+00  1.0105314662281035e+00 8.6702427456906178e-02 0.0000000000000000e+00  1.0127094060413702e+00 9.2638925129352442e-02 0.0000000000000000e+00  1.0149359151946602e+00 9.8717152233155914e-02 0.0000000000000000e+00  1.0172071479752043e+00 1.0493027815466380e-01 0.0000000000000000e+00  1.0195198112070609e+00 1.1127409086210677e-01 0.0000000000000000e+00  1.0218707758625951e+00 1.1774103040666807e-01 0.0000000000000000e+00  1.0242574059865845e+00 1.2432659595819442e-01 0.0000000000000000e+00  1.0266771389741618e+00 1.3102301538847605e-01 0.0000000000000000e+00  1.0291278573254072e+00 1.3782591205773187e-01 0.0000000000000000e+00  1.0316074338017800e+00 1.4472766406918697e-01 0.0000000000000000e+00  1.0341141555589233e+00 1.5172428107839805e-01 0.0000000000000000e+00  1.0366462263522886e+00 1.5880851349856218e-01 0.0000000000000000e+00  1.0392022516472299e+00 1.6597689353034939e-01 0.0000000000000000e+00  1.0417806873081459e+00 1.7322265668088094e-01 0.0000000000000000e+00  1.0443803945980874e+00 1.8054290234615503e-01 0.0000000000000000e+00  1.0470000230440937e+00 1.8793138880228538e-01 0.0000000000000000e+00  1.0496386453512325e+00 1.9538576839694533e-01 0.0000000000000000e+00  1.0522950609874977e+00 2.0290031413393914e-01 0.0000000000000000e+00  1.0549685224988374e+00 2.1047318404116727e-01 0.0000000000000000e+00  1.0576579454889079e+00 2.1809913369311065e-01 0.0000000000000000e+00  1.0603627393077641e+00 2.2577676435135591e-01 0.0000000000000000e+00  1.0630819083474194e+00 2.3350127187587030e-01 0.0000000000000000e+00  1.0658150013989622e+00 2.4127163406480739e-01 0.0000000000000000e+00  1.0685610884969259e+00 2.4908344264279633e-01 0.0000000000000000e+00  1.0713198443071712e+00 2.5693598684609625e-01 0.0000000000000000e+00  1.0740903841562590e+00 2.6482521157626210e-01 0.0000000000000000e+00  1.0768724975882635e+00 2.7275065652698965e-01 0.0000000000000000e+00  1.0796653267633156e+00 2.8070858009789035e-01 0.0000000000000000e+00  1.0824687667889117e+00 2.8869871604491903e-01 0.0000000000000000e+00  1.0852819694191493e+00 2.9671759929080388e-01 0.0000000000000000e+00  1.0881049269114551e+00 3.0476510502060089e-01 0.0000000000000000e+00  1.0909367839459529e+00 3.1283800904394177e-01 0.0000000000000000e+00  1.0937776215644281e+00 3.2093627729726609e-01 0.0000000000000000e+00  1.0966265604790539e+00 3.2905688985835152e-01 0.0000000000000000e+00  1.0994837610932537e+00 3.3719985182041262e-01 0.0000000000000000e+00  1.1023483018778450e+00 3.4536230636905529e-01 0.0000000000000000e+00  1.1052204105201067e+00 3.5354424081585384e-01 0.0000000000000000e+00  1.1080991017791610e+00 3.6174291021349503e-01 0.0000000000000000e+00  1.1109846534080769e+00 3.6995821478310764e-01 0.0000000000000000e+00  1.1138759887784522e+00 3.7818745115591473e-01 0.0000000000000000e+00  1.1167734092783652e+00 3.8643033918292746e-01 0.0000000000000000e+00  1.1196757078599735e+00 3.9468411264356290e-01 0.0000000000000000e+00  1.1225831669553228e+00 4.0294817391421184e-01 0.0000000000000000e+00  1.1254943896496208e+00 4.1121952908383935e-01 0.0000000000000000e+00  1.1284095684221760e+00 4.1949704708545327e-01 0.0000000000000000e+00  1.1313270203128269e+00 4.2777723406663520e-01 0.0000000000000000e+00  1.1342467262773048e+00 4.3605806723549201e-01 0.0000000000000000e+00  1.1371665544142173e+00 4.4433508707000952e-01 0.0000000000000000e+00  1.1400860610229182e+00 4.5260476119459359e-01 0.0000000000000000e+00  1.1430023796437130e+00 4.6086084485295048e-01 0.0000000000000000e+00  1.1459142603103218e+00 4.6909719875753947e-01 0.0000000000000000e+00  1.1488175879755576e+00 4.7730431735559448e-01 0.0000000000000000e+00  1.1517096108277292e+00 4.8547146199875618e-01 0.0000000000000000e+00  1.1545840225186808e+00 4.9358316275395825e-01 0.0000000000000000e+00  1.1574352843334021e+00 5.0162040726285162e-01 0.0000000000000000e+00  1.1602531487895844e+00 5.0955674884033408e-01 0.0000000000000000e+00  1.1630268974143947e+00 5.1735806416750962e-01 0.0000000000000000e+00  1.1657390775076089e+00 5.2497758649745674e-01 0.0000000000000000e+00  1.1683693315341317e+00 5.3235333535678986e-01 0.0000000000000000e+00  1.1708869349085704e+00 5.3940085018951278e-01 0.0000000000000000e+00  1.1732536572673813e+00 5.4600671340860407e-01 0.0000000000000000e+00  1.1754144137638975e+00 5.5201692844796590e-01 0.0000000000000000e+00  1.1772983019634433e+00 5.5722404764185163e-01 0.0000000000000000e+00  1.1788064402967398e+00 5.6134831430740073e-01 0.0000000000000000e+00  1.1798103044980499e+00 5.6401560647088778e-01 0.0000000000000000e+00  1.1801363689778011e+00 5.6472956298308419e-01 0.0000000000000000e+00  1.1795626100070664e+00 5.6284178521172890e-01 0.0000000000000000e+00  1.1778036112489716e+00 5.5752355061063963e-01 0.0000000000000000e+00  1.1745141476415204e+00 5.4775109471773975e-01 0.0000000000000000e+00  1.1692925569089945e+00 5.3232430829369515e-01 0.0000000000000000e+00  1.1617219577162088e+00 5.0995158888309311e-01 0.0000000000000000e+00  1.1514362079631268e+00 4.7944342542739965e-01 0.0000000000000000e+00  1.1382475901440283e+00 4.4004832333414023e-01 0.0000000000000000e+00  1.1222977943212682e+00 3.9191432256169723e-01 0.0000000000000000e+00  1.1042098964002940e+00 3.3653828449946005e-01 0.0000000000000000e+00  1.0851176121106347e+00 2.7691877087114886e-01 0.0000000000000000e+00  1.0665114382948229e+00 2.1709997940901096e-01 0.0000000000000000e+00  1.0498863412290078e+00 1.6108595406578563e-01 0.0000000000000000e+00  1.0363886789922503e+00 1.1159530811367754e-01 0.0000000000000000e+00  1.0266371594200849e+00 6.9325860127096378e-02 0.0000000000000000e+00  1.0208141516984139e+00 3.3009306007028547e-02 0.0000000000000000e+00  1.0188850179613804e+00 0.0000000000000000e+00 0.0000000000000000e+00  </DataArray> 
</PointData> 
</Piece>
</UnstructuredGrid>
</VTKFile>