<?xml version="1.0"?>
<VTKFile type="UnstructuredGrid"  version="0.1"  >
<UnstructuredGrid>
<Piece  NumberOfPoints="201" NumberOfCells="200">
<Points>
<DataArray  type="Float64"  NumberOfComponents="3"  format="ascii">-5 0 0  -4.95 0 0  -4.9 0 0  -4.85 0 0  -4.8 0 0  -4.75 0 0  -4.7 0 0  -4.65 0 0  -4.6 0 0  -4.55 0 0  -4.5 0 0  -4.45 0 0  -4.4 0 0  -4.35 0 0  -4.3 0 0  -4.25 0 0  -4.2 0 0  -4.15 0 0  -4.1 0 0  -4.05 0 0  -4 0 0  -3.95 0 0  -3.9 0 0  -3.85 0 0  -3.8 0 0  -3.75 0 0  -3.7 0 0  -3.65 0 0  -3.6 0 0  -3.55 0 0  -3.5 0 0  -3.45 0 0  -3.4 0 0  -3.35 0 0  -3.3 0 0  -3.25 0 0  -3.2 0 0  -3.15 0 0  -3.1 0 0  -3.05 0 0  -3 0 0  -2.95 0 0  -2.9 0 0  -2.85 0 0  -2.8 0 0  -2.75 0 0  -2.7 0 0  -2.65 0 0  -2.6 0 0  -2.55 0 0  -2.5 0 0  -2.45 0 0  -2.4 0 0  -2.35 0 0  -2.3 0 0  -2.25 0 0  -2.2 0 0  -2.15 0 0  -2.1 0 0  -2.05 0 0  -2 0 0  -1.95 0 0  -1.9 0 0  -1.85 0 0  -1.8 0 0  -1.75 0 0  -1.7 0 0  -1.65 0 0  -1.6 0 0  -1.55 0 0  -1.5 0 0  -1.45 0 0  -1.4 0 0  -1.35 0 0  -1.3 0 0  -1.25 0 0  -1.2 0 0  -1.15 0 0  -1.1 0 0  -1.05 0 0  -1 0 0  -0.9500000000000002 0 0  -0.9000000000000004 0 0  -0.8499999999999996 0 0  -0.7999999999999998 0 0  -0.75 0 0  -0.7000000000000002 0 0  -0.6500000000000004 0 0  -0.5999999999999996 0 0  -0.5499999999999998 0 0  -0.5 0 0  -0.4500000000000002 0 0  -0.4000000000000004 0 0  -0.3499999999999996 0 0  -0.2999999999999998 0 0  -0.25 0 0  -0.2000000000000002 0 0  -0.1500000000000004 0 0  -0.09999999999999964 0 0  -0.04999999999999982 0 0  0 0 0  0.04999999999999982 0 0  0.09999999999999964 0 0  0.1500000000000004 0 0  0.2000000000000002 0 0  0.25 0 0  0.2999999999999998 0 0  0.3499999999999996 0 0  0.4000000000000004 0 0  0.4500000000000002 0 0  0.5 0 0  0.5499999999999998 0 0  0.5999999999999996 0 0  0.6500000000000004 0 0  0.7000000000000002 0 0  0.75 0 0  0.7999999999999998 0 0  0.8499999999999996 0 0  0.9000000000000004 0 0  0.9500000000000002 0 0  1 0 0  1.05 0 0  1.1 0 0  1.15 0 0  1.2 0 0  1.25 0 0  1.3 0 0  1.35 0 0  1.4 0 0  1.45 0 0  1.5 0 0  1.55 0 0  1.6 0 0  1.65 0 0  1.7 0 0  1.75 0 0  1.8 0 0  1.85 0 0  1.9 0 0  1.95 0 0  2 0 0  2.05 0 0  2.1 0 0  2.15 0 0  2.2 0 0  2.25 0 0  2.3 0 0  2.35 0 0  2.4 0 0  2.45 0 0  2.5 0 0  2.55 0 0  2.6 0 0  2.65 0 0  2.7 0 0  2.75 0 0  2.8 0 0  2.85 0 0  2.9 0 0  2.95 0 0  3 0 0  3.050000000000001 0 0  3.1 0 0  3.15 0 0  3.199999999999999 0 0  3.25 0 0  3.300000000000001 0 0  3.35 0 0  3.4 0 0  3.449999999999999 0 0  3.5 0 0  3.550000000000001 0 0  3.6 0 0  3.65 0 0  3.699999999999999 0 0  3.75 0 0  3.800000000000001 0 0  3.85 0 0  3.9 0 0  3.949999999999999 0 0  4 0 0  4.050000000000001 0 0  4.1 0 0  4.15 0 0  4.199999999999999 0 0  4.25 0 0  4.300000000000001 0 0  4.35 0 0  4.4 0 0  4.449999999999999 0 0  4.5 0 0  4.550000000000001 0 0  4.6 0 0  4.65 0 0  4.699999999999999 0 0  4.75 0 0  4.800000000000001 0 0  4.85 0 0  4.9 0 0  4.949999999999999 0 0  5 0 0  </DataArray>
</Points>
<Cells>
<DataArray  type="UInt32"  Name="connectivity"  format="ascii">0 1  1 2  2 3  3 4  4 5  5 6  6 7  7 8  8 9  9 10  10 11  11 12  12 13  13 14  14 15  15 16  16 17  17 18  18 19  19 20  20 21  21 22  22 23  23 24  24 25  25 26  26 27  27 28  28 29  29 30  30 31  31 32  32 33  33 34  34 35  35 36  36 37  37 38  38 39  39 40  40 41  41 42  42 43  43 44  44 45  45 46  46 47  47 48  48 49  49 50  50 51  51 52  52 53  53 54  54 55  55 56  56 57  57 58  58 59  59 60  60 61  61 62  62 63  63 64  64 65  65 66  66 67  67 68  68 69  69 70  70 71  71 72  72 73  73 74  74 75  75 76  76 77  77 78  78 79  79 80  80 81  81 82  82 83  83 84  84 85  85 86  86 87  87 88  88 89  89 90  90 91  91 92  92 93  93 94  94 95  95 96  96 97  97 98  98 99  99 100  100 101  101 102  102 103  103 104  104 105  105 106  106 107  107 108  108 109  109 110  110 111  111 112  112 113  113 114  114 115  115 116  116 117  117 118  118 119  119 120  120 121  121 122  122 123  123 124  124 125  125 126  126 127  127 128  128 129  129 130  130 131  131 132  132 133  133 134  134 135  135 136  136 137  137 138  138 139  139 140  140 141  141 142  142 143  143 144  144 145  145 146  146 147  147 148  148 149  149 150  150 151  151 152  152 153  153 154  154 155  155 156  156 157  157 158  158 159  159 160  160 161  161 162  162 163  163 164  164 165  165 166  166 167  167 168  168 169  169 170  170 171  171 172  172 173  173 174  174 175  175 176  176 177  177 178  178 179  179 180  180 181  181 182  182 183  183 184  184 185  185 186  186 187  187 188  188 189  189 190  190 191  191 192  192 193  193 194  194 195  195 196  196 197  197 198  198 199  199 200  </DataArray>
<DataArray  type="UInt32"  Name="offsets"  format="ascii">2 4 6 8 10 12 14 16 18 20 22 24 26 28 30 32 34 36 38 40 42 44 46 48 50 52 54 56 58 60 62 64 66 68 70 72 74 76 78 80 82 84 86 88 90 92 94 96 98 100 102 104 106 108 110 112 114 116 118 120 122 124 126 128 130 132 134 136 138 140 142 144 146 148 150 152 154 156 158 160 162 164 166 168 170 172 174 176 178 180 182 184 186 188 190 192 194 196 198 200 202 204 206 208 210 212 214 216 218 220 222 224 226 228 230 232 234 236 238 240 242 244 246 248 250 252 254 256 258 260 262 264 266 268 270 272 274 276 278 280 282 284 286 288 290 292 294 296 298 300 302 304 306 308 310 312 314 316 318 320 322 324 326 328 330 332 334 336 338 340 342 344 346 348 350 352 354 356 358 360 362 364 366 368 370 372 374 376 378 380 382 384 386 388 390 392 394 396 398 400 </DataArray>
<DataArray  type="UInt8"  Name="types"  format="ascii">3 3 3 3 3 3 3 3 3 3 3 3 3 3 3 3 3 3 3 3 3 3 3 3 3 3 3 3 3 3 3 3 3 3 3 3 3 3 3 3 3 3 3 3 3 3 3 3 3 3 3 3 3 3 3 3 3 3 3 3 3 3 3 3 3 3 3 3 3 3 3 3 3 3 3 3 3 3 3 3 3 3 3 3 3 3 3 3 3 3 3 3 3 3 3 3 3 3 3 3 3 3 3 3 3 3 3 3 3 3 3 3 3 3 3 3 3 3 3 3 3 3 3 3 3 3 3 3 3 3 3 3 3 3 3 3 3 3 3 3 3 3 3 3 3 3 3 3 3 3 3 3 3 3 3 3 3 3 3 3 3 3 3 3 3 3 3 3 3 3 3 3 3 3 3 3 3 3 3 3 3 3 3 3 3 3 3 3 3 3 3 3 3 3 3 3 3 3 3 3 </DataArray>
</Cells>
<PointData  Vectors="(h, u)"> 
<DataArray  type="Float64"  Name="(h, u)"  NumberOfComponents="3" format="ascii">1.0000012705659378e+00 0.0000000000000000e+00 0.0000000000000000e+00  1.0000017680724360e+00 -3.6246320534464953e-06 0.0000000000000000e+00  1.0000033333044238e+00 -9.7678529035111853e-06 0.0000000000000000e+00  1.0000072214844382e+00 -2.2126221438462169e-05 0.0000000000000000e+00  1.0000156855120670e+00 -4.9115409511880210e-05 0.0000000000000000e+00  1.0000342245948279e+00 -1.0695934386305412e-04 0.0000000000000000e+00  1.0000740645430957e+00 -2.3205371960240714e-04 0.0000000000000000e+00  1.0001593114454808e+00 -4.9873251096640514e-04 0.0000000000000000e+00  1.0003401155837002e+00 -1.0651563707467318e-03 0.0000000000000000e+00  1.0007204627736035e+00 -2.2558431289319545e-03 0.0000000000000000e+00  1.0015129666381180e+00 -4.7369948502569712e-03 0.0000000000000000e+00  1.0031441283207236e+00 -9.8415724115727063e-03 0.0000000000000000e+00  1.0064451725708807e+00 -2.0164703119077233e-02 0.0000000000000000e+00  1.0129516115510271e+00 -4.0482355120032849e-02 0.0000000000000000e+00  1.0252356364114790e+00 -7.8732619240184279e-02 0.0000000000000000e+00  1.0468506845643828e+00 -1.4568177066916288e-01 0.0000000000000000e+00  1.0810042127107007e+00 -2.5048821092987322e-01 0.0000000000000000e+00  1.1276365037317031e+00 -3.9149253545392965e-01 0.0000000000000000e+00  1.1813440988557775e+00 -5.5061591245327612e-01 0.0000000000000000e+00  1.2335419966859751e+00 -7.0169946304389497e-01 0.0000000000000000e+00  1.2772203349144742e+00 -8.2533518471895584e-01 0.0000000000000000e+00  1.3093911814820338e+00 -9.1475632643437876e-01 0.0000000000000000e+00  1.3303627106316669e+00 -9.7230180412055944e-01 0.0000000000000000e+00  1.3420345945484431e+00 -1.0040972016633190e+00 0.0000000000000000e+00  1.3466383550702050e+00 -1.0166405492072839e+00 0.0000000000000000e+00  1.3461339122062492e+00 -1.0153912462154813e+00 0.0000000000000000e+00  1.3420416116720792e+00 -1.0044725708578026e+00 0.0000000000000000e+00  1.3354648567926994e+00 -9.8683784786283313e-01 0.0000000000000000e+00  1.3271795341841213e+00 -9.6454034068106309e-01 0.0000000000000000e+00  1.3177205196488593e+00 -9.3899350561083728e-01 0.0000000000000000e+00  1.3074561890852527e+00 -9.1116341860667116e-01 0.0000000000000000e+00  1.2966393105793670e+00 -8.8171727840168024e-01 0.0000000000000000e+00  1.2854459825935900e+00 -8.5111534231854324e-01 0.0000000000000000e+00  1.2739992311490380e+00 -8.1968432590196794e-01 0.0000000000000000e+00  1.2623873790354467e+00 -7.8765480146678513e-01 0.0000000000000000e+00  1.2506743325233884e+00 -7.5519882266336125e-01 0.0000000000000000e+00  1.2389080420445535e+00 -7.2244177585291869e-01 0.0000000000000000e+00  1.2271251750072438e+00 -6.8948477832106825e-01 0.0000000000000000e+00  1.2153548218364738e+00 -6.5640459538101825e-01 0.0000000000000000e+00  1.2036211099569392e+00 -6.2327017411954933e-01 0.0000000000000000e+00  1.1919444101204861e+00 -5.9013652092018409e-01 0.0000000000000000e+00  1.1803434809537936e+00 -5.5705955730923129e-01 0.0000000000000000e+00  1.1688351348200059e+00 -5.2408645333230452e-01 0.0000000000000000e+00  1.1574366414474579e+00 -4.9127074380137259e-01 0.0000000000000000e+00  1.1461642609899552e+00 -4.5866017442414603e-01 0.0000000000000000e+00  1.1350362590400040e+00 -4.2631303583503255e-01 0.0000000000000000e+00  1.1240704828209429e+00 -3.9428397649893793e-01 0.0000000000000000e+00  1.1132881635973151e+00 -3.6264204918130843e-01 0.0000000000000000e+00  1.1027106107040039e+00 -3.3145467782899590e-01 0.0000000000000000e+00  1.0923638724850770e+00 -3.0080762553040702e-01 0.0000000000000000e+00  1.0822745617696390e+00 -2.7078712638234365e-01 0.0000000000000000e+00  1.0724753443393726e+00 -2.4150168326376290e-01 0.0000000000000000e+00  1.0629998310374027e+00 -2.1306212124331234e-01 0.0000000000000000e+00  1.0538887115386106e+00 -1.8560464841861968e-01 0.0000000000000000e+00  1.0451835042029731e+00 -1.5926810018721069e-01 0.0000000000000000e+00  1.0369329147715804e+00 -1.3421692179466418e-01 0.0000000000000000e+00  1.0291850112814578e+00 -1.1061410228597519e-01 0.0000000000000000e+00  1.0219931038648267e+00 -8.8641794332949331e-02 0.0000000000000000e+00  1.0154057470281872e+00 -6.8467836050747105e-02 0.0000000000000000e+00  1.0094714031205796e+00 -5.0261587958175459e-02 0.0000000000000000e+00  1.0042260564267349e+00 -3.4153139000137597e-02 0.0000000000000000e+00  9.9969680914059011e-01 -2.0244855165333728e-02 0.0000000000000000e+00  9.9588850751932489e-01 -8.5676788789452885e-03 0.0000000000000000e+00  9.9278857840400014e-01 9.0394320400977483e-04 0.0000000000000000e+00  9.9035637881922356e-01 8.2865842844375356e-03 0.0000000000000000e+00  9.8853308959256836e-01 1.3756812881826881e-02 0.0000000000000000e+00  9.8723716537764938e-01 1.7565503119977881e-02 0.0000000000000000e+00  9.8638017850149073e-01 1.9987588265527580e-02 0.0000000000000000e+00  9.8586651288237448e-01 2.1322269231698970e-02 0.0000000000000000e+00  9.8561010522307324e-01 2.1839884039262635e-02 0.0000000000000000e+00  9.8553214794958688e-01 2.1788333278932738e-02 0.0000000000000000e+00  9.8557284918671706e-01 2.1356028495263375e-02 0.0000000000000000e+00  9.8568390839538267e-01 2.0695009219316930e-02 0.0000000000000000e+00  9.8583492477343737e-01 1.9901109695067226e-02 0.0000000000000000e+00  9.8600297809663529e-01 1.9046285487494097e-02 0.0000000000000000e+00  9.8617707217078698e-01 1.8165145192364871e-02 0.0000000000000000e+00  9.8634823333714583e-01 1.7285591027886710e-02 0.0000000000000000e+00  9.8651434319664488e-01 1.6414221519499377e-02 0.0000000000000000e+00  9.8667202179971225e-01 1.5561242333696742e-02 0.0000000000000000e+00  9.8682208195453025e-01 1.4724013202854965e-02 0.0000000000000000e+00  9.8696289711591068e-01 1.3907154004343343e-02 0.0000000000000000e+00  9.8709592502315469e-01 1.3106003987665501e-02 0.0000000000000000e+00  9.8722003093878885e-01 1.2323566643928509e-02 0.0000000000000000e+00  9.8733667425118821e-01 1.1555196087141190e-02 0.0000000000000000e+00  9.8744489599887308e-01 1.0803262900064574e-02 0.0000000000000000e+00  9.8754602404313940e-01 1.0063564415407865e-02 0.0000000000000000e+00  9.8763920730661503e-01 9.3380361263012829e-03 0.0000000000000000e+00  9.8772562808901554e-01 8.6229737717727021e-03 0.0000000000000000e+00  9.8780452341112224e-01 7.9199203759274823e-03 0.0000000000000000e+00  9.8787693907791641e-01 7.2256554266174654e-03 0.0000000000000000e+00  9.8794218663953692e-01 6.5413484504136228e-03 0.0000000000000000e+00  9.8800118937495784e-01 5.8642360121744508e-03 0.0000000000000000e+00  9.8805331947896458e-01 5.1951294971236024e-03 0.0000000000000000e+00  9.8809939345779985e-01 4.5316941362999056e-03 0.0000000000000000e+00  9.8813882932630270e-01 3.8743963225051949e-03 0.0000000000000000e+00  9.8817235355982913e-01 3.2213027359427617e-03 0.0000000000000000e+00  9.8819941434772096e-01 2.5725448221904693e-03 0.0000000000000000e+00  9.8822066543660214e-01 1.9265664043600246e-03 0.0000000000000000e+00  9.8823556889089770e-01 1.2831699541837993e-03 0.0000000000000000e+00  9.8824472328596680e-01 6.4115627447228652e-04 0.0000000000000000e+00  9.8824758775304955e-01 3.8305510683836688e-16 0.0000000000000000e+00  9.8824472328596658e-01 -6.4115627447239006e-04 0.0000000000000000e+00  9.8823556889089759e-01 -1.2831699541830620e-03 0.0000000000000000e+00  9.8822066543660192e-01 -1.9265664043603338e-03 0.0000000000000000e+00  9.8819941434772085e-01 -2.5725448221902984e-03 0.0000000000000000e+00  9.8817235355982891e-01 -3.2213027359432947e-03 0.0000000000000000e+00  9.8813882932630259e-01 -3.8743963225043561e-03 0.0000000000000000e+00  9.8809939345779974e-01 -4.5316941363003869e-03 0.0000000000000000e+00  9.8805331947896435e-01 -5.1951294971224957e-03 0.0000000000000000e+00  9.8800118937495796e-01 -5.8642360121752210e-03 0.0000000000000000e+00  9.8794218663953692e-01 -6.5413484504126818e-03 0.0000000000000000e+00  9.8787693907791663e-01 -7.2256554266184698e-03 0.0000000000000000e+00  9.8780452341112224e-01 -7.9199203759256279e-03 0.0000000000000000e+00  9.8772562808901543e-01 -8.6229737717737343e-03 0.0000000000000000e+00  9.8763920730661503e-01 -9.3380361262996453e-03 0.0000000000000000e+00  9.8754602404313907e-01 -1.0063564415409615e-02 0.0000000000000000e+00  9.8744489599887320e-01 -1.0803262900063171e-02 0.0000000000000000e+00  9.8733667425118765e-01 -1.1555196087142259e-02 0.0000000000000000e+00  9.8722003093878885e-01 -1.2323566643927237e-02 0.0000000000000000e+00  9.8709592502315413e-01 -1.3106003987665775e-02 0.0000000000000000e+00  9.8696289711591056e-01 -1.3907154004342906e-02 0.0000000000000000e+00  9.8682208195452981e-01 -1.4724013202855669e-02 0.0000000000000000e+00  9.8667202179971225e-01 -1.5561242333696823e-02 0.0000000000000000e+00  9.8651434319664455e-01 -1.6414221519499696e-02 0.0000000000000000e+00  9.8634823333714583e-01 -1.7285591027886838e-02 0.0000000000000000e+00  9.8617707217078665e-01 -1.8165145192364219e-02 0.0000000000000000e+00  9.8600297809663529e-01 -1.9046285487494569e-02 0.0000000000000000e+00  9.8583492477343726e-01 -1.9901109695066560e-02 0.0000000000000000e+00  9.8568390839538267e-01 -2.0695009219318012e-02 0.0000000000000000e+00  9.8557284918671717e-01 -2.1356028495263201e-02 0.0000000000000000e+00  9.8553214794958699e-01 -2.1788333278934459e-02 0.0000000000000000e+00  9.8561010522307324e-01 -2.1839884039262701e-02 0.0000000000000000e+00  9.8586651288237426e-01 -2.1322269231700341e-02 0.0000000000000000e+00  9.8638017850149051e-01 -1.9987588265526764e-02 0.0000000000000000e+00  9.8723716537764905e-01 -1.7565503119979481e-02 0.0000000000000000e+00  9.8853308959256825e-01 -1.3756812881826525e-02 0.0000000000000000e+00  9.9035637881922345e-01 -8.2865842844395219e-03 0.0000000000000000e+00  9.9278857840400014e-01 -9.0394320400954357e-04 0.0000000000000000e+00  9.9588850751932501e-01 8.5676788789450613e-03 0.0000000000000000e+00  9.9969680914059034e-01 2.0244855165334377e-02 0.0000000000000000e+00  1.0042260564267349e+00 3.4153139000136973e-02 0.0000000000000000e+00  1.0094714031205796e+00 5.0261587958176278e-02 0.0000000000000000e+00  1.0154057470281872e+00 6.8467836050746606e-02 0.0000000000000000e+00  1.0219931038648269e+00 8.8641794332950677e-02 0.0000000000000000e+00  1.0291850112814580e+00 1.1061410228597579e-01 0.0000000000000000e+00  1.0369329147715804e+00 1.3421692179466480e-01 0.0000000000000000e+00  1.0451835042029733e+00 1.5926810018721210e-01 0.0000000000000000e+00  1.0538887115386102e+00 1.8560464841862015e-01 0.0000000000000000e+00  1.0629998310374025e+00 2.1306212124331544e-01 0.0000000000000000e+00  1.0724753443393720e+00 2.4150168326376342e-01 0.0000000000000000e+00  1.0822745617696390e+00 2.7078712638234664e-01 0.0000000000000000e+00  1.0923638724850764e+00 3.0080762553040741e-01 0.0000000000000000e+00  1.1027106107040037e+00 3.3145467782899907e-01 0.0000000000000000e+00  1.1132881635973149e+00 3.6264204918130855e-01 0.0000000000000000e+00  1.1240704828209429e+00 3.9428397649894042e-01 0.0000000000000000e+00  1.1350362590400040e+00 4.2631303583503161e-01 0.0000000000000000e+00  1.1461642609899554e+00 4.5866017442414803e-01 0.0000000000000000e+00  1.1574366414474577e+00 4.9127074380137259e-01 0.0000000000000000e+00  1.1688351348200061e+00 5.2408645333230630e-01 0.0000000000000000e+00  1.1803434809537934e+00 5.5705955730923162e-01 0.0000000000000000e+00  1.1919444101204864e+00 5.9013652092018387e-01 0.0000000000000000e+00  1.2036211099569392e+00 6.2327017411955032e-01 0.0000000000000000e+00  1.2153548218364738e+00 6.5640459538101714e-01 0.0000000000000000e+00  1.2271251750072438e+00 6.8948477832106980e-01 0.0000000000000000e+00  1.2389080420445528e+00 7.2244177585291780e-01 0.0000000000000000e+00  1.2506743325233882e+00 7.5519882266336269e-01 0.0000000000000000e+00  1.2623873790354456e+00 7.8765480146678624e-01 0.0000000000000000e+00  1.2739992311490378e+00 8.1968432590196894e-01 0.0000000000000000e+00  1.2854459825935891e+00 8.5111534231854347e-01 0.0000000000000000e+00  1.2966393105793672e+00 8.8171727840167957e-01 0.0000000000000000e+00  1.3074561890852523e+00 9.1116341860666905e-01 0.0000000000000000e+00  1.3177205196488599e+00 9.3899350561083728e-01 0.0000000000000000e+00  1.3271795341841206e+00 9.6454034068106043e-01 0.0000000000000000e+00  1.3354648567926997e+00 9.8683784786283468e-01 0.0000000000000000e+00  1.3420416116720792e+00 1.0044725708577982e+00 0.0000000000000000e+00  1.3461339122062494e+00 1.0153912462154824e+00 0.0000000000000000e+00  1.3466383550702048e+00 1.0166405492072805e+00 0.0000000000000000e+00  1.3420345945484435e+00 1.0040972016633196e+00 0.0000000000000000e+00  1.3303627106316662e+00 9.7230180412055733e-01 0.0000000000000000e+00  1.3093911814820343e+00 9.1475632643438209e-01 0.0000000000000000e+00  1.2772203349144740e+00 8.2533518471895584e-01 0.0000000000000000e+00  1.2335419966859742e+00 7.0169946304389519e-01 0.0000000000000000e+00  1.1813440988557773e+00 5.5061591245327557e-01 0.0000000000000000e+00  1.1276365037317035e+00 3.9149253545393153e-01 0.0000000000000000e+00  1.0810042127107011e+00 2.5048821092987622e-01 0.0000000000000000e+00  1.0468506845643826e+00 1.4568177066916363e-01 0.0000000000000000e+00  1.0252356364114787e+00 7.8732619240182544e-02 0.0000000000000000e+00  1.0129516115510271e+00 4.0482355120034341e-02 0.0000000000000000e+00  1.0064451725708805e+00 2.0164703119076831e-02 0.0000000000000000e+00  1.0031441283207234e+00 9.8415724115740923e-03 0.0000000000000000e+00  1.0015129666381180e+00 4.7369948502567552e-03 0.0000000000000000e+00  1.0007204627736033e+00 2.2558431289331315e-03 0.0000000000000000e+00  1.0003401155837000e+00 1.0651563707467287e-03 0.0000000000000000e+00  1.0001593114454805e+00 4.9873251096645350e-04 0.0000000000000000e+00  1.0000740645430957e+00 2.3205371960146026e-04 0.0000000000000000e+00  1.0000342245948275e+00 1.0695934386320429e-04 0.0000000000000000e+00  1.0000156855120668e+00 4.9115409510350577e-05 0.0000000000000000e+00  1.0000072214844375e+00 2.2126221437924459e-05 0.0000000000000000e+00  1.0000033333044234e+00 9.7678529025629200e-06 0.0000000000000000e+00  1.0000017680724356e+00 3.6246320534845932e-06 0.0000000000000000e+00  1.0000012705659374e+00 0.0000000000000000e+00 0.0000000000000000e+00  </DataArray> 
</PointData> 
</Piece>
</UnstructuredGrid>
</VTKFile>