<?xml version="1.0"?>
<VTKFile type="UnstructuredGrid"  version="0.1"  >
<UnstructuredGrid>
<Piece  NumberOfPoints="201" NumberOfCells="200">
<Points>
<DataArray  type="Float64"  NumberOfComponents="3"  format="ascii">-5 0 0  -4.95 0 0  -4.9 0 0  -4.85 0 0  -4.8 0 0  -4.75 0 0  -4.7 0 0  -4.65 0 0  -4.6 0 0  -4.55 0 0  -4.5 0 0  -4.45 0 0  -4.4 0 0  -4.35 0 0  -4.3 0 0  -4.25 0 0  -4.2 0 0  -4.15 0 0  -4.1 0 0  -4.05 0 0  -4 0 0  -3.95 0 0  -3.9 0 0  -3.85 0 0  -3.8 0 0  -3.75 0 0  -3.7 0 0  -3.65 0 0  -3.6 0 0  -3.55 0 0  -3.5 0 0  -3.45 0 0  -3.4 0 0  -3.35 0 0  -3.3 0 0  -3.25 0 0  -3.2 0 0  -3.15 0 0  -3.1 0 0  -3.05 0 0  -3 0 0  -2.95 0 0  -2.9 0 0  -2.85 0 0  -2.8 0 0  -2.75 0 0  -2.7 0 0  -2.65 0 0  -2.6 0 0  -2.55 0 0  -2.5 0 0  -2.45 0 0  -2.4 0 0  -2.35 0 0  -2.3 0 0  -2.25 0 0  -2.2 0 0  -2.15 0 0  -2.1 0 0  -2.05 0 0  -2 0 0  -1.95 0 0  -1.9 0 0  -1.85 0 0  -1.8 0 0  -1.75 0 0  -1.7 0 0  -1.65 0 0  -1.6 0 0  -1.55 0 0  -1.5 0 0  -1.45 0 0  -1.4 0 0  -1.35 0 0  -1.3 0 0  -1.25 0 0  -1.2 0 0  -1.15 0 0  -1.1 0 0  -1.05 0 0  -1 0 0  -0.9500000000000002 0 0  -0.9000000000000004 0 0  -0.8499999999999996 0 0  -0.7999999999999998 0 0  -0.75 0 0  -0.7000000000000002 0 0  -0.6500000000000004 0 0  -0.5999999999999996 0 0  -0.5499999999999998 0 0  -0.5 0 0  -0.4500000000000002 0 0  -0.4000000000000004 0 0  -0.3499999999999996 0 0  -0.2999999999999998 0 0  -0.25 0 0  -0.2000000000000002 0 0  -0.1500000000000004 0 0  -0.09999999999999964 0 0  -0.04999999999999982 0 0  0 0 0  0.04999999999999982 0 0  0.09999999999999964 0 0  0.1500000000000004 0 0  0.2000000000000002 0 0  0.25 0 0  0.2999999999999998 0 0  0.3499999999999996 0 0  0.4000000000000004 0 0  0.4500000000000002 0 0  0.5 0 0  0.5499999999999998 0 0  0.5999999999999996 0 0  0.6500000000000004 0 0  0.7000000000000002 0 0  0.75 0 0  0.7999999999999998 0 0  0.8499999999999996 0 0  0.9000000000000004 0 0  0.9500000000000002 0 0  1 0 0  1.05 0 0  1.1 0 0  1.15 0 0  1.2 0 0  1.25 0 0  1.3 0 0  1.35 0 0  1.4 0 0  1.45 0 0  1.5 0 0  1.55 0 0  1.6 0 0  1.65 0 0  1.7 0 0  1.75 0 0  1.8 0 0  1.85 0 0  1.9 0 0  1.95 0 0  2 0 0  2.05 0 0  2.1 0 0  2.15 0 0  2.2 0 0  2.25 0 0  2.3 0 0  2.35 0 0  2.4 0 0  2.45 0 0  2.5 0 0  2.55 0 0  2.6 0 0  2.65 0 0  2.7 0 0  2.75 0 0  2.8 0 0  2.85 0 0  2.9 0 0  2.95 0 0  3 0 0  3.050000000000001 0 0  3.1 0 0  3.15 0 0  3.199999999999999 0 0  3.25 0 0  3.300000000000001 0 0  3.35 0 0  3.4 0 0  3.449999999999999 0 0  3.5 0 0  3.550000000000001 0 0  3.6 0 0  3.65 0 0  3.699999999999999 0 0  3.75 0 0  3.800000000000001 0 0  3.85 0 0  3.9 0 0  3.949999999999999 0 0  4 0 0  4.050000000000001 0 0  4.1 0 0  4.15 0 0  4.199999999999999 0 0  4.25 0 0  4.300000000000001 0 0  4.35 0 0  4.4 0 0  4.449999999999999 0 0  4.5 0 0  4.550000000000001 0 0  4.6 0 0  4.65 0 0  4.699999999999999 0 0  4.75 0 0  4.800000000000001 0 0  4.85 0 0  4.9 0 0  4.949999999999999 0 0  5 0 0  </DataArray>
</Points>
<Cells>
<DataArray  type="UInt32"  Name="connectivity"  format="ascii">0 1  1 2  2 3  3 4  4 5  5 6  6 7  7 8  8 9  9 10  10 11  11 12  12 13  13 14  14 15  15 16  16 17  17 18  18 19  19 20  20 21  21 22  22 23  23 24  24 25  25 26  26 27  27 28  28 29  29 30  30 31  31 32  32 33  33 34  34 35  35 36  36 37  37 38  38 39  39 40  40 41  41 42  42 43  43 44  44 45  45 46  46 47  47 48  48 49  49 50  50 51  51 52  52 53  53 54  54 55  55 56  56 57  57 58  58 59  59 60  60 61  61 62  62 63  63 64  64 65  65 66  66 67  67 68  68 69  69 70  70 71  71 72  72 73  73 74  74 75  75 76  76 77  77 78  78 79  79 80  80 81  81 82  82 83  83 84  84 85  85 86  86 87  87 88  88 89  89 90  90 91  91 92  92 93  93 94  94 95  95 96  96 97  97 98  98 99  99 100  100 101  101 102  102 103  103 104  104 105  105 106  106 107  107 108  108 109  109 110  110 111  111 112  112 113  113 114  114 115  115 116  116 117  117 118  118 119  119 120  120 121  121 122  122 123  123 124  124 125  125 126  126 127  127 128  128 129  129 130  130 131  131 132  132 133  133 134  134 135  135 136  136 137  137 138  138 139  139 140  140 141  141 142  142 143  143 144  144 145  145 146  146 147  147 148  148 149  149 150  150 151  151 152  152 153  153 154  154 155  155 156  156 157  157 158  158 159  159 160  160 161  161 162  162 163  163 164  164 165  165 166  166 167  167 168  168 169  169 170  170 171  171 172  172 173  173 174  174 175  175 176  176 177  177 178  178 179  179 180  180 181  181 182  182 183  183 184  184 185  185 186  186 187  187 188  188 189  189 190  190 191  191 192  192 193  193 194  194 195  195 196  196 197  197 198  198 199  199 200  </DataArray>
<DataArray  type="UInt32"  Name="offsets"  format="ascii">2 4 6 8 10 12 14 16 18 20 22 24 26 28 30 32 34 36 38 40 42 44 46 48 50 52 54 56 58 60 62 64 66 68 70 72 74 76 78 80 82 84 86 88 90 92 94 96 98 100 102 104 106 108 110 112 114 116 118 120 122 124 126 128 130 132 134 136 138 140 142 144 146 148 150 152 154 156 158 160 162 164 166 168 170 172 174 176 178 180 182 184 186 188 190 192 194 196 198 200 202 204 206 208 210 212 214 216 218 220 222 224 226 228 230 232 234 236 238 240 242 244 246 248 250 252 254 256 258 260 262 264 266 268 270 272 274 276 278 280 282 284 286 288 290 292 294 296 298 300 302 304 306 308 310 312 314 316 318 320 322 324 326 328 330 332 334 336 338 340 342 344 346 348 350 352 354 356 358 360 362 364 366 368 370 372 374 376 378 380 382 384 386 388 390 392 394 396 398 400 </DataArray>
<DataArray  type="UInt8"  Name="types"  format="ascii">3 3 3 3 3 3 3 3 3 3 3 3 3 3 3 3 3 3 3 3 3 3 3 3 3 3 3 3 3 3 3 3 3 3 3 3 3 3 3 3 3 3 3 3 3 3 3 3 3 3 3 3 3 3 3 3 3 3 3 3 3 3 3 3 3 3 3 3 3 3 3 3 3 3 3 3 3 3 3 3 3 3 3 3 3 3 3 3 3 3 3 3 3 3 3 3 3 3 3 3 3 3 3 3 3 3 3 3 3 3 3 3 3 3 3 3 3 3 3 3 3 3 3 3 3 3 3 3 3 3 3 3 3 3 3 3 3 3 3 3 3 3 3 3 3 3 3 3 3 3 3 3 3 3 3 3 3 3 3 3 3 3 3 3 3 3 3 3 3 3 3 3 3 3 3 3 3 3 3 3 3 3 3 3 3 3 3 3 3 3 3 3 3 3 3 3 3 3 3 3 </DataArray>
</Cells>
<PointData  Vectors="(h, u)"> 
<DataArray  type="Float64"  Name="(h, u)"  NumberOfComponents="3" format="ascii">1.2479772009141092e+00 0.0000000000000000e+00 0.0000000000000000e+00  1.2480089754303612e+00 3.9540663263316803e-02 0.0000000000000000e+00  1.2481019569525302e+00 7.9049895643560478e-02 0.0000000000000000e+00  1.2482604310151675e+00 1.1849589108297245e-01 0.0000000000000000e+00  1.2484840329258640e+00 1.5784540089905527e-01 0.0000000000000000e+00  1.2487790110864121e+00 1.9706399473068129e-01 0.0000000000000000e+00  1.2491470542725374e+00 2.3611424668086489e-01 0.0000000000000000e+00  1.2495964134957669e+00 2.7495656597702961e-01 0.0000000000000000e+00  1.2501308878499873e+00 3.1354657549272047e-01 0.0000000000000000e+00  1.2507606925680455e+00 3.5183642320275677e-01 0.0000000000000000e+00  1.2514916224891368e+00 3.8977126835184195e-01 0.0000000000000000e+00  1.2523355135408984e+00 4.2729093601710344e-01 0.0000000000000000e+00  1.2532995338021913e+00 4.6432536227808741e-01 0.0000000000000000e+00  1.2543959985520314e+00 5.0079633689247716e-01 0.0000000000000000e+00  1.2556315988193461e+00 5.3661158205092341e-01 0.0000000000000000e+00  1.2570161431034934e+00 5.7166601742461520e-01 0.0000000000000000e+00  1.2585512432613444e+00 6.0583364574490206e-01 0.0000000000000000e+00  1.2602371501346608e+00 6.3896691554713869e-01 0.0000000000000000e+00  1.2620597970763334e+00 6.7088418202654498e-01 0.0000000000000000e+00  1.2639940040649777e+00 7.0136342334036506e-01 0.0000000000000000e+00  1.2659864454426635e+00 7.3011937826606621e-01 0.0000000000000000e+00  1.2679516116881731e+00 7.5678223604386996e-01 0.0000000000000000e+00  1.2697456708736226e+00 7.8085046270849812e-01 0.0000000000000000e+00  1.2711484108579194e+00 8.0163446343994704e-01 0.0000000000000000e+00  1.2718198826276044e+00 8.1815956894004338e-01 0.0000000000000000e+00  1.2712608129057164e+00 8.2904753608982618e-01 0.0000000000000000e+00  1.2687508424288552e+00 8.3235518178232704e-01 0.0000000000000000e+00  1.2633059747711983e+00 8.2542536629146313e-01 0.0000000000000000e+00  1.2536630597901870e+00 8.0481007020530426e-01 0.0000000000000000e+00  1.2383878791969249e+00 7.6647931927212021e-01 0.0000000000000000e+00  1.2161913114773419e+00 7.0661162214488926e-01 0.0000000000000000e+00  1.1865771114608528e+00 6.2335525508314693e-01 0.0000000000000000e+00  1.1507085391457605e+00 5.1947178428612728e-01 0.0000000000000000e+00  1.1119725250687837e+00 4.0446850337909829e-01 0.0000000000000000e+00  1.0752901014984535e+00 2.9320506892401677e-01 0.0000000000000000e+00  1.0450264382775938e+00 1.9972015380803823e-01 0.0000000000000000e+00  1.0230732628080925e+00 1.3081446608316827e-01 0.0000000000000000e+00  1.0087666682426000e+00 8.5160291532369120e-02 0.0000000000000000e+00  1.0001718356212004e+00 5.7130163414434609e-02 0.0000000000000000e+00  9.9531172064711770e-01 4.0715629813843482e-02 0.0000000000000000e+00  9.9269344987629549e-01 3.1316386660196725e-02 0.0000000000000000e+00  9.9135255382798049e-01 2.5934166977704263e-02 0.0000000000000000e+00  9.9071309176728184e-01 2.2779325765711799e-02 0.0000000000000000e+00  9.9045068315750984e-01 2.0836731599971160e-02 0.0000000000000000e+00  9.9038534483914775e-01 1.9548080433243738e-02 0.0000000000000000e+00  9.9042175816606492e-01 1.8611891431891046e-02 0.0000000000000000e+00  9.9050785102788474e-01 1.7867917817981506e-02 0.0000000000000000e+00  9.9061770931864890e-01 1.7231039560344039e-02 0.0000000000000000e+00  9.9073664768507097e-01 1.6657018513997590e-02 0.0000000000000000e+00  9.9085832158645337e-01 1.6121978439124645e-02 0.0000000000000000e+00  9.9097850742742699e-01 1.5613943404500596e-02 0.0000000000000000e+00  9.9109609340230753e-01 1.5125752813503552e-02 0.0000000000000000e+00  9.9120974665827277e-01 1.4654184816394201e-02 0.0000000000000000e+00  9.9131964354368218e-01 1.4196551536514944e-02 0.0000000000000000e+00  9.9142528073088310e-01 1.3751986628726490e-02 0.0000000000000000e+00  9.9152707578395571e-01 1.3319010332637304e-02 0.0000000000000000e+00  9.9162480258775287e-01 1.2897395996568809e-02 0.0000000000000000e+00  9.9171885543938476e-01 1.2486028154795568e-02 0.0000000000000000e+00  9.9180913515630642e-01 1.2084854678354991e-02 0.0000000000000000e+00  9.9189595418868470e-01 1.1692917628823386e-02 0.0000000000000000e+00  9.9197929519389749e-01 1.1310203179685636e-02 0.0000000000000000e+00  9.9205938268950922e-01 1.0935867616847467e-02 0.0000000000000000e+00  9.9213626375287123e-01 1.0569885778552515e-02 0.0000000000000000e+00  9.9221008113609355e-01 1.0211525059686803e-02 0.0000000000000000e+00  9.9228093694490749e-01 9.8607232364561169e-03 0.0000000000000000e+00  9.9234890002760967e-01 9.5168643768555067e-03 0.0000000000000000e+00  9.9241412139623608e-01 9.1798314169947541e-03 0.0000000000000000e+00  9.9247660274211191e-01 8.8491313732296708e-03 0.0000000000000000e+00  9.9253654003091574e-01 8.5245785925479340e-03 0.0000000000000000e+00  9.9259387272797583e-01 8.2058078692058452e-03 0.0000000000000000e+00  9.9264883963761252e-01 7.8925545039120817e-03 0.0000000000000000e+00  9.9270132109135978e-01 7.5845835769709491e-03 0.0000000000000000e+00  9.9275159816929681e-01 7.2815443731275688e-03 0.0000000000000000e+00  9.9279949359915587e-01 6.9833317616863058e-03 0.0000000000000000e+00  9.9284533133785480e-01 6.6895060275401616e-03 0.0000000000000000e+00  9.9288887691785965e-01 6.4000876650986971e-03 0.0000000000000000e+00  9.9293049845919257e-01 6.1145494952610097e-03 0.0000000000000000e+00  9.9296990410403441e-01 5.8330292513157052e-03 0.0000000000000000e+00  9.9300750759587264e-01 5.5549187274062471e-03 0.0000000000000000e+00  9.9304295940736720e-01 5.2804599753958166e-03 0.0000000000000000e+00  9.9307672006112468e-01 5.0089751853854957e-03 0.0000000000000000e+00  9.9310838245474220e-01 4.7407933175123993e-03 0.0000000000000000e+00  9.9313845434657788e-01 4.4751830657807920e-03 0.0000000000000000e+00  9.9316647188084894e-01 4.2125388487475358e-03 0.0000000000000000e+00  9.9319298953045443e-01 3.9520959576220521e-03 0.0000000000000000e+00  9.9321748846466507e-01 3.6942896159823076e-03 0.0000000000000000e+00  9.9324056821682816e-01 3.4383447447441443e-03 0.0000000000000000e+00  9.9326165782387110e-01 3.1847106551590437e-03 0.0000000000000000e+00  9.9328139905073454e-01 2.9326265811533414e-03 0.0000000000000000e+00  9.9329917271178170e-01 2.6825284633026363e-03 0.0000000000000000e+00  9.9331565884848283e-01 2.4336947807210092e-03 0.0000000000000000e+00  9.9333019495425479e-01 2.1865212789447730e-03 0.0000000000000000e+00  9.9334349437735492e-01 1.9403494747265294e-03 0.0000000000000000e+00  9.9335485705753401e-01 1.6955100369167816e-03 0.0000000000000000e+00  9.9336502381386538e-01 1.4514289020828147e-03 0.0000000000000000e+00  9.9337326351220745e-01 1.2083498765790147e-03 0.0000000000000000e+00  9.9338033790485847e-01 9.6580120769957799e-04 0.0000000000000000e+00  9.9338549181336178e-01 7.2392209238266575e-04 0.0000000000000000e+00  9.9338950085093514e-01 4.8235663411637993e-04 0.0000000000000000e+00  9.9339159321248227e-01 2.4112642267526890e-04 0.0000000000000000e+00  9.9339255092708145e-01 -6.7240341679529312e-17 0.0000000000000000e+00  9.9339159321248216e-01 -2.4112642267489891e-04 0.0000000000000000e+00  9.9338950085093503e-01 -4.8235663411640682e-04 0.0000000000000000e+00  9.9338549181336178e-01 -7.2392209238173410e-04 0.0000000000000000e+00  9.9338033790485836e-01 -9.6580120769940874e-04 0.0000000000000000e+00  9.9337326351220723e-01 -1.2083498765775140e-03 0.0000000000000000e+00  9.9336502381386504e-01 -1.4514289020822156e-03 0.0000000000000000e+00  9.9335485705753390e-01 -1.6955100369150000e-03 0.0000000000000000e+00  9.9334349437735436e-01 -1.9403494747257835e-03 0.0000000000000000e+00  9.9333019495425434e-01 -2.1865212789429311e-03 0.0000000000000000e+00  9.9331565884848227e-01 -2.4336947807207000e-03 0.0000000000000000e+00  9.9329917271178136e-01 -2.6825284633016488e-03 0.0000000000000000e+00  9.9328139905073398e-01 -2.9326265811529498e-03 0.0000000000000000e+00  9.9326165782387066e-01 -3.1847106551582171e-03 0.0000000000000000e+00  9.9324056821682760e-01 -3.4383447447438997e-03 0.0000000000000000e+00  9.9321748846466473e-01 -3.6942896159814415e-03 0.0000000000000000e+00  9.9319298953045398e-01 -3.9520959576220122e-03 0.0000000000000000e+00  9.9316647188084861e-01 -4.2125388487463710e-03 0.0000000000000000e+00  9.9313845434657766e-01 -4.4751830657809837e-03 0.0000000000000000e+00  9.9310838245474209e-01 -4.7407933175117722e-03 0.0000000000000000e+00  9.9307672006112446e-01 -5.0089751853854402e-03 0.0000000000000000e+00  9.9304295940736709e-01 -5.2804599753949067e-03 0.0000000000000000e+00  9.9300750759587231e-01 -5.5549187274056668e-03 0.0000000000000000e+00  9.9296990410403430e-01 -5.8330292513153140e-03 0.0000000000000000e+00  9.9293049845919212e-01 -6.1145494952607356e-03 0.0000000000000000e+00  9.9288887691785965e-01 -6.4000876650982998e-03 0.0000000000000000e+00  9.9284533133785446e-01 -6.6895060275395960e-03 0.0000000000000000e+00  9.9279949359915598e-01 -6.9833317616860595e-03 0.0000000000000000e+00  9.9275159816929648e-01 -7.2815443731267674e-03 0.0000000000000000e+00  9.9270132109136011e-01 -7.5845835769712778e-03 0.0000000000000000e+00  9.9264883963761241e-01 -7.8925545039118510e-03 0.0000000000000000e+00  9.9259387272797628e-01 -8.2058078692061696e-03 0.0000000000000000e+00  9.9253654003091552e-01 -8.5245785925478438e-03 0.0000000000000000e+00  9.9247660274211225e-01 -8.8491313732298495e-03 0.0000000000000000e+00  9.9241412139623586e-01 -9.1798314169957308e-03 0.0000000000000000e+00  9.9234890002761034e-01 -9.5168643768566603e-03 0.0000000000000000e+00  9.9228093694490738e-01 -9.8607232364574231e-03 0.0000000000000000e+00  9.9221008113609421e-01 -1.0211525059687464e-02 0.0000000000000000e+00  9.9213626375287089e-01 -1.0569885778552853e-02 0.0000000000000000e+00  9.9205938268950988e-01 -1.0935867616847856e-02 0.0000000000000000e+00  9.9197929519389716e-01 -1.1310203179685835e-02 0.0000000000000000e+00  9.9189595418868515e-01 -1.1692917628823572e-02 0.0000000000000000e+00  9.9180913515630598e-01 -1.2084854678355307e-02 0.0000000000000000e+00  9.9171885543938498e-01 -1.2486028154795241e-02 0.0000000000000000e+00  9.9162480258775254e-01 -1.2897395996569654e-02 0.0000000000000000e+00  9.9152707578395594e-01 -1.3319010332636645e-02 0.0000000000000000e+00  9.9142528073088265e-01 -1.3751986628726799e-02 0.0000000000000000e+00  9.9131964354368218e-01 -1.4196551536514161e-02 0.0000000000000000e+00  9.9120974665827244e-01 -1.4654184816394555e-02 0.0000000000000000e+00  9.9109609340230753e-01 -1.5125752813502556e-02 0.0000000000000000e+00  9.9097850742742688e-01 -1.5613943404501257e-02 0.0000000000000000e+00  9.9085832158645337e-01 -1.6121978439123455e-02 0.0000000000000000e+00  9.9073664768507097e-01 -1.6657018513998798e-02 0.0000000000000000e+00  9.9061770931864923e-01 -1.7231039560342869e-02 0.0000000000000000e+00  9.9050785102788452e-01 -1.7867917817983071e-02 0.0000000000000000e+00  9.9042175816606537e-01 -1.8611891431890175e-02 0.0000000000000000e+00  9.9038534483914742e-01 -1.9548080433245289e-02 0.0000000000000000e+00  9.9045068315751028e-01 -2.0836731599970466e-02 0.0000000000000000e+00  9.9071309176728162e-01 -2.2779325765713766e-02 0.0000000000000000e+00  9.9135255382798082e-01 -2.5934166977703357e-02 0.0000000000000000e+00  9.9269344987629504e-01 -3.1316386660198682e-02 0.0000000000000000e+00  9.9531172064711815e-01 -4.0715629813842587e-02 0.0000000000000000e+00  1.0001718356212002e+00 -5.7130163414436538e-02 0.0000000000000000e+00  1.0087666682426006e+00 -8.5160291532367538e-02 0.0000000000000000e+00  1.0230732628080921e+00 -1.3081446608316874e-01 0.0000000000000000e+00  1.0450264382775938e+00 -1.9972015380803726e-01 0.0000000000000000e+00  1.0752901014984537e+00 -2.9320506892402126e-01 0.0000000000000000e+00  1.1119725250687833e+00 -4.0446850337909779e-01 0.0000000000000000e+00  1.1507085391457608e+00 -5.1947178428612950e-01 0.0000000000000000e+00  1.1865771114608523e+00 -6.2335525508314438e-01 0.0000000000000000e+00  1.2161913114773419e+00 -7.0661162214488937e-01 0.0000000000000000e+00  1.2383878791969256e+00 -7.6647931927211888e-01 0.0000000000000000e+00  1.2536630597901863e+00 -8.0481007020530426e-01 0.0000000000000000e+00  1.2633059747711985e+00 -8.2542536629146224e-01 0.0000000000000000e+00  1.2687508424288545e+00 -8.3235518178232692e-01 0.0000000000000000e+00  1.2712608129057166e+00 -8.2904753608982662e-01 0.0000000000000000e+00  1.2718198826276041e+00 -8.1815956894004249e-01 0.0000000000000000e+00  1.2711484108579194e+00 -8.0163446343994715e-01 0.0000000000000000e+00  1.2697456708736226e+00 -7.8085046270849712e-01 0.0000000000000000e+00  1.2679516116881737e+00 -7.5678223604386929e-01 0.0000000000000000e+00  1.2659864454426635e+00 -7.3011937826606543e-01 0.0000000000000000e+00  1.2639940040649782e+00 -7.0136342334036428e-01 0.0000000000000000e+00  1.2620597970763334e+00 -6.7088418202654554e-01 0.0000000000000000e+00  1.2602371501346614e+00 -6.3896691554713869e-01 0.0000000000000000e+00  1.2585512432613446e+00 -6.0583364574490306e-01 0.0000000000000000e+00  1.2570161431034943e+00 -5.7166601742461420e-01 0.0000000000000000e+00  1.2556315988193463e+00 -5.3661158205092430e-01 0.0000000000000000e+00  1.2543959985520321e+00 -5.0079633689247627e-01 0.0000000000000000e+00  1.2532995338021917e+00 -4.6432536227808940e-01 0.0000000000000000e+00  1.2523355135408991e+00 -4.2729093601710383e-01 0.0000000000000000e+00  1.2514916224891373e+00 -3.8977126835184395e-01 0.0000000000000000e+00  1.2507606925680463e+00 -3.5183642320275599e-01 0.0000000000000000e+00  1.2501308878499882e+00 -3.1354657549272275e-01 0.0000000000000000e+00  1.2495964134957678e+00 -2.7495656597702917e-01 0.0000000000000000e+00  1.2491470542725380e+00 -2.3611424668086686e-01 0.0000000000000000e+00  1.2487790110864128e+00 -1.9706399473068045e-01 0.0000000000000000e+00  1.2484840329258642e+00 -1.5784540089905580e-01 0.0000000000000000e+00  1.2482604310151681e+00 -1.1849589108297232e-01 0.0000000000000000e+00  1.2481019569525307e+00 -7.9049895643560561e-02 0.0000000000000000e+00  1.2480089754303614e+00 -3.9540663263317483e-02 0.0000000000000000e+00  1.2479772009141097e+00 0.0000000000000000e+00 0.0000000000000000e+00  </DataArray> 
</PointData> 
</Piece>
</UnstructuredGrid>
</VTKFile>