<?xml version="1.0"?>
<VTKFile type="UnstructuredGrid"  version="0.1"  >
<UnstructuredGrid>
<Piece  NumberOfPoints="201" NumberOfCells="200">
<Points>
<DataArray  type="Float64"  NumberOfComponents="3"  format="ascii">-5 0 0  -4.95 0 0  -4.9 0 0  -4.85 0 0  -4.8 0 0  -4.75 0 0  -4.7 0 0  -4.65 0 0  -4.6 0 0  -4.55 0 0  -4.5 0 0  -4.45 0 0  -4.4 0 0  -4.35 0 0  -4.3 0 0  -4.25 0 0  -4.2 0 0  -4.15 0 0  -4.1 0 0  -4.05 0 0  -4 0 0  -3.95 0 0  -3.9 0 0  -3.85 0 0  -3.8 0 0  -3.75 0 0  -3.7 0 0  -3.65 0 0  -3.6 0 0  -3.55 0 0  -3.5 0 0  -3.45 0 0  -3.4 0 0  -3.35 0 0  -3.3 0 0  -3.25 0 0  -3.2 0 0  -3.15 0 0  -3.1 0 0  -3.05 0 0  -3 0 0  -2.95 0 0  -2.9 0 0  -2.85 0 0  -2.8 0 0  -2.75 0 0  -2.7 0 0  -2.65 0 0  -2.6 0 0  -2.55 0 0  -2.5 0 0  -2.45 0 0  -2.4 0 0  -2.35 0 0  -2.3 0 0  -2.25 0 0  -2.2 0 0  -2.15 0 0  -2.1 0 0  -2.05 0 0  -2 0 0  -1.95 0 0  -1.9 0 0  -1.85 0 0  -1.8 0 0  -1.75 0 0  -1.7 0 0  -1.65 0 0  -1.6 0 0  -1.55 0 0  -1.5 0 0  -1.45 0 0  -1.4 0 0  -1.35 0 0  -1.3 0 0  -1.25 0 0  -1.2 0 0  -1.15 0 0  -1.1 0 0  -1.05 0 0  -1 0 0  -0.9500000000000002 0 0  -0.9000000000000004 0 0  -0.8499999999999996 0 0  -0.7999999999999998 0 0  -0.75 0 0  -0.7000000000000002 0 0  -0.6500000000000004 0 0  -0.5999999999999996 0 0  -0.5499999999999998 0 0  -0.5 0 0  -0.4500000000000002 0 0  -0.4000000000000004 0 0  -0.3499999999999996 0 0  -0.2999999999999998 0 0  -0.25 0 0  -0.2000000000000002 0 0  -0.1500000000000004 0 0  -0.09999999999999964 0 0  -0.04999999999999982 0 0  0 0 0  0.04999999999999982 0 0  0.09999999999999964 0 0  0.1500000000000004 0 0  0.2000000000000002 0 0  0.25 0 0  0.2999999999999998 0 0  0.3499999999999996 0 0  0.4000000000000004 0 0  0.4500000000000002 0 0  0.5 0 0  0.5499999999999998 0 0  0.5999999999999996 0 0  0.6500000000000004 0 0  0.7000000000000002 0 0  0.75 0 0  0.7999999999999998 0 0  0.8499999999999996 0 0  0.9000000000000004 0 0  0.9500000000000002 0 0  1 0 0  1.05 0 0  1.1 0 0  1.15 0 0  1.2 0 0  1.25 0 0  1.3 0 0  1.35 0 0  1.4 0 0  1.45 0 0  1.5 0 0  1.55 0 0  1.6 0 0  1.65 0 0  1.7 0 0  1.75 0 0  1.8 0 0  1.85 0 0  1.9 0 0  1.95 0 0  2 0 0  2.05 0 0  2.1 0 0  2.15 0 0  2.2 0 0  2.25 0 0  2.3 0 0  2.35 0 0  2.4 0 0  2.45 0 0  2.5 0 0  2.55 0 0  2.6 0 0  2.65 0 0  2.7 0 0  2.75 0 0  2.8 0 0  2.85 0 0  2.9 0 0  2.95 0 0  3 0 0  3.050000000000001 0 0  3.1 0 0  3.15 0 0  3.199999999999999 0 0  3.25 0 0  3.300000000000001 0 0  3.35 0 0  3.4 0 0  3.449999999999999 0 0  3.5 0 0  3.550000000000001 0 0  3.6 0 0  3.65 0 0  3.699999999999999 0 0  3.75 0 0  3.800000000000001 0 0  3.85 0 0  3.9 0 0  3.949999999999999 0 0  4 0 0  4.050000000000001 0 0  4.1 0 0  4.15 0 0  4.199999999999999 0 0  4.25 0 0  4.300000000000001 0 0  4.35 0 0  4.4 0 0  4.449999999999999 0 0  4.5 0 0  4.550000000000001 0 0  4.6 0 0  4.65 0 0  4.699999999999999 0 0  4.75 0 0  4.800000000000001 0 0  4.85 0 0  4.9 0 0  4.949999999999999 0 0  5 0 0  </DataArray>
</Points>
<Cells>
<DataArray  type="UInt32"  Name="connectivity"  format="ascii">0 1  1 2  2 3  3 4  4 5  5 6  6 7  7 8  8 9  9 10  10 11  11 12  12 13  13 14  14 15  15 16  16 17  17 18  18 19  19 20  20 21  21 22  22 23  23 24  24 25  25 26  26 27  27 28  28 29  29 30  30 31  31 32  32 33  33 34  34 35  35 36  36 37  37 38  38 39  39 40  40 41  41 42  42 43  43 44  44 45  45 46  46 47  47 48  48 49  49 50  50 51  51 52  52 53  53 54  54 55  55 56  56 57  57 58  58 59  59 60  60 61  61 62  62 63  63 64  64 65  65 66  66 67  67 68  68 69  69 70  70 71  71 72  72 73  73 74  74 75  75 76  76 77  77 78  78 79  79 80  80 81  81 82  82 83  83 84  84 85  85 86  86 87  87 88  88 89  89 90  90 91  91 92  92 93  93 94  94 95  95 96  96 97  97 98  98 99  99 100  100 101  101 102  102 103  103 104  104 105  105 106  106 107  107 108  108 109  109 110  110 111  111 112  112 113  113 114  114 115  115 116  116 117  117 118  118 119  119 120  120 121  121 122  122 123  123 124  124 125  125 126  126 127  127 128  128 129  129 130  130 131  131 132  132 133  133 134  134 135  135 136  136 137  137 138  138 139  139 140  140 141  141 142  142 143  143 144  144 145  145 146  146 147  147 148  148 149  149 150  150 151  151 152  152 153  153 154  154 155  155 156  156 157  157 158  158 159  159 160  160 161  161 162  162 163  163 164  164 165  165 166  166 167  167 168  168 169  169 170  170 171  171 172  172 173  173 174  174 175  175 176  176 177  177 178  178 179  179 180  180 181  181 182  182 183  183 184  184 185  185 186  186 187  187 188  188 189  189 190  190 191  191 192  192 193  193 194  194 195  195 196  196 197  197 198  198 199  199 200  </DataArray>
<DataArray  type="UInt32"  Name="offsets"  format="ascii">2 4 6 8 10 12 14 16 18 20 22 24 26 28 30 32 34 36 38 40 42 44 46 48 50 52 54 56 58 60 62 64 66 68 70 72 74 76 78 80 82 84 86 88 90 92 94 96 98 100 102 104 106 108 110 112 114 116 118 120 122 124 126 128 130 132 134 136 138 140 142 144 146 148 150 152 154 156 158 160 162 164 166 168 170 172 174 176 178 180 182 184 186 188 190 192 194 196 198 200 202 204 206 208 210 212 214 216 218 220 222 224 226 228 230 232 234 236 238 240 242 244 246 248 250 252 254 256 258 260 262 264 266 268 270 272 274 276 278 280 282 284 286 288 290 292 294 296 298 300 302 304 306 308 310 312 314 316 318 320 322 324 326 328 330 332 334 336 338 340 342 344 346 348 350 352 354 356 358 360 362 364 366 368 370 372 374 376 378 380 382 384 386 388 390 392 394 396 398 400 </DataArray>
<DataArray  type="UInt8"  Name="types"  format="ascii">3 3 3 3 3 3 3 3 3 3 3 3 3 3 3 3 3 3 3 3 3 3 3 3 3 3 3 3 3 3 3 3 3 3 3 3 3 3 3 3 3 3 3 3 3 3 3 3 3 3 3 3 3 3 3 3 3 3 3 3 3 3 3 3 3 3 3 3 3 3 3 3 3 3 3 3 3 3 3 3 3 3 3 3 3 3 3 3 3 3 3 3 3 3 3 3 3 3 3 3 3 3 3 3 3 3 3 3 3 3 3 3 3 3 3 3 3 3 3 3 3 3 3 3 3 3 3 3 3 3 3 3 3 3 3 3 3 3 3 3 3 3 3 3 3 3 3 3 3 3 3 3 3 3 3 3 3 3 3 3 3 3 3 3 3 3 3 3 3 3 3 3 3 3 3 3 3 3 3 3 3 3 3 3 3 3 3 3 3 3 3 3 3 3 3 3 3 3 3 3 </DataArray>
</Cells>
<PointData  Vectors="(h, u)"> 
<DataArray  type="Float64"  Name="(h, u)"  NumberOfComponents="3" format="ascii">1.2330045303651347e+00 0.0000000000000000e+00 0.0000000000000000e+00  1.2330055893594380e+00 1.4860777136330133e-02 0.0000000000000000e+00  1.2330082906412352e+00 2.9719306708491520e-02 0.0000000000000000e+00  1.2330129844296247e+00 4.4573402670183629e-02 0.0000000000000000e+00  1.2330190608640694e+00 5.9420507666252835e-02 0.0000000000000000e+00  1.2330267119509599e+00 7.4258232427904261e-02 0.0000000000000000e+00  1.2330351401922728e+00 8.9083410809524338e-02 0.0000000000000000e+00  1.2330442949001126e+00 1.0389309618671211e-01 0.0000000000000000e+00  1.2330530742913843e+00 1.1868307901706621e-01 0.0000000000000000e+00  1.2330610208291553e+00 1.3344930752397674e-01 0.0000000000000000e+00  1.2330665084615373e+00 1.4818582575918193e-01 0.0000000000000000e+00  1.2330683730051415e+00 1.6288656198057197e-01 0.0000000000000000e+00  1.2330640637064763e+00 1.7754261278953667e-01 0.0000000000000000e+00  1.2330511689386769e+00 1.9214429726824020e-01 0.0000000000000000e+00  1.2330254886254166e+00 2.0667765152397299e-01 0.0000000000000000e+00  1.2329823861335507e+00 2.2112656151938834e-01 0.0000000000000000e+00  1.2329146963694004e+00 2.3546821701445186e-01 0.0000000000000000e+00  1.2328137795194334e+00 2.4967497627421820e-01 0.0000000000000000e+00  1.2326671023076958e+00 2.6370831159864833e-01 0.0000000000000000e+00  1.2324587663328208e+00 2.7751976133203110e-01 0.0000000000000000e+00  1.2321664591504851e+00 2.9104249899451312e-01 0.0000000000000000e+00  1.2317610463249886e+00 3.0419019283741344e-01 0.0000000000000000e+00  1.2312023511842900e+00 3.1684464169177928e-01 0.0000000000000000e+00  1.2304371157105367e+00 3.2885051404305476e-01 0.0000000000000000e+00  1.2293927600208852e+00 3.3999655675677021e-01 0.0000000000000000e+00  1.2279727767056459e+00 3.5000336682449551e-01 0.0000000000000000e+00  1.2260476380084950e+00 3.5849550244110784e-01 0.0000000000000000e+00  1.2234473773021408e+00 3.6498098375187282e-01 0.0000000000000000e+00  1.2199509157598289e+00 3.6881696250791873e-01 0.0000000000000000e+00  1.2152803733894502e+00 3.6919226894808682e-01 0.0000000000000000e+00  1.2090993531025196e+00 3.6511449149851316e-01 0.0000000000000000e+00  1.2010292190204619e+00 3.5545082909071879e-01 0.0000000000000000e+00  1.1906893404636418e+00 3.3903008961751735e-01 0.0000000000000000e+00  1.1777794971646960e+00 3.1487309128279256e-01 0.0000000000000000e+00  1.1622023563687447e+00 2.8254280992945036e-01 0.0000000000000000e+00  1.1442103953672345e+00 2.4259521323121069e-01 0.0000000000000000e+00  1.1245084754213062e+00 1.9692804655690355e-01 0.0000000000000000e+00  1.1042260234338983e+00 1.4877644270694351e-01 0.0000000000000000e+00  1.0846951887883423e+00 1.0211130586926509e-01 0.0000000000000000e+00  1.0671045641547732e+00 6.0609619601579082e-02 0.0000000000000000e+00  1.0521984912859235e+00 2.6686214149359004e-02 0.0000000000000000e+00  1.0401823631972089e+00 1.1296782718945120e-03 0.0000000000000000e+00  1.0308303050324159e+00 -1.6627431046570714e-02 0.0000000000000000e+00  1.0236881408413987e+00 -2.7901566539728719e-02 0.0000000000000000e+00  1.0182483737881274e+00 -3.4216951325347557e-02 0.0000000000000000e+00  1.0140574470407737e+00 -3.6958196443045772e-02 0.0000000000000000e+00  1.0107537926060632e+00 -3.7243962601886955e-02 0.0000000000000000e+00  1.0080713155032968e+00 -3.5904947237117589e-02 0.0000000000000000e+00  1.0058217009803574e+00 -3.3537293627622984e-02 0.0000000000000000e+00  1.0038776163864929e+00 -3.0548673406877159e-02 0.0000000000000000e+00  1.0021533491356300e+00 -2.7220374554064612e-02 0.0000000000000000e+00  1.0005939026308788e+00 -2.3736806065038026e-02 0.0000000000000000e+00  9.9916293310272364e-01 -2.0225987549707516e-02 0.0000000000000000e+00  9.9783846814693644e-01 -1.6768869130889135e-02 0.0000000000000000e+00  9.9660583112242296e-01 -1.3424591006461522e-02 0.0000000000000000e+00  9.9545710597258941e-01 -1.0228234559685401e-02 0.0000000000000000e+00  9.9438651380740417e-01 -7.2084771219832894e-03 0.0000000000000000e+00  9.9339169024549034e-01 -4.3797754103266726e-03 0.0000000000000000e+00  9.9247011328023316e-01 -1.7566748257750201e-03 0.0000000000000000e+00  9.9162123991570406e-01 6.5652429533942719e-04 0.0000000000000000e+00  9.9084333125389512e-01 2.8528161285814894e-03 0.0000000000000000e+00  9.9013602929274780e-01 4.8339144360818303e-03 0.0000000000000000e+00  9.8949729362771210e-01 6.5978047696144768e-03 0.0000000000000000e+00  9.8892624683740493e-01 8.1505938108751008e-03 0.0000000000000000e+00  9.8842010146835335e-01 9.4942230081517965e-03 0.0000000000000000e+00  9.8797720840510217e-01 1.0638412807205278e-02 0.0000000000000000e+00  9.8759392116081790e-01 1.1588429468188827e-02 0.0000000000000000e+00  9.8726782277559710e-01 1.2356948464805373e-02 0.0000000000000000e+00  9.8699449984933041e-01 1.2951879058047022e-02 0.0000000000000000e+00  9.8677093606130639e-01 1.3388047503969524e-02 0.0000000000000000e+00  9.8659217569950264e-01 1.3675144739632727e-02 0.0000000000000000e+00  9.8645487310500779e-01 1.3829171252595036e-02 0.0000000000000000e+00  9.8635382685005901e-01 1.3860606609598550e-02 0.0000000000000000e+00  9.8628567298187098e-01 1.3785577683038560e-02 0.0000000000000000e+00  9.8624527261092387e-01 1.3614362038672403e-02 0.0000000000000000e+00  9.8622953692050652e-01 1.3362244009120620e-02 0.0000000000000000e+00  9.8623365520376882e-01 1.3038460575226224e-02 0.0000000000000000e+00  9.8625504229329208e-01 1.2656699552719041e-02 0.0000000000000000e+00  9.8628940087891581e-01 1.2224581693228292e-02 0.0000000000000000e+00  9.8633478628699733e-01 1.1753738403612827e-02 0.0000000000000000e+00  9.8638750456252056e-01 1.1249904496831820e-02 0.0000000000000000e+00  9.8644629351295243e-01 1.0722496731967080e-02 0.0000000000000000e+00  9.8650806464384289e-01 1.0175374676520015e-02 0.0000000000000000e+00  9.8657220150953506e-01 9.6158315083588724e-03 0.0000000000000000e+00  9.8663615797279225e-01 9.0460697044211051e-03 0.0000000000000000e+00  9.8669987458301733e-01 8.4715141273470195e-03 0.0000000000000000e+00  9.8676124765768192e-01 7.8930450974685640e-03 0.0000000000000000e+00  9.8682066202130225e-01 7.3145497356753904e-03 0.0000000000000000e+00  9.8687634573192984e-01 6.7359552383053694e-03 0.0000000000000000e+00  9.8692901397972077e-01 6.1599449787744657e-03 0.0000000000000000e+00  9.8697712382565572e-01 5.5858364779946415e-03 0.0000000000000000e+00  9.8702162032901830e-01 5.0154009895927694e-03 0.0000000000000000e+00  9.8706110518889889e-01 4.4476312603563758e-03 0.0000000000000000e+00  9.8709667291476977e-01 3.8836152377157629e-03 0.0000000000000000e+00  9.8712700717572521e-01 3.3222369025372959e-03 0.0000000000000000e+00  9.8715329235728677e-01 2.7640654710284051e-03 0.0000000000000000e+00  9.8717425180943741e-01 2.2080280992963002e-03 0.0000000000000000e+00  9.8719111847717445e-01 1.6542854974733118e-03 0.0000000000000000e+00  9.8720262996914598e-01 1.1019086006611941e-03 0.0000000000000000e+00  9.8721004099544818e-01 5.5072030241219781e-04 0.0000000000000000e+00  9.8721209105142427e-01 9.0727110831256114e-17 0.0000000000000000e+00  9.8721004099544807e-01 -5.5072030241286774e-04 0.0000000000000000e+00  9.8720262996914598e-01 -1.1019086006608218e-03 0.0000000000000000e+00  9.8719111847717433e-01 -1.6542854974737986e-03 0.0000000000000000e+00  9.8717425180943741e-01 -2.2080280992951098e-03 0.0000000000000000e+00  9.8715329235728644e-01 -2.7640654710281180e-03 0.0000000000000000e+00  9.8712700717572532e-01 -3.3222369025362442e-03 0.0000000000000000e+00  9.8709667291476944e-01 -3.8836152377161670e-03 0.0000000000000000e+00  9.8706110518889889e-01 -4.4476312603551780e-03 0.0000000000000000e+00  9.8702162032901763e-01 -5.0154009895930322e-03 0.0000000000000000e+00  9.8697712382565550e-01 -5.5858364779934090e-03 0.0000000000000000e+00  9.8692901397971977e-01 -6.1599449787746374e-03 0.0000000000000000e+00  9.8687634573192962e-01 -6.7359552383037744e-03 0.0000000000000000e+00  9.8682066202130114e-01 -7.3145497356756342e-03 0.0000000000000000e+00  9.8676124765768181e-01 -7.8930450974673220e-03 0.0000000000000000e+00  9.8669987458301622e-01 -8.4715141273474497e-03 0.0000000000000000e+00  9.8663615797279214e-01 -9.0460697044195421e-03 0.0000000000000000e+00  9.8657220150953395e-01 -9.6158315083591656e-03 0.0000000000000000e+00  9.8650806464384277e-01 -1.0175374676518651e-02 0.0000000000000000e+00  9.8644629351295143e-01 -1.0722496731967887e-02 0.0000000000000000e+00  9.8638750456252056e-01 -1.1249904496830665e-02 0.0000000000000000e+00  9.8633478628699656e-01 -1.1753738403614255e-02 0.0000000000000000e+00  9.8628940087891614e-01 -1.2224581693227958e-02 0.0000000000000000e+00  9.8625504229329153e-01 -1.2656699552720091e-02 0.0000000000000000e+00  9.8623365520376938e-01 -1.3038460575226524e-02 0.0000000000000000e+00  9.8622953692050630e-01 -1.3362244009121529e-02 0.0000000000000000e+00  9.8624527261092443e-01 -1.3614362038672978e-02 0.0000000000000000e+00  9.8628567298187086e-01 -1.3785577683039247e-02 0.0000000000000000e+00  9.8635382685005968e-01 -1.3860606609599018e-02 0.0000000000000000e+00  9.8645487310500779e-01 -1.3829171252595541e-02 0.0000000000000000e+00  9.8659217569950308e-01 -1.3675144739633863e-02 0.0000000000000000e+00  9.8677093606130661e-01 -1.3388047503970237e-02 0.0000000000000000e+00  9.8699449984933041e-01 -1.2951879058047931e-02 0.0000000000000000e+00  9.8726782277559699e-01 -1.2356948464806491e-02 0.0000000000000000e+00  9.8759392116081757e-01 -1.1588429468189877e-02 0.0000000000000000e+00  9.8797720840510195e-01 -1.0638412807206503e-02 0.0000000000000000e+00  9.8842010146835291e-01 -9.4942230081526864e-03 0.0000000000000000e+00  9.8892624683740482e-01 -8.1505938108763758e-03 0.0000000000000000e+00  9.8949729362771166e-01 -6.5978047696147873e-03 0.0000000000000000e+00  9.9013602929274724e-01 -4.8339144360830845e-03 0.0000000000000000e+00  9.9084333125389468e-01 -2.8528161285823663e-03 0.0000000000000000e+00  9.9162123991570372e-01 -6.5652429534108570e-04 0.0000000000000000e+00  9.9247011328023305e-01 1.7566748257744767e-03 0.0000000000000000e+00  9.9339169024549012e-01 4.3797754103252293e-03 0.0000000000000000e+00  9.9438651380740417e-01 7.2084771219831662e-03 0.0000000000000000e+00  9.9545710597258930e-01 1.0228234559683153e-02 0.0000000000000000e+00  9.9660583112242318e-01 1.3424591006460630e-02 0.0000000000000000e+00  9.9783846814693633e-01 1.6768869130886318e-02 0.0000000000000000e+00  9.9916293310272419e-01 2.0225987549706524e-02 0.0000000000000000e+00  1.0005939026308788e+00 2.3736806065037089e-02 0.0000000000000000e+00  1.0021533491356307e+00 2.7220374554063908e-02 0.0000000000000000e+00  1.0038776163864929e+00 3.0548673406876260e-02 0.0000000000000000e+00  1.0058217009803581e+00 3.3537293627623595e-02 0.0000000000000000e+00  1.0080713155032968e+00 3.5904947237117235e-02 0.0000000000000000e+00  1.0107537926060641e+00 3.7243962601887844e-02 0.0000000000000000e+00  1.0140574470407737e+00 3.6958196443044156e-02 0.0000000000000000e+00  1.0182483737881278e+00 3.4216951325347619e-02 0.0000000000000000e+00  1.0236881408413985e+00 2.7901566539727075e-02 0.0000000000000000e+00  1.0308303050324159e+00 1.6627431046571876e-02 0.0000000000000000e+00  1.0401823631972082e+00 -1.1296782718960407e-03 0.0000000000000000e+00  1.0521984912859237e+00 -2.6686214149358463e-02 0.0000000000000000e+00  1.0671045641547727e+00 -6.0609619601581684e-02 0.0000000000000000e+00  1.0846951887883423e+00 -1.0211130586926538e-01 0.0000000000000000e+00  1.1042260234338979e+00 -1.4877644270694701e-01 0.0000000000000000e+00  1.1245084754213062e+00 -1.9692804655690330e-01 0.0000000000000000e+00  1.1442103953672336e+00 -2.4259521323121400e-01 0.0000000000000000e+00  1.1622023563687454e+00 -2.8254280992945158e-01 0.0000000000000000e+00  1.1777794971646951e+00 -3.1487309128279645e-01 0.0000000000000000e+00  1.1906893404636425e+00 -3.3903008961751757e-01 0.0000000000000000e+00  1.2010292190204610e+00 -3.5545082909072190e-01 0.0000000000000000e+00  1.2090993531025200e+00 -3.6511449149851316e-01 0.0000000000000000e+00  1.2152803733894493e+00 -3.6919226894808976e-01 0.0000000000000000e+00  1.2199509157598296e+00 -3.6881696250791723e-01 0.0000000000000000e+00  1.2234473773021399e+00 -3.6498098375187465e-01 0.0000000000000000e+00  1.2260476380084957e+00 -3.5849550244110606e-01 0.0000000000000000e+00  1.2279727767056450e+00 -3.5000336682449679e-01 0.0000000000000000e+00  1.2293927600208858e+00 -3.3999655675676776e-01 0.0000000000000000e+00  1.2304371157105363e+00 -3.2885051404305499e-01 0.0000000000000000e+00  1.2312023511842902e+00 -3.1684464169177662e-01 0.0000000000000000e+00  1.2317610463249882e+00 -3.0419019283741433e-01 0.0000000000000000e+00  1.2321664591504857e+00 -2.9104249899451101e-01 0.0000000000000000e+00  1.2324587663328208e+00 -2.7751976133203182e-01 0.0000000000000000e+00  1.2326671023076963e+00 -2.6370831159864666e-01 0.0000000000000000e+00  1.2328137795194327e+00 -2.4967497627421889e-01 0.0000000000000000e+00  1.2329146963694004e+00 -2.3546821701445089e-01 0.0000000000000000e+00  1.2329823861335498e+00 -2.2112656151938964e-01 0.0000000000000000e+00  1.2330254886254164e+00 -2.0667765152397238e-01 0.0000000000000000e+00  1.2330511689386765e+00 -1.9214429726824217e-01 0.0000000000000000e+00  1.2330640637064763e+00 -1.7754261278953698e-01 0.0000000000000000e+00  1.2330683730051410e+00 -1.6288656198057383e-01 0.0000000000000000e+00  1.2330665084615371e+00 -1.4818582575918238e-01 0.0000000000000000e+00  1.2330610208291548e+00 -1.3344930752397741e-01 0.0000000000000000e+00  1.2330530742913837e+00 -1.1868307901706669e-01 0.0000000000000000e+00  1.2330442949001126e+00 -1.0389309618671308e-01 0.0000000000000000e+00  1.2330351401922726e+00 -8.9083410809523936e-02 0.0000000000000000e+00  1.2330267119509597e+00 -7.4258232427904469e-02 0.0000000000000000e+00  1.2330190608640692e+00 -5.9420507666251850e-02 0.0000000000000000e+00  1.2330129844296245e+00 -4.4573402670183934e-02 0.0000000000000000e+00  1.2330082906412345e+00 -2.9719306708491412e-02 0.0000000000000000e+00  1.2330055893594378e+00 -1.4860777136330359e-02 0.0000000000000000e+00  1.2330045303651342e+00 0.0000000000000000e+00 0.0000000000000000e+00  </DataArray> 
</PointData> 
</Piece>
</UnstructuredGrid>
</VTKFile>