<?xml version="1.0"?>
<VTKFile type="UnstructuredGrid"  version="0.1"  >
<UnstructuredGrid>
<Piece  NumberOfPoints="201" NumberOfCells="200">
<Points>
<DataArray  type="Float64"  NumberOfComponents="3"  format="ascii">-5 0 0  -4.95 0 0  -4.9 0 0  -4.85 0 0  -4.8 0 0  -4.75 0 0  -4.7 0 0  -4.65 0 0  -4.6 0 0  -4.55 0 0  -4.5 0 0  -4.45 0 0  -4.4 0 0  -4.35 0 0  -4.3 0 0  -4.25 0 0  -4.2 0 0  -4.15 0 0  -4.1 0 0  -4.05 0 0  -4 0 0  -3.95 0 0  -3.9 0 0  -3.85 0 0  -3.8 0 0  -3.75 0 0  -3.7 0 0  -3.65 0 0  -3.6 0 0  -3.55 0 0  -3.5 0 0  -3.45 0 0  -3.4 0 0  -3.35 0 0  -3.3 0 0  -3.25 0 0  -3.2 0 0  -3.15 0 0  -3.1 0 0  -3.05 0 0  -3 0 0  -2.95 0 0  -2.9 0 0  -2.85 0 0  -2.8 0 0  -2.75 0 0  -2.7 0 0  -2.65 0 0  -2.6 0 0  -2.55 0 0  -2.5 0 0  -2.45 0 0  -2.4 0 0  -2.35 0 0  -2.3 0 0  -2.25 0 0  -2.2 0 0  -2.15 0 0  -2.1 0 0  -2.05 0 0  -2 0 0  -1.95 0 0  -1.9 0 0  -1.85 0 0  -1.8 0 0  -1.75 0 0  -1.7 0 0  -1.65 0 0  -1.6 0 0  -1.55 0 0  -1.5 0 0  -1.45 0 0  -1.4 0 0  -1.35 0 0  -1.3 0 0  -1.25 0 0  -1.2 0 0  -1.15 0 0  -1.1 0 0  -1.05 0 0  -1 0 0  -0.9500000000000002 0 0  -0.9000000000000004 0 0  -0.8499999999999996 0 0  -0.7999999999999998 0 0  -0.75 0 0  -0.7000000000000002 0 0  -0.6500000000000004 0 0  -0.5999999999999996 0 0  -0.5499999999999998 0 0  -0.5 0 0  -0.4500000000000002 0 0  -0.4000000000000004 0 0  -0.3499999999999996 0 0  -0.2999999999999998 0 0  -0.25 0 0  -0.2000000000000002 0 0  -0.1500000000000004 0 0  -0.09999999999999964 0 0  -0.04999999999999982 0 0  0 0 0  0.04999999999999982 0 0  0.09999999999999964 0 0  0.1500000000000004 0 0  0.2000000000000002 0 0  0.25 0 0  0.2999999999999998 0 0  0.3499999999999996 0 0  0.4000000000000004 0 0  0.4500000000000002 0 0  0.5 0 0  0.5499999999999998 0 0  0.5999999999999996 0 0  0.6500000000000004 0 0  0.7000000000000002 0 0  0.75 0 0  0.7999999999999998 0 0  0.8499999999999996 0 0  0.9000000000000004 0 0  0.9500000000000002 0 0  1 0 0  1.05 0 0  1.1 0 0  1.15 0 0  1.2 0 0  1.25 0 0  1.3 0 0  1.35 0 0  1.4 0 0  1.45 0 0  1.5 0 0  1.55 0 0  1.6 0 0  1.65 0 0  1.7 0 0  1.75 0 0  1.8 0 0  1.85 0 0  1.9 0 0  1.95 0 0  2 0 0  2.05 0 0  2.1 0 0  2.15 0 0  2.2 0 0  2.25 0 0  2.3 0 0  2.35 0 0  2.4 0 0  2.45 0 0  2.5 0 0  2.55 0 0  2.6 0 0  2.65 0 0  2.7 0 0  2.75 0 0  2.8 0 0  2.85 0 0  2.9 0 0  2.95 0 0  3 0 0  3.050000000000001 0 0  3.1 0 0  3.15 0 0  3.199999999999999 0 0  3.25 0 0  3.300000000000001 0 0  3.35 0 0  3.4 0 0  3.449999999999999 0 0  3.5 0 0  3.550000000000001 0 0  3.6 0 0  3.65 0 0  3.699999999999999 0 0  3.75 0 0  3.800000000000001 0 0  3.85 0 0  3.9 0 0  3.949999999999999 0 0  4 0 0  4.050000000000001 0 0  4.1 0 0  4.15 0 0  4.199999999999999 0 0  4.25 0 0  4.300000000000001 0 0  4.35 0 0  4.4 0 0  4.449999999999999 0 0  4.5 0 0  4.550000000000001 0 0  4.6 0 0  4.65 0 0  4.699999999999999 0 0  4.75 0 0  4.800000000000001 0 0  4.85 0 0  4.9 0 0  4.949999999999999 0 0  5 0 0  </DataArray>
</Points>
<Cells>
<DataArray  type="UInt32"  Name="connectivity"  format="ascii">0 1  1 2  2 3  3 4  4 5  5 6  6 7  7 8  8 9  9 10  10 11  11 12  12 13  13 14  14 15  15 16  16 17  17 18  18 19  19 20  20 21  21 22  22 23  23 24  24 25  25 26  26 27  27 28  28 29  29 30  30 31  31 32  32 33  33 34  34 35  35 36  36 37  37 38  38 39  39 40  40 41  41 42  42 43  43 44  44 45  45 46  46 47  47 48  48 49  49 50  50 51  51 52  52 53  53 54  54 55  55 56  56 57  57 58  58 59  59 60  60 61  61 62  62 63  63 64  64 65  65 66  66 67  67 68  68 69  69 70  70 71  71 72  72 73  73 74  74 75  75 76  76 77  77 78  78 79  79 80  80 81  81 82  82 83  83 84  84 85  85 86  86 87  87 88  88 89  89 90  90 91  91 92  92 93  93 94  94 95  95 96  96 97  97 98  98 99  99 100  100 101  101 102  102 103  103 104  104 105  105 106  106 107  107 108  108 109  109 110  110 111  111 112  112 113  113 114  114 115  115 116  116 117  117 118  118 119  119 120  120 121  121 122  122 123  123 124  124 125  125 126  126 127  127 128  128 129  129 130  130 131  131 132  132 133  133 134  134 135  135 136  136 137  137 138  138 139  139 140  140 141  141 142  142 143  143 144  144 145  145 146  146 147  147 148  148 149  149 150  150 151  151 152  152 153  153 154  154 155  155 156  156 157  157 158  158 159  159 160  160 161  161 162  162 163  163 164  164 165  165 166  166 167  167 168  168 169  169 170  170 171  171 172  172 173  173 174  174 175  175 176  176 177  177 178  178 179  179 180  180 181  181 182  182 183  183 184  184 185  185 186  186 187  187 188  188 189  189 190  190 191  191 192  192 193  193 194  194 195  195 196  196 197  197 198  198 199  199 200  </DataArray>
<DataArray  type="UInt32"  Name="offsets"  format="ascii">2 4 6 8 10 12 14 16 18 20 22 24 26 28 30 32 34 36 38 40 42 44 46 48 50 52 54 56 58 60 62 64 66 68 70 72 74 76 78 80 82 84 86 88 90 92 94 96 98 100 102 104 106 108 110 112 114 116 118 120 122 124 126 128 130 132 134 136 138 140 142 144 146 148 150 152 154 156 158 160 162 164 166 168 170 172 174 176 178 180 182 184 186 188 190 192 194 196 198 200 202 204 206 208 210 212 214 216 218 220 222 224 226 228 230 232 234 236 238 240 242 244 246 248 250 252 254 256 258 260 262 264 266 268 270 272 274 276 278 280 282 284 286 288 290 292 294 296 298 300 302 304 306 308 310 312 314 316 318 320 322 324 326 328 330 332 334 336 338 340 342 344 346 348 350 352 354 356 358 360 362 364 366 368 370 372 374 376 378 380 382 384 386 388 390 392 394 396 398 400 </DataArray>
<DataArray  type="UInt8"  Name="types"  format="ascii">3 3 3 3 3 3 3 3 3 3 3 3 3 3 3 3 3 3 3 3 3 3 3 3 3 3 3 3 3 3 3 3 3 3 3 3 3 3 3 3 3 3 3 3 3 3 3 3 3 3 3 3 3 3 3 3 3 3 3 3 3 3 3 3 3 3 3 3 3 3 3 3 3 3 3 3 3 3 3 3 3 3 3 3 3 3 3 3 3 3 3 3 3 3 3 3 3 3 3 3 3 3 3 3 3 3 3 3 3 3 3 3 3 3 3 3 3 3 3 3 3 3 3 3 3 3 3 3 3 3 3 3 3 3 3 3 3 3 3 3 3 3 3 3 3 3 3 3 3 3 3 3 3 3 3 3 3 3 3 3 3 3 3 3 3 3 3 3 3 3 3 3 3 3 3 3 3 3 3 3 3 3 3 3 3 3 3 3 3 3 3 3 3 3 3 3 3 3 3 3 </DataArray>
</Cells>
<PointData  Vectors="(h, u)"> 
<DataArray  type="Float64"  Name="(h, u)"  NumberOfComponents="3" format="ascii">1.0158468112440668e+00 0.0000000000000000e+00 0.0000000000000000e+00  1.0193224116669659e+00 -3.5263237402744535e-02 0.0000000000000000e+00  1.0306316382675123e+00 -8.2983168693322742e-02 0.0000000000000000e+00  1.0519411475608356e+00 -1.5519788499549672e-01 0.0000000000000000e+00  1.0850298570119976e+00 -2.5966116834989339e-01 0.0000000000000000e+00  1.1286935185087168e+00 -3.9295357485999194e-01 0.0000000000000000e+00  1.1775189437914750e+00 -5.3820263276306746e-01 0.0000000000000000e+00  1.2241212850853296e+00 -6.7356634564993600e-01 0.0000000000000000e+00  1.2628558947811503e+00 -7.8372273055529473e-01 0.0000000000000000e+00  1.2914482354633210e+00 -8.6368209934727469e-01 0.0000000000000000e+00  1.3102781159302708e+00 -9.1571931291485920e-01 0.0000000000000000e+00  1.3209972072910496e+00 -9.4513878087908409e-01 0.0000000000000000e+00  1.3255204899573483e+00 -9.5754238801715141e-01 0.0000000000000000e+00  1.3255359218310321e+00 -9.5766889738293492e-01 0.0000000000000000e+00  1.3223630955938017e+00 -9.4913203238466737e-01 0.0000000000000000e+00  1.3169680373444737e+00 -9.3454440682320805e-01 0.0000000000000000e+00  1.3100356276023086e+00 -9.1573912189939866e-01 0.0000000000000000e+00  1.3020414022875721e+00 -8.9398654677137002e-01 0.0000000000000000e+00  1.2933147093601023e+00 -8.7016092795785993e-01 0.0000000000000000e+00  1.2840823718642720e+00 -8.4486716401926576e-01 0.0000000000000000e+00  1.2745026947576483e+00 -8.1852435309011240e-01 0.0000000000000000e+00  1.2646860650682803e+00 -7.9142813074983120e-01 0.0000000000000000e+00  1.2547115207144719e+00 -7.6378767185184637e-01 0.0000000000000000e+00  1.2446355998105716e+00 -7.3575586406862437e-01 0.0000000000000000e+00  1.2345004489193505e+00 -7.0744447140224920e-01 0.0000000000000000e+00  1.2243373962332584e+00 -6.7893963373356458e-01 0.0000000000000000e+00  1.2141711316452650e+00 -6.5030731128052521e-01 0.0000000000000000e+00  1.2040210300656160e+00 -6.2160215825285436e-01 0.0000000000000000e+00  1.1939034797412404e+00 -5.9286875081448831e-01 0.0000000000000000e+00  1.1838322852017664e+00 -5.6414735961493923e-01 0.0000000000000000e+00  1.1738200886771128e+00 -5.3547345732168172e-01 0.0000000000000000e+00  1.1638784224481142e+00 -5.0688191024397322e-01 0.0000000000000000e+00  1.1540186724456047e+00 -4.7840594764458499e-01 0.0000000000000000e+00  1.1442520175423896e+00 -4.5008042140662602e-01 0.0000000000000000e+00  1.1345901676250671e+00 -4.2194084233684004e-01 0.0000000000000000e+00  1.1250452815913099e+00 -3.9402597831103825e-01 0.0000000000000000e+00  1.1156306133595548e+00 -3.6637729567861860e-01 0.0000000000000000e+00  1.1063604344547975e+00 -3.3904099753529737e-01 0.0000000000000000e+00  1.0972506687352643e+00 -3.1206806059975856e-01 0.0000000000000000e+00  1.0883188104619907e+00 -2.8551572373292639e-01 0.0000000000000000e+00  1.0795845864642688e+00 -2.5944818501845568e-01 0.0000000000000000e+00  1.0710698290134719e+00 -2.3393745782015757e-01 0.0000000000000000e+00  1.0627991492212792e+00 -2.0906462010589935e-01 0.0000000000000000e+00  1.0547996741540215e+00 -1.8491979369899991e-01 0.0000000000000000e+00  1.0471016270306142e+00 -1.6160355320967396e-01 0.0000000000000000e+00  1.0397377518432624e+00 -1.3922549433507267e-01 0.0000000000000000e+00  1.0327435640764158e+00 -1.1790497780620082e-01 0.0000000000000000e+00  1.0261561690925254e+00 -9.7767350078422230e-02 0.0000000000000000e+00  1.0200138084596351e+00 -7.8942737150789297e-02 0.0000000000000000e+00  1.0143537168708572e+00 -6.1558749147364478e-02 0.0000000000000000e+00  1.0092106025858014e+00 -4.5736074696246840e-02 0.0000000000000000e+00  1.0046134225373529e+00 -3.1577240916052060e-02 0.0000000000000000e+00  1.0005829100056802e+00 -1.9159322787103465e-02 0.0000000000000000e+00  9.9712798076297526e-01 -8.5210553078793709e-03 0.0000000000000000e+00  9.9424350693909125e-01 3.4342559948177944e-04 0.0000000000000000e+00  9.9190827631760714e-01 7.4928359408122603e-03 0.0000000000000000e+00  9.9008511213142780e-01 1.3037046808025579e-02 0.0000000000000000e+00  9.8872247296149340e-01 1.7133869570577841e-02 0.0000000000000000e+00  9.8775799326241376e-01 1.9975811187213921e-02 0.0000000000000000e+00  9.8712357080189328e-01 2.1775911270374884e-02 0.0000000000000000e+00  9.8675037187764147e-01 2.2749240189628508e-02 0.0000000000000000e+00  9.8657438827141908e-01 2.3097645260259078e-02 0.0000000000000000e+00  9.8653927756677495e-01 2.2997663031058050e-02 0.0000000000000000e+00  9.8659954820919871e-01 2.2593422363884459e-02 0.0000000000000000e+00  9.8671954339492596e-01 2.1996309461381723e-02 0.0000000000000000e+00  9.8687432558568944e-01 2.1285882478480858e-02 0.0000000000000000e+00  9.8704595012450913e-01 2.0517494976872046e-02 0.0000000000000000e+00  9.8722401521891112e-01 1.9725051032935315e-02 0.0000000000000000e+00  9.8740102490315318e-01 1.8930719053619274e-02 0.0000000000000000e+00  9.8757413487655477e-01 1.8144792585880549e-02 0.0000000000000000e+00  9.8774039102012234e-01 1.7374851448494762e-02 0.0000000000000000e+00  9.8790005113846358e-01 1.6621674122700204e-02 0.0000000000000000e+00  9.8805158077584354e-01 1.5888057551840678e-02 0.0000000000000000e+00  9.8819634535400747e-01 1.5171598875822244e-02 0.0000000000000000e+00  9.8833301663661877e-01 1.4474091459747141e-02 0.0000000000000000e+00  9.8846339411175865e-01 1.3792121414253285e-02 0.0000000000000000e+00  9.8858599232514410e-01 1.3127573533949454e-02 0.0000000000000000e+00  9.8870286620984593e-01 1.2476635488717419e-02 0.0000000000000000e+00  9.8881228954699041e-01 1.1841493366881391e-02 0.0000000000000000e+00  9.8891653183050743e-01 1.1218116850143556e-02 0.0000000000000000e+00  9.8901361622298001e-01 1.0608969200108039e-02 0.0000000000000000e+00  9.8910601348743321e-01 1.0009896470895948e-02 0.0000000000000000e+00  9.8919150439867864e-01 9.4235575700149631e-03 0.0000000000000000e+00  9.8927274964514123e-01 8.8457625142150855e-03 0.0000000000000000e+00  9.8934730188597819e-01 8.2792664817496458e-03 0.0000000000000000e+00  9.8941799792316243e-01 7.7199363770975591e-03 0.0000000000000000e+00  9.8948218005469657e-01 7.1705163952100704e-03 0.0000000000000000e+00  9.8954284466271769e-01 6.6270272845250786e-03 0.0000000000000000e+00  9.8959714398620680e-01 6.0920922435877050e-03 0.0000000000000000e+00  9.8964821515207602e-01 5.5619831777079286e-03 0.0000000000000000e+00  9.8969304251371404e-01 5.0390940368312013e-03 0.0000000000000000e+00  9.8973488330433490e-01 4.5200414437498223e-03 0.0000000000000000e+00  9.8977057745405717e-01 4.0068879667160681e-03 0.0000000000000000e+00  9.8980348032681809e-01 3.4966806572227526e-03 0.0000000000000000e+00  9.8983031169407976e-01 2.9910587720072320e-03 0.0000000000000000e+00  9.8985450213177706e-01 2.4875738093545255e-03 0.0000000000000000e+00  9.8987267594001671e-01 1.9873636320225261e-03 0.0000000000000000e+00  9.8988831534860233e-01 1.4885431180891315e-03 0.0000000000000000e+00  9.8989797402459234e-01 9.9168755136653359e-04 0.0000000000000000e+00  9.8990516186517341e-01 4.9551626379400941e-04 0.0000000000000000e+00  9.8990638671878239e-01 3.5988926153428688e-16 0.0000000000000000e+00  9.8990516186517352e-01 -4.9551626379366540e-04 0.0000000000000000e+00  9.8989797402459256e-01 -9.9168755136612376e-04 0.0000000000000000e+00  9.8988831534860255e-01 -1.4885431180886219e-03 0.0000000000000000e+00  9.8987267594001660e-01 -1.9873636320227538e-03 0.0000000000000000e+00  9.8985450213177739e-01 -2.4875738093535623e-03 0.0000000000000000e+00  9.8983031169407953e-01 -2.9910587720066765e-03 0.0000000000000000e+00  9.8980348032681820e-01 -3.4966806572223523e-03 0.0000000000000000e+00  9.8977057745405705e-01 -4.0068879667153915e-03 0.0000000000000000e+00  9.8973488330433512e-01 -4.5200414437499342e-03 0.0000000000000000e+00  9.8969304251371371e-01 -5.0390940368303105e-03 0.0000000000000000e+00  9.8964821515207613e-01 -5.5619831777080180e-03 0.0000000000000000e+00  9.8959714398620635e-01 -6.0920922435865766e-03 0.0000000000000000e+00  9.8954284466271780e-01 -6.6270272845260787e-03 0.0000000000000000e+00  9.8948218005469646e-01 -7.1705163952097868e-03 0.0000000000000000e+00  9.8941799792316243e-01 -7.7199363770980413e-03 0.0000000000000000e+00  9.8934730188597797e-01 -8.2792664817495001e-03 0.0000000000000000e+00  9.8927274964514134e-01 -8.8457625142159060e-03 0.0000000000000000e+00  9.8919150439867864e-01 -9.4235575700148278e-03 0.0000000000000000e+00  9.8910601348743343e-01 -1.0009896470896775e-02 0.0000000000000000e+00  9.8901361622298001e-01 -1.0608969200107477e-02 0.0000000000000000e+00  9.8891653183050765e-01 -1.1218116850144134e-02 0.0000000000000000e+00  9.8881228954699063e-01 -1.1841493366880560e-02 0.0000000000000000e+00  9.8870286620984593e-01 -1.2476635488718215e-02 0.0000000000000000e+00  9.8858599232514432e-01 -1.3127573533948543e-02 0.0000000000000000e+00  9.8846339411175843e-01 -1.3792121414254094e-02 0.0000000000000000e+00  9.8833301663661910e-01 -1.4474091459746865e-02 0.0000000000000000e+00  9.8819634535400735e-01 -1.5171598875823099e-02 0.0000000000000000e+00  9.8805158077584365e-01 -1.5888057551841153e-02 0.0000000000000000e+00  9.8790005113846346e-01 -1.6621674122701394e-02 0.0000000000000000e+00  9.8774039102012234e-01 -1.7374851448495671e-02 0.0000000000000000e+00  9.8757413487655488e-01 -1.8144792585881569e-02 0.0000000000000000e+00  9.8740102490315307e-01 -1.8930719053619951e-02 0.0000000000000000e+00  9.8722401521891134e-01 -1.9725051032935453e-02 0.0000000000000000e+00  9.8704595012450891e-01 -2.0517494976872382e-02 0.0000000000000000e+00  9.8687432558568966e-01 -2.1285882478479928e-02 0.0000000000000000e+00  9.8671954339492540e-01 -2.1996309461382250e-02 0.0000000000000000e+00  9.8659954820919882e-01 -2.2593422363883422e-02 0.0000000000000000e+00  9.8653927756677429e-01 -2.2997663031058154e-02 0.0000000000000000e+00  9.8657438827141919e-01 -2.3097645260257340e-02 0.0000000000000000e+00  9.8675037187764070e-01 -2.2749240189627658e-02 0.0000000000000000e+00  9.8712357080189306e-01 -2.1775911270372823e-02 0.0000000000000000e+00  9.8775799326241287e-01 -1.9975811187212908e-02 0.0000000000000000e+00  9.8872247296149307e-01 -1.7133869570575749e-02 0.0000000000000000e+00  9.9008511213142691e-01 -1.3037046808025090e-02 0.0000000000000000e+00  9.9190827631760714e-01 -7.4928359408105985e-03 0.0000000000000000e+00  9.9424350693909080e-01 -3.4342559948172176e-04 0.0000000000000000e+00  9.9712798076297549e-01 8.5210553078804985e-03 0.0000000000000000e+00  1.0005829100056804e+00 1.9159322787103136e-02 0.0000000000000000e+00  1.0046134225373531e+00 3.1577240916053115e-02 0.0000000000000000e+00  1.0092106025858014e+00 4.5736074696247214e-02 0.0000000000000000e+00  1.0143537168708572e+00 6.1558749147365983e-02 0.0000000000000000e+00  1.0200138084596353e+00 7.8942737150789200e-02 0.0000000000000000e+00  1.0261561690925254e+00 9.7767350078423493e-02 0.0000000000000000e+00  1.0327435640764155e+00 1.1790497780620100e-01 0.0000000000000000e+00  1.0397377518432616e+00 1.3922549433507331e-01 0.0000000000000000e+00  1.0471016270306142e+00 1.6160355320967457e-01 0.0000000000000000e+00  1.0547996741540204e+00 1.8491979369900008e-01 0.0000000000000000e+00  1.0627991492212794e+00 2.0906462010590057e-01 0.0000000000000000e+00  1.0710698290134713e+00 2.3393745782015846e-01 0.0000000000000000e+00  1.0795845864642695e+00 2.5944818501845557e-01 0.0000000000000000e+00  1.0883188104619907e+00 2.8551572373292783e-01 0.0000000000000000e+00  1.0972506687352648e+00 3.1206806059975756e-01 0.0000000000000000e+00  1.1063604344547973e+00 3.3904099753529765e-01 0.0000000000000000e+00  1.1156306133595553e+00 3.6637729567861749e-01 0.0000000000000000e+00  1.1250452815913099e+00 3.9402597831103869e-01 0.0000000000000000e+00  1.1345901676250678e+00 4.2194084233684026e-01 0.0000000000000000e+00  1.1442520175423898e+00 4.5008042140662635e-01 0.0000000000000000e+00  1.1540186724456052e+00 4.7840594764458494e-01 0.0000000000000000e+00  1.1638784224481147e+00 5.0688191024397355e-01 0.0000000000000000e+00  1.1738200886771131e+00 5.3547345732168239e-01 0.0000000000000000e+00  1.1838322852017671e+00 5.6414735961494011e-01 0.0000000000000000e+00  1.1939034797412402e+00 5.9286875081448898e-01 0.0000000000000000e+00  1.2040210300656160e+00 6.2160215825285514e-01 0.0000000000000000e+00  1.2141711316452646e+00 6.5030731128052499e-01 0.0000000000000000e+00  1.2243373962332584e+00 6.7893963373356503e-01 0.0000000000000000e+00  1.2345004489193505e+00 7.0744447140224864e-01 0.0000000000000000e+00  1.2446355998105716e+00 7.3575586406862425e-01 0.0000000000000000e+00  1.2547115207144712e+00 7.6378767185184637e-01 0.0000000000000000e+00  1.2646860650682801e+00 7.9142813074983098e-01 0.0000000000000000e+00  1.2745026947576477e+00 8.1852435309011251e-01 0.0000000000000000e+00  1.2840823718642722e+00 8.4486716401926598e-01 0.0000000000000000e+00  1.2933147093601014e+00 8.7016092795786093e-01 0.0000000000000000e+00  1.3020414022875721e+00 8.9398654677136968e-01 0.0000000000000000e+00  1.3100356276023082e+00 9.1573912189939843e-01 0.0000000000000000e+00  1.3169680373444737e+00 9.3454440682320772e-01 0.0000000000000000e+00  1.3223630955938013e+00 9.4913203238466703e-01 0.0000000000000000e+00  1.3255359218310321e+00 9.5766889738293437e-01 0.0000000000000000e+00  1.3255204899573481e+00 9.5754238801715152e-01 0.0000000000000000e+00  1.3209972072910499e+00 9.4513878087908432e-01 0.0000000000000000e+00  1.3102781159302708e+00 9.1571931291486008e-01 0.0000000000000000e+00  1.2914482354633203e+00 8.6368209934727336e-01 0.0000000000000000e+00  1.2628558947811503e+00 7.8372273055529396e-01 0.0000000000000000e+00  1.2241212850853291e+00 6.7356634564993678e-01 0.0000000000000000e+00  1.1775189437914759e+00 5.3820263276307068e-01 0.0000000000000000e+00  1.1286935185087166e+00 3.9295357485999360e-01 0.0000000000000000e+00  1.0850298570119969e+00 2.5966116834989234e-01 0.0000000000000000e+00  1.0519411475608351e+00 1.5519788499549653e-01 0.0000000000000000e+00  1.0306316382675123e+00 8.2983168693322548e-02 0.0000000000000000e+00  1.0193224116669657e+00 3.5263237402744889e-02 0.0000000000000000e+00  1.0158468112440671e+00 0.0000000000000000e+00 0.0000000000000000e+00  </DataArray> 
</PointData> 
</Piece>
</UnstructuredGrid>
</VTKFile>