<?xml version="1.0"?>
<VTKFile type="UnstructuredGrid"  version="0.1"  >
<UnstructuredGrid>
<Piece  NumberOfPoints="201" NumberOfCells="200">
<Points>
<DataArray  type="Float64"  NumberOfComponents="3"  format="ascii">-5 0 0  -4.95 0 0  -4.9 0 0  -4.85 0 0  -4.8 0 0  -4.75 0 0  -4.7 0 0  -4.65 0 0  -4.6 0 0  -4.55 0 0  -4.5 0 0  -4.45 0 0  -4.4 0 0  -4.35 0 0  -4.3 0 0  -4.25 0 0  -4.2 0 0  -4.15 0 0  -4.1 0 0  -4.05 0 0  -4 0 0  -3.95 0 0  -3.9 0 0  -3.85 0 0  -3.8 0 0  -3.75 0 0  -3.7 0 0  -3.65 0 0  -3.6 0 0  -3.55 0 0  -3.5 0 0  -3.45 0 0  -3.4 0 0  -3.35 0 0  -3.3 0 0  -3.25 0 0  -3.2 0 0  -3.15 0 0  -3.1 0 0  -3.05 0 0  -3 0 0  -2.95 0 0  -2.9 0 0  -2.85 0 0  -2.8 0 0  -2.75 0 0  -2.7 0 0  -2.65 0 0  -2.6 0 0  -2.55 0 0  -2.5 0 0  -2.45 0 0  -2.4 0 0  -2.35 0 0  -2.3 0 0  -2.25 0 0  -2.2 0 0  -2.15 0 0  -2.1 0 0  -2.05 0 0  -2 0 0  -1.95 0 0  -1.9 0 0  -1.85 0 0  -1.8 0 0  -1.75 0 0  -1.7 0 0  -1.65 0 0  -1.6 0 0  -1.55 0 0  -1.5 0 0  -1.45 0 0  -1.4 0 0  -1.35 0 0  -1.3 0 0  -1.25 0 0  -1.2 0 0  -1.15 0 0  -1.1 0 0  -1.05 0 0  -1 0 0  -0.9500000000000002 0 0  -0.9000000000000004 0 0  -0.8499999999999996 0 0  -0.7999999999999998 0 0  -0.75 0 0  -0.7000000000000002 0 0  -0.6500000000000004 0 0  -0.5999999999999996 0 0  -0.5499999999999998 0 0  -0.5 0 0  -0.4500000000000002 0 0  -0.4000000000000004 0 0  -0.3499999999999996 0 0  -0.2999999999999998 0 0  -0.25 0 0  -0.2000000000000002 0 0  -0.1500000000000004 0 0  -0.09999999999999964 0 0  -0.04999999999999982 0 0  0 0 0  0.04999999999999982 0 0  0.09999999999999964 0 0  0.1500000000000004 0 0  0.2000000000000002 0 0  0.25 0 0  0.2999999999999998 0 0  0.3499999999999996 0 0  0.4000000000000004 0 0  0.4500000000000002 0 0  0.5 0 0  0.5499999999999998 0 0  0.5999999999999996 0 0  0.6500000000000004 0 0  0.7000000000000002 0 0  0.75 0 0  0.7999999999999998 0 0  0.8499999999999996 0 0  0.9000000000000004 0 0  0.9500000000000002 0 0  1 0 0  1.05 0 0  1.1 0 0  1.15 0 0  1.2 0 0  1.25 0 0  1.3 0 0  1.35 0 0  1.4 0 0  1.45 0 0  1.5 0 0  1.55 0 0  1.6 0 0  1.65 0 0  1.7 0 0  1.75 0 0  1.8 0 0  1.85 0 0  1.9 0 0  1.95 0 0  2 0 0  2.05 0 0  2.1 0 0  2.15 0 0  2.2 0 0  2.25 0 0  2.3 0 0  2.35 0 0  2.4 0 0  2.45 0 0  2.5 0 0  2.55 0 0  2.6 0 0  2.65 0 0  2.7 0 0  2.75 0 0  2.8 0 0  2.85 0 0  2.9 0 0  2.95 0 0  3 0 0  3.050000000000001 0 0  3.1 0 0  3.15 0 0  3.199999999999999 0 0  3.25 0 0  3.300000000000001 0 0  3.35 0 0  3.4 0 0  3.449999999999999 0 0  3.5 0 0  3.550000000000001 0 0  3.6 0 0  3.65 0 0  3.699999999999999 0 0  3.75 0 0  3.800000000000001 0 0  3.85 0 0  3.9 0 0  3.949999999999999 0 0  4 0 0  4.050000000000001 0 0  4.1 0 0  4.15 0 0  4.199999999999999 0 0  4.25 0 0  4.300000000000001 0 0  4.35 0 0  4.4 0 0  4.449999999999999 0 0  4.5 0 0  4.550000000000001 0 0  4.6 0 0  4.65 0 0  4.699999999999999 0 0  4.75 0 0  4.800000000000001 0 0  4.85 0 0  4.9 0 0  4.949999999999999 0 0  5 0 0  </DataArray>
</Points>
<Cells>
<DataArray  type="UInt32"  Name="connectivity"  format="ascii">0 1  1 2  2 3  3 4  4 5  5 6  6 7  7 8  8 9  9 10  10 11  11 12  12 13  13 14  14 15  15 16  16 17  17 18  18 19  19 20  20 21  21 22  22 23  23 24  24 25  25 26  26 27  27 28  28 29  29 30  30 31  31 32  32 33  33 34  34 35  35 36  36 37  37 38  38 39  39 40  40 41  41 42  42 43  43 44  44 45  45 46  46 47  47 48  48 49  49 50  50 51  51 52  52 53  53 54  54 55  55 56  56 57  57 58  58 59  59 60  60 61  61 62  62 63  63 64  64 65  65 66  66 67  67 68  68 69  69 70  70 71  71 72  72 73  73 74  74 75  75 76  76 77  77 78  78 79  79 80  80 81  81 82  82 83  83 84  84 85  85 86  86 87  87 88  88 89  89 90  90 91  91 92  92 93  93 94  94 95  95 96  96 97  97 98  98 99  99 100  100 101  101 102  102 103  103 104  104 105  105 106  106 107  107 108  108 109  109 110  110 111  111 112  112 113  113 114  114 115  115 116  116 117  117 118  118 119  119 120  120 121  121 122  122 123  123 124  124 125  125 126  126 127  127 128  128 129  129 130  130 131  131 132  132 133  133 134  134 135  135 136  136 137  137 138  138 139  139 140  140 141  141 142  142 143  143 144  144 145  145 146  146 147  147 148  148 149  149 150  150 151  151 152  152 153  153 154  154 155  155 156  156 157  157 158  158 159  159 160  160 161  161 162  162 163  163 164  164 165  165 166  166 167  167 168  168 169  169 170  170 171  171 172  172 173  173 174  174 175  175 176  176 177  177 178  178 179  179 180  180 181  181 182  182 183  183 184  184 185  185 186  186 187  187 188  188 189  189 190  190 191  191 192  192 193  193 194  194 195  195 196  196 197  197 198  198 199  199 200  </DataArray>
<DataArray  type="UInt32"  Name="offsets"  format="ascii">2 4 6 8 10 12 14 16 18 20 22 24 26 28 30 32 34 36 38 40 42 44 46 48 50 52 54 56 58 60 62 64 66 68 70 72 74 76 78 80 82 84 86 88 90 92 94 96 98 100 102 104 106 108 110 112 114 116 118 120 122 124 126 128 130 132 134 136 138 140 142 144 146 148 150 152 154 156 158 160 162 164 166 168 170 172 174 176 178 180 182 184 186 188 190 192 194 196 198 200 202 204 206 208 210 212 214 216 218 220 222 224 226 228 230 232 234 236 238 240 242 244 246 248 250 252 254 256 258 260 262 264 266 268 270 272 274 276 278 280 282 284 286 288 290 292 294 296 298 300 302 304 306 308 310 312 314 316 318 320 322 324 326 328 330 332 334 336 338 340 342 344 346 348 350 352 354 356 358 360 362 364 366 368 370 372 374 376 378 380 382 384 386 388 390 392 394 396 398 400 </DataArray>
<DataArray  type="UInt8"  Name="types"  format="ascii">3 3 3 3 3 3 3 3 3 3 3 3 3 3 3 3 3 3 3 3 3 3 3 3 3 3 3 3 3 3 3 3 3 3 3 3 3 3 3 3 3 3 3 3 3 3 3 3 3 3 3 3 3 3 3 3 3 3 3 3 3 3 3 3 3 3 3 3 3 3 3 3 3 3 3 3 3 3 3 3 3 3 3 3 3 3 3 3 3 3 3 3 3 3 3 3 3 3 3 3 3 3 3 3 3 3 3 3 3 3 3 3 3 3 3 3 3 3 3 3 3 3 3 3 3 3 3 3 3 3 3 3 3 3 3 3 3 3 3 3 3 3 3 3 3 3 3 3 3 3 3 3 3 3 3 3 3 3 3 3 3 3 3 3 3 3 3 3 3 3 3 3 3 3 3 3 3 3 3 3 3 3 3 3 3 3 3 3 3 3 3 3 3 3 3 3 3 3 3 3 </DataArray>
</Cells>
<PointData  Vectors="(h, u)"> 
<DataArray  type="Float64"  Name="(h, u)"  NumberOfComponents="3" format="ascii">1.1549520694505968e+00 0.0000000000000000e+00 0.0000000000000000e+00  1.1549580339855066e+00 1.3624973858459909e-02 0.0000000000000000e+00  1.1549745317802695e+00 2.7247581515592392e-02 0.0000000000000000e+00  1.1550030546209211e+00 4.0865544563012605e-02 0.0000000000000000e+00  1.1550423048847358e+00 5.4476359259704933e-02 0.0000000000000000e+00  1.1550938695197543e+00 6.8077784161370683e-02 0.0000000000000000e+00  1.1551565526699061e+00 8.1667127420330582e-02 0.0000000000000000e+00  1.1552320369061928e+00 9.5242130706015324e-02 0.0000000000000000e+00  1.1553192328945399e+00 1.0879986060981627e-01 0.0000000000000000e+00  1.1554199202531616e+00 1.2233798285001650e-01 0.0000000000000000e+00  1.1555331216780209e+00 1.3585326363756442e-01 0.0000000000000000e+00  1.1556607156194936e+00 1.4934322571748515e-01 0.0000000000000000e+00  1.1558018422678242e+00 1.6280426748009874e-01 0.0000000000000000e+00  1.1559584799638052e+00 1.7623368995552877e-01 0.0000000000000000e+00  1.1561298903826915e+00 1.8962744301135473e-01 0.0000000000000000e+00  1.1563181501699558e+00 2.0298250991669028e-01 0.0000000000000000e+00  1.1565226424832622e+00 2.1629429096307456e-01 0.0000000000000000e+00  1.1567455346930480e+00 2.2955932947985844e-01 0.0000000000000000e+00  1.1569863230372592e+00 2.4277234334168718e-01 0.0000000000000000e+00  1.1572472462036618e+00 2.5592927299936441e-01 0.0000000000000000e+00  1.1575278890246221e+00 2.6902397006040540e-01 0.0000000000000000e+00  1.1578305201081909e+00 2.8205154332529503e-01 0.0000000000000000e+00  1.1581547588984518e+00 2.9500470998745104e-01 0.0000000000000000e+00  1.1585028227837724e+00 3.0787740855496604e-01 0.0000000000000000e+00  1.1588742588326171e+00 3.2066081044197770e-01 0.0000000000000000e+00  1.1592710811295457e+00 3.3334715658720415e-01 0.0000000000000000e+00  1.1596925628831818e+00 3.4592541196580945e-01 0.0000000000000000e+00  1.1601402365273321e+00 3.5838526106298824e-01 0.0000000000000000e+00  1.1606127314556156e+00 3.7071235874526987e-01 0.0000000000000000e+00  1.1611105946333302e+00 3.8289237960810119e-01 0.0000000000000000e+00  1.1616311396863344e+00 3.9490576340853412e-01 0.0000000000000000e+00  1.1621730185810828e+00 4.0673163756737007e-01 0.0000000000000000e+00  1.1627310111376337e+00 4.1834185053590839e-01 0.0000000000000000e+00  1.1633002279399662e+00 4.2970444343715375e-01 0.0000000000000000e+00  1.1638707011534111e+00 4.4077656798577181e-01 0.0000000000000000e+00  1.1644310069995729e+00 4.5150691795200093e-01 0.0000000000000000e+00  1.1649623971461636e+00 4.6182677399363409e-01 0.0000000000000000e+00  1.1654414729128506e+00 4.7165034713526166e-01 0.0000000000000000e+00  1.1658334036579332e+00 4.8086262187670148e-01 0.0000000000000000e+00  1.1660930666824876e+00 4.8931590335977920e-01 0.0000000000000000e+00  1.1661566861575314e+00 4.9681246428607362e-01 0.0000000000000000e+00  1.1659407286823489e+00 5.0309512787831712e-01 0.0000000000000000e+00  1.1653314217241304e+00 5.0782291970731108e-01 0.0000000000000000e+00  1.1641813896358273e+00 5.1055522413857468e-01 0.0000000000000000e+00  1.1622983096592716e+00 5.1072338017889429e-01 0.0000000000000000e+00  1.1594430497506227e+00 5.0761816580429386e-01 0.0000000000000000e+00  1.1553256355057910e+00 5.0037948197702409e-01 0.0000000000000000e+00  1.1496199160762119e+00 4.8802898216274632e-01 0.0000000000000000e+00  1.1419907331191959e+00 4.6954652550182779e-01 0.0000000000000000e+00  1.1321569215755622e+00 4.4404321971809857e-01 0.0000000000000000e+00  1.1199802156519045e+00 4.1102453320139376e-01 0.0000000000000000e+00  1.1055823606193222e+00 3.7074313834458655e-01 0.0000000000000000e+00  1.0894383888628387e+00 3.2451174973958419e-01 0.0000000000000000e+00  1.0723953955547114e+00 2.7480626068594882e-01 0.0000000000000000e+00  1.0555476092859442e+00 2.2494314606985419e-01 0.0000000000000000e+00  1.0399918349411519e+00 1.7835120931240134e-01 0.0000000000000000e+00  1.0265545610308480e+00 1.3771256685351191e-01 0.0000000000000000e+00  1.0156373139454014e+00 1.0442552638806084e-01 0.0000000000000000e+00  1.0072254407662768e+00 7.8584911795335666e-02 0.0000000000000000e+00  1.0010229837373592e+00 5.9372283033334347e-02 0.0000000000000000e+00  9.9660762499740929e-01 4.5541311674356398e-02 0.0000000000000000e+00  9.9355267261802960e-01 3.5804087361322165e-02 0.0000000000000000e+00  9.9148783914991589e-01 2.9035013318294136e-02 0.0000000000000000e+00  9.9012254006237455e-01 2.4347483486563359e-02 0.0000000000000000e+00  9.8923980899441033e-01 2.1082250836183800e-02 0.0000000000000000e+00  9.8868561091315865e-01 1.8772936722832315e-02 0.0000000000000000e+00  9.8835167223059195e-01 1.7095897179558537e-02 0.0000000000000000e+00  9.8816476320331481e-01 1.5834411083793024e-02 0.0000000000000000e+00  9.8807445272052785e-01 1.4842696780874666e-02 0.0000000000000000e+00  9.8804765048514021e-01 1.4026837892906130e-02 0.0000000000000000e+00  9.8806148234104496e-01 1.3324263166987427e-02 0.0000000000000000e+00  9.8810138084875765e-01 1.2696363504468474e-02 0.0000000000000000e+00  9.8815701175538784e-01 1.2117045330496547e-02 0.0000000000000000e+00  9.8822208037775061e-01 1.1571307245561529e-02 0.0000000000000000e+00  9.8829187512854499e-01 1.1048354132777010e-02 0.0000000000000000e+00  9.8836374328561083e-01 1.0542812477567567e-02 0.0000000000000000e+00  9.8843550626585941e-01 1.0050053256799531e-02 0.0000000000000000e+00  9.8850610100742187e-01 9.5684244086805155e-03 0.0000000000000000e+00  9.8857451383519801e-01 9.0956802113628804e-03 0.0000000000000000e+00  9.8864036463295812e-01 8.6314947571430409e-03 0.0000000000000000e+00  9.8870319507076165e-01 8.1745064868546068e-03 0.0000000000000000e+00  9.8876290477172113e-01 7.7247926265435248e-03 0.0000000000000000e+00  9.8881931412714408e-01 7.2813161772865053e-03 0.0000000000000000e+00  9.8887242146823706e-01 6.8442277149888472e-03 0.0000000000000000e+00  9.8892219666711856e-01 6.4126243868127238e-03 0.0000000000000000e+00  9.8896865532754308e-01 5.9866266583132061e-03 0.0000000000000000e+00  9.8901185396190716e-01 5.5654108849919840e-03 0.0000000000000000e+00  9.8905178976037245e-01 5.1490430927843616e-03 0.0000000000000000e+00  9.8908857360304847e-01 4.7367680815225454e-03 0.0000000000000000e+00  9.8912217018553039e-01 4.3285965390340540e-03 0.0000000000000000e+00  9.8915272681203692e-01 3.9238420517565256e-03 0.0000000000000000e+00  9.8918017205513853e-01 3.5224633819905026e-03 0.0000000000000000e+00  9.8920467845391835e-01 3.1238439328609953e-03 0.0000000000000000e+00  9.8922613995896336e-01 2.7278928661547712e-03 0.0000000000000000e+00  9.8924474628635661e-01 2.3340628047474046e-03 0.0000000000000000e+00  9.8926036078117807e-01 1.9422137487869441e-03 0.0000000000000000e+00  9.8927318365605776e-01 1.5518654700395849e-03 0.0000000000000000e+00  9.8928305287328699e-01 1.1628277699258522e-03 0.0000000000000000e+00  9.8929017299827704e-01 7.7468465488658256e-04 0.0000000000000000e+00  9.8929436237672119e-01 3.8719372820710028e-04 0.0000000000000000e+00  9.8929582393541626e-01 1.8566207573228507e-15 0.0000000000000000e+00  9.8929436237672130e-01 -3.8719372820597694e-04 0.0000000000000000e+00  9.8929017299827726e-01 -7.7468465488292370e-04 0.0000000000000000e+00  9.8928305287328722e-01 -1.1628277699252988e-03 0.0000000000000000e+00  9.8927318365605799e-01 -1.5518654700367477e-03 0.0000000000000000e+00  9.8926036078117807e-01 -1.9422137487870264e-03 0.0000000000000000e+00  9.8924474628635695e-01 -2.3340628047448593e-03 0.0000000000000000e+00  9.8922613995896325e-01 -2.7278928661553436e-03 0.0000000000000000e+00  9.8920467845391880e-01 -3.1238439328595182e-03 0.0000000000000000e+00  9.8918017205513875e-01 -3.5224633819912255e-03 0.0000000000000000e+00  9.8915272681203736e-01 -3.9238420517548151e-03 0.0000000000000000e+00  9.8912217018553072e-01 -4.3285965390357601e-03 0.0000000000000000e+00  9.8908857360304903e-01 -4.7367680815211654e-03 0.0000000000000000e+00  9.8905178976037267e-01 -5.1490430927864494e-03 0.0000000000000000e+00  9.8901185396190749e-01 -5.5654108849903005e-03 0.0000000000000000e+00  9.8896865532754319e-01 -5.9866266583149582e-03 0.0000000000000000e+00  9.8892219666711867e-01 -6.4126243868105693e-03 0.0000000000000000e+00  9.8887242146823706e-01 -6.8442277149914710e-03 0.0000000000000000e+00  9.8881931412714419e-01 -7.2813161772844106e-03 0.0000000000000000e+00  9.8876290477172102e-01 -7.7247926265464470e-03 0.0000000000000000e+00  9.8870319507076176e-01 -8.1745064868521643e-03 0.0000000000000000e+00  9.8864036463295779e-01 -8.6314947571459015e-03 0.0000000000000000e+00  9.8857451383519801e-01 -9.0956802113608438e-03 0.0000000000000000e+00  9.8850610100742142e-01 -9.5684244086834819e-03 0.0000000000000000e+00  9.8843550626585941e-01 -1.0050053256797808e-02 0.0000000000000000e+00  9.8836374328561027e-01 -1.0542812477570529e-02 0.0000000000000000e+00  9.8829187512854499e-01 -1.1048354132775485e-02 0.0000000000000000e+00  9.8822208037775006e-01 -1.1571307245563931e-02 0.0000000000000000e+00  9.8815701175538795e-01 -1.2117045330495197e-02 0.0000000000000000e+00  9.8810138084875720e-01 -1.2696363504471005e-02 0.0000000000000000e+00  9.8806148234104496e-01 -1.3324263166987241e-02 0.0000000000000000e+00  9.8804765048513976e-01 -1.4026837892909238e-02 0.0000000000000000e+00  9.8807445272052807e-01 -1.4842696780874435e-02 0.0000000000000000e+00  9.8816476320331459e-01 -1.5834411083796449e-02 0.0000000000000000e+00  9.8835167223059217e-01 -1.7095897179558943e-02 0.0000000000000000e+00  9.8868561091315832e-01 -1.8772936722835108e-02 0.0000000000000000e+00  9.8923980899441044e-01 -2.1082250836184254e-02 0.0000000000000000e+00  9.9012254006237443e-01 -2.4347483486565923e-02 0.0000000000000000e+00  9.9148783914991623e-01 -2.9035013318293612e-02 0.0000000000000000e+00  9.9355267261802949e-01 -3.5804087361323934e-02 0.0000000000000000e+00  9.9660762499740974e-01 -4.5541311674355649e-02 0.0000000000000000e+00  1.0010229837373594e+00 -5.9372283033336019e-02 0.0000000000000000e+00  1.0072254407662773e+00 -7.8584911795334986e-02 0.0000000000000000e+00  1.0156373139454016e+00 -1.0442552638806232e-01 0.0000000000000000e+00  1.0265545610308484e+00 -1.3771256685351105e-01 0.0000000000000000e+00  1.0399918349411519e+00 -1.7835120931240278e-01 0.0000000000000000e+00  1.0555476092859442e+00 -2.2494314606985352e-01 0.0000000000000000e+00  1.0723953955547112e+00 -2.7480626068595132e-01 0.0000000000000000e+00  1.0894383888628387e+00 -3.2451174973958474e-01 0.0000000000000000e+00  1.1055823606193220e+00 -3.7074313834458983e-01 0.0000000000000000e+00  1.1199802156519043e+00 -4.1102453320139581e-01 0.0000000000000000e+00  1.1321569215755622e+00 -4.4404321971810234e-01 0.0000000000000000e+00  1.1419907331191959e+00 -4.6954652550182935e-01 0.0000000000000000e+00  1.1496199160762124e+00 -4.8802898216274870e-01 0.0000000000000000e+00  1.1553256355057910e+00 -5.0037948197702597e-01 0.0000000000000000e+00  1.1594430497506227e+00 -5.0761816580429542e-01 0.0000000000000000e+00  1.1622983096592712e+00 -5.1072338017889474e-01 0.0000000000000000e+00  1.1641813896358273e+00 -5.1055522413857490e-01 0.0000000000000000e+00  1.1653314217241302e+00 -5.0782291970731175e-01 0.0000000000000000e+00  1.1659407286823489e+00 -5.0309512787831778e-01 0.0000000000000000e+00  1.1661566861575312e+00 -4.9681246428607367e-01 0.0000000000000000e+00  1.1660930666824878e+00 -4.8931590335977876e-01 0.0000000000000000e+00  1.1658334036579334e+00 -4.8086262187670165e-01 0.0000000000000000e+00  1.1654414729128511e+00 -4.7165034713526172e-01 0.0000000000000000e+00  1.1649623971461633e+00 -4.6182677399363309e-01 0.0000000000000000e+00  1.1644310069995729e+00 -4.5150691795200060e-01 0.0000000000000000e+00  1.1638707011534111e+00 -4.4077656798577125e-01 0.0000000000000000e+00  1.1633002279399662e+00 -4.2970444343715292e-01 0.0000000000000000e+00  1.1627310111376334e+00 -4.1834185053590811e-01 0.0000000000000000e+00  1.1621730185810824e+00 -4.0673163756736869e-01 0.0000000000000000e+00  1.1616311396863341e+00 -3.9490576340853423e-01 0.0000000000000000e+00  1.1611105946333298e+00 -3.8289237960809930e-01 0.0000000000000000e+00  1.1606127314556154e+00 -3.7071235874526909e-01 0.0000000000000000e+00  1.1601402365273321e+00 -3.5838526106298574e-01 0.0000000000000000e+00  1.1596925628831813e+00 -3.4592541196580912e-01 0.0000000000000000e+00  1.1592710811295455e+00 -3.3334715658720249e-01 0.0000000000000000e+00  1.1588742588326166e+00 -3.2066081044197792e-01 0.0000000000000000e+00  1.1585028227837717e+00 -3.0787740855496593e-01 0.0000000000000000e+00  1.1581547588984513e+00 -2.9500470998745182e-01 0.0000000000000000e+00  1.1578305201081902e+00 -2.8205154332529475e-01 0.0000000000000000e+00  1.1575278890246217e+00 -2.6902397006040668e-01 0.0000000000000000e+00  1.1572472462036609e+00 -2.5592927299936480e-01 0.0000000000000000e+00  1.1569863230372588e+00 -2.4277234334168921e-01 0.0000000000000000e+00  1.1567455346930475e+00 -2.2955932947985894e-01 0.0000000000000000e+00  1.1565226424832618e+00 -2.1629429096307534e-01 0.0000000000000000e+00  1.1563181501699553e+00 -2.0298250991669028e-01 0.0000000000000000e+00  1.1561298903826911e+00 -1.8962744301135495e-01 0.0000000000000000e+00  1.1559584799638050e+00 -1.7623368995552816e-01 0.0000000000000000e+00  1.1558018422678240e+00 -1.6280426748009805e-01 0.0000000000000000e+00  1.1556607156194929e+00 -1.4934322571748482e-01 0.0000000000000000e+00  1.1555331216780209e+00 -1.3585326363756495e-01 0.0000000000000000e+00  1.1554199202531616e+00 -1.2233798285001558e-01 0.0000000000000000e+00  1.1553192328945399e+00 -1.0879986060981586e-01 0.0000000000000000e+00  1.1552320369061928e+00 -9.5242130706013894e-02 0.0000000000000000e+00  1.1551565526699059e+00 -8.1667127420329708e-02 0.0000000000000000e+00  1.1550938695197541e+00 -6.8077784161369045e-02 0.0000000000000000e+00  1.1550423048847354e+00 -5.4476359259704087e-02 0.0000000000000000e+00  1.1550030546209211e+00 -4.0865544563012363e-02 0.0000000000000000e+00  1.1549745317802691e+00 -2.7247581515591607e-02 0.0000000000000000e+00  1.1549580339855066e+00 -1.3624973858460227e-02 0.0000000000000000e+00  1.1549520694505968e+00 0.0000000000000000e+00 0.0000000000000000e+00  </DataArray> 
</PointData> 
</Piece>
</UnstructuredGrid>
</VTKFile>