<?xml version="1.0"?>
<VTKFile type="UnstructuredGrid"  version="0.1"  >
<UnstructuredGrid>
<Piece  NumberOfPoints="201" NumberOfCells="200">
<Points>
<DataArray  type="Float64"  NumberOfComponents="3"  format="ascii">-5 0 0  -4.95 0 0  -4.9 0 0  -4.85 0 0  -4.8 0 0  -4.75 0 0  -4.7 0 0  -4.65 0 0  -4.6 0 0  -4.55 0 0  -4.5 0 0  -4.45 0 0  -4.4 0 0  -4.35 0 0  -4.3 0 0  -4.25 0 0  -4.2 0 0  -4.15 0 0  -4.1 0 0  -4.05 0 0  -4 0 0  -3.95 0 0  -3.9 0 0  -3.85 0 0  -3.8 0 0  -3.75 0 0  -3.7 0 0  -3.65 0 0  -3.6 0 0  -3.55 0 0  -3.5 0 0  -3.45 0 0  -3.4 0 0  -3.35 0 0  -3.3 0 0  -3.25 0 0  -3.2 0 0  -3.15 0 0  -3.1 0 0  -3.05 0 0  -3 0 0  -2.95 0 0  -2.9 0 0  -2.85 0 0  -2.8 0 0  -2.75 0 0  -2.7 0 0  -2.65 0 0  -2.6 0 0  -2.55 0 0  -2.5 0 0  -2.45 0 0  -2.4 0 0  -2.35 0 0  -2.3 0 0  -2.25 0 0  -2.2 0 0  -2.15 0 0  -2.1 0 0  -2.05 0 0  -2 0 0  -1.95 0 0  -1.9 0 0  -1.85 0 0  -1.8 0 0  -1.75 0 0  -1.7 0 0  -1.65 0 0  -1.6 0 0  -1.55 0 0  -1.5 0 0  -1.45 0 0  -1.4 0 0  -1.35 0 0  -1.3 0 0  -1.25 0 0  -1.2 0 0  -1.15 0 0  -1.1 0 0  -1.05 0 0  -1 0 0  -0.9500000000000002 0 0  -0.9000000000000004 0 0  -0.8499999999999996 0 0  -0.7999999999999998 0 0  -0.75 0 0  -0.7000000000000002 0 0  -0.6500000000000004 0 0  -0.5999999999999996 0 0  -0.5499999999999998 0 0  -0.5 0 0  -0.4500000000000002 0 0  -0.4000000000000004 0 0  -0.3499999999999996 0 0  -0.2999999999999998 0 0  -0.25 0 0  -0.2000000000000002 0 0  -0.1500000000000004 0 0  -0.09999999999999964 0 0  -0.04999999999999982 0 0  0 0 0  0.04999999999999982 0 0  0.09999999999999964 0 0  0.1500000000000004 0 0  0.2000000000000002 0 0  0.25 0 0  0.2999999999999998 0 0  0.3499999999999996 0 0  0.4000000000000004 0 0  0.4500000000000002 0 0  0.5 0 0  0.5499999999999998 0 0  0.5999999999999996 0 0  0.6500000000000004 0 0  0.7000000000000002 0 0  0.75 0 0  0.7999999999999998 0 0  0.8499999999999996 0 0  0.9000000000000004 0 0  0.9500000000000002 0 0  1 0 0  1.05 0 0  1.1 0 0  1.15 0 0  1.2 0 0  1.25 0 0  1.3 0 0  1.35 0 0  1.4 0 0  1.45 0 0  1.5 0 0  1.55 0 0  1.6 0 0  1.65 0 0  1.7 0 0  1.75 0 0  1.8 0 0  1.85 0 0  1.9 0 0  1.95 0 0  2 0 0  2.05 0 0  2.1 0 0  2.15 0 0  2.2 0 0  2.25 0 0  2.3 0 0  2.35 0 0  2.4 0 0  2.45 0 0  2.5 0 0  2.55 0 0  2.6 0 0  2.65 0 0  2.7 0 0  2.75 0 0  2.8 0 0  2.85 0 0  2.9 0 0  2.95 0 0  3 0 0  3.050000000000001 0 0  3.1 0 0  3.15 0 0  3.199999999999999 0 0  3.25 0 0  3.300000000000001 0 0  3.35 0 0  3.4 0 0  3.449999999999999 0 0  3.5 0 0  3.550000000000001 0 0  3.6 0 0  3.65 0 0  3.699999999999999 0 0  3.75 0 0  3.800000000000001 0 0  3.85 0 0  3.9 0 0  3.949999999999999 0 0  4 0 0  4.050000000000001 0 0  4.1 0 0  4.15 0 0  4.199999999999999 0 0  4.25 0 0  4.300000000000001 0 0  4.35 0 0  4.4 0 0  4.449999999999999 0 0  4.5 0 0  4.550000000000001 0 0  4.6 0 0  4.65 0 0  4.699999999999999 0 0  4.75 0 0  4.800000000000001 0 0  4.85 0 0  4.9 0 0  4.949999999999999 0 0  5 0 0  </DataArray>
</Points>
<Cells>
<DataArray  type="UInt32"  Name="connectivity"  format="ascii">0 1  1 2  2 3  3 4  4 5  5 6  6 7  7 8  8 9  9 10  10 11  11 12  12 13  13 14  14 15  15 16  16 17  17 18  18 19  19 20  20 21  21 22  22 23  23 24  24 25  25 26  26 27  27 28  28 29  29 30  30 31  31 32  32 33  33 34  34 35  35 36  36 37  37 38  38 39  39 40  40 41  41 42  42 43  43 44  44 45  45 46  46 47  47 48  48 49  49 50  50 51  51 52  52 53  53 54  54 55  55 56  56 57  57 58  58 59  59 60  60 61  61 62  62 63  63 64  64 65  65 66  66 67  67 68  68 69  69 70  70 71  71 72  72 73  73 74  74 75  75 76  76 77  77 78  78 79  79 80  80 81  81 82  82 83  83 84  84 85  85 86  86 87  87 88  88 89  89 90  90 91  91 92  92 93  93 94  94 95  95 96  96 97  97 98  98 99  99 100  100 101  101 102  102 103  103 104  104 105  105 106  106 107  107 108  108 109  109 110  110 111  111 112  112 113  113 114  114 115  115 116  116 117  117 118  118 119  119 120  120 121  121 122  122 123  123 124  124 125  125 126  126 127  127 128  128 129  129 130  130 131  131 132  132 133  133 134  134 135  135 136  136 137  137 138  138 139  139 140  140 141  141 142  142 143  143 144  144 145  145 146  146 147  147 148  148 149  149 150  150 151  151 152  152 153  153 154  154 155  155 156  156 157  157 158  158 159  159 160  160 161  161 162  162 163  163 164  164 165  165 166  166 167  167 168  168 169  169 170  170 171  171 172  172 173  173 174  174 175  175 176  176 177  177 178  178 179  179 180  180 181  181 182  182 183  183 184  184 185  185 186  186 187  187 188  188 189  189 190  190 191  191 192  192 193  193 194  194 195  195 196  196 197  197 198  198 199  199 200  </DataArray>
<DataArray  type="UInt32"  Name="offsets"  format="ascii">2 4 6 8 10 12 14 16 18 20 22 24 26 28 30 32 34 36 38 40 42 44 46 48 50 52 54 56 58 60 62 64 66 68 70 72 74 76 78 80 82 84 86 88 90 92 94 96 98 100 102 104 106 108 110 112 114 116 118 120 122 124 126 128 130 132 134 136 138 140 142 144 146 148 150 152 154 156 158 160 162 164 166 168 170 172 174 176 178 180 182 184 186 188 190 192 194 196 198 200 202 204 206 208 210 212 214 216 218 220 222 224 226 228 230 232 234 236 238 240 242 244 246 248 250 252 254 256 258 260 262 264 266 268 270 272 274 276 278 280 282 284 286 288 290 292 294 296 298 300 302 304 306 308 310 312 314 316 318 320 322 324 326 328 330 332 334 336 338 340 342 344 346 348 350 352 354 356 358 360 362 364 366 368 370 372 374 376 378 380 382 384 386 388 390 392 394 396 398 400 </DataArray>
<DataArray  type="UInt8"  Name="types"  format="ascii">3 3 3 3 3 3 3 3 3 3 3 3 3 3 3 3 3 3 3 3 3 3 3 3 3 3 3 3 3 3 3 3 3 3 3 3 3 3 3 3 3 3 3 3 3 3 3 3 3 3 3 3 3 3 3 3 3 3 3 3 3 3 3 3 3 3 3 3 3 3 3 3 3 3 3 3 3 3 3 3 3 3 3 3 3 3 3 3 3 3 3 3 3 3 3 3 3 3 3 3 3 3 3 3 3 3 3 3 3 3 3 3 3 3 3 3 3 3 3 3 3 3 3 3 3 3 3 3 3 3 3 3 3 3 3 3 3 3 3 3 3 3 3 3 3 3 3 3 3 3 3 3 3 3 3 3 3 3 3 3 3 3 3 3 3 3 3 3 3 3 3 3 3 3 3 3 3 3 3 3 3 3 3 3 3 3 3 3 3 3 3 3 3 3 3 3 3 3 3 3 </DataArray>
</Cells>
<PointData  Vectors="(h, u)"> 
<DataArray  type="Float64"  Name="(h, u)"  NumberOfComponents="3" format="ascii">1.1976061796529249e+00 0.0000000000000000e+00 0.0000000000000000e+00  1.1976094118535292e+00 1.4352949564100652e-02 0.0000000000000000e+00  1.1976182368078794e+00 2.8704099115226398e-02 0.0000000000000000e+00  1.1976335536012626e+00 4.3051741126005252e-02 0.0000000000000000e+00  1.1976545174261786e+00 5.7393913260955415e-02 0.0000000000000000e+00  1.1976820499883889e+00 7.1728928368397671e-02 0.0000000000000000e+00  1.1977153268842893e+00 8.6054583778816807e-02 0.0000000000000000e+00  1.1977552808445522e+00 1.0036912715593736e-01 0.0000000000000000e+00  1.1978010932390541e+00 1.1467001665768557e-01 0.0000000000000000e+00  1.1978536858497097e+00 1.2895532066236148e-01 0.0000000000000000e+00  1.1979122179077866e+00 1.4322201992955153e-01 0.0000000000000000e+00  1.1979775608453720e+00 1.5746783736648631e-01 0.0000000000000000e+00  1.1980488010040982e+00 1.7168906847658158e-01 0.0000000000000000e+00  1.1981266897208631e+00 1.8588283290527524e-01 0.0000000000000000e+00  1.1982101495092530e+00 2.0004441153527502e-01 0.0000000000000000e+00  1.1982996882096109e+00 2.1416990258106541e-01 0.0000000000000000e+00  1.1983939020816101e+00 2.2825303008038153e-01 0.0000000000000000e+00  1.1984928363286609e+00 2.4228817012925449e-01 0.0000000000000000e+00  1.1985944703835947e+00 2.5626657128636204e-01 0.0000000000000000e+00  1.1986979955180510e+00 2.7017968425892780e-01 0.0000000000000000e+00  1.1988002523168921e+00 2.8401469043956928e-01 0.0000000000000000e+00  1.1988988747541378e+00 2.9775800782249950e-01 0.0000000000000000e+00  1.1989886210872693e+00 3.1138994141031984e-01 0.0000000000000000e+00  1.1990642940504592e+00 3.2488812425338942e-01 0.0000000000000000e+00  1.1991168522187821e+00 3.3822094841629147e-01 0.0000000000000000e+00  1.1991359418655783e+00 3.5135048620538800e-01 0.0000000000000000e+00  1.1991055752414750e+00 3.6422407142567814e-01 0.0000000000000000e+00  1.1990059752132185e+00 3.7677585485771725e-01 0.0000000000000000e+00  1.1988084305128186e+00 3.8891539371719902e-01 0.0000000000000000e+00  1.1984759335074506e+00 4.0052634265391784e-01 0.0000000000000000e+00  1.1979565630857685e+00 4.1145013630895239e-01 0.0000000000000000e+00  1.1971821353255896e+00 4.2147950200735268e-01 0.0000000000000000e+00  1.1960592893376325e+00 4.3033470660177897e-01 0.0000000000000000e+00  1.1944654826683787e+00 4.3764968025636891e-01 0.0000000000000000e+00  1.1922377308934717e+00 4.4294017169644051e-01 0.0000000000000000e+00  1.1891674109204717e+00 4.4558579295645978e-01 0.0000000000000000e+00  1.1849911737612453e+00 4.4480171983683636e-01 0.0000000000000000e+00  1.1793945491611870e+00 4.3964348565683148e-01 0.0000000000000000e+00  1.1720235053011070e+00 4.2903353815436407e-01 0.0000000000000000e+00  1.1625262219894312e+00 4.1187301414627325e-01 0.0000000000000000e+00  1.1506234954548262e+00 3.8723839906838542e-01 0.0000000000000000e+00  1.1362225414929230e+00 3.5471389854780044e-01 0.0000000000000000e+00  1.1195433619765660e+00 3.1478067921361319e-01 0.0000000000000000e+00  1.1012166494734075e+00 2.6915168606195750e-01 0.0000000000000000e+00  1.0822623476717712e+00 2.2077258444816941e-01 0.0000000000000000e+00  1.0639090154808259e+00 1.7333475037003265e-01 0.0000000000000000e+00  1.0472861777062925e+00 1.3035251859299693e-01 0.0000000000000000e+00  1.0331486222619553e+00 9.4275996509999113e-02 0.0000000000000000e+00  1.0217598405612940e+00 6.6063552616613189e-02 0.0000000000000000e+00  1.0129698902038820e+00 4.5369502637450751e-02 0.0000000000000000e+00  1.0063847855441546e+00 3.1048905523582492e-02 0.0000000000000000e+00  1.0015365007207042e+00 2.1689604130583802e-02 0.0000000000000000e+00  9.9798702456137955e-01 1.5948051798891246e-02 0.0000000000000000e+00  9.9537910550213515e-01 1.2719515671069877e-02 0.0000000000000000e+00  9.9344056433576977e-01 1.1158698745751578e-02 0.0000000000000000e+00  9.9197663315510398e-01 1.0661369610445195e-02 0.0000000000000000e+00  9.9084981514619108e-01 1.0802721780669924e-02 0.0000000000000000e+00  9.8996729469567513e-01 1.1300599220012041e-02 0.0000000000000000e+00  9.8926467008941865e-01 1.1963554147171164e-02 0.0000000000000000e+00  9.8869963187151622e-01 1.2673029307540162e-02 0.0000000000000000e+00  9.8824187244980333e-01 1.3349720230631967e-02 0.0000000000000000e+00  9.8787163124033905e-01 1.3951010450295840e-02 0.0000000000000000e+00  9.8757336633593740e-01 1.4448494420764724e-02 0.0000000000000000e+00  9.8733683281402029e-01 1.4833506059569996e-02 0.0000000000000000e+00  9.8715264230263544e-01 1.5100108512020191e-02 0.0000000000000000e+00  9.8701447404290399e-01 1.5254364426184176e-02 0.0000000000000000e+00  9.8691553394487719e-01 1.5299839383028199e-02 0.0000000000000000e+00  9.8685120849721775e-01 1.5248471963148366e-02 0.0000000000000000e+00  9.8681595882532525e-01 1.5107279462948910e-02 0.0000000000000000e+00  9.8680609928935847e-01 1.4889840504276164e-02 0.0000000000000000e+00  9.8681691804550586e-01 1.4603683963724646e-02 0.0000000000000000e+00  9.8684543768672928e-01 1.4261922793196503e-02 0.0000000000000000e+00  9.8688767210025796e-01 1.3871153131621069e-02 0.0000000000000000e+00  9.8694130780848699e-01 1.3442998139249197e-02 0.0000000000000000e+00  9.8700306128468118e-01 1.2982483809340119e-02 0.0000000000000000e+00  9.8707125794208816e-01 1.2499337033033044e-02 0.0000000000000000e+00  9.8714327898001841e-01 1.1996856622649002e-02 0.0000000000000000e+00  9.8721803316234757e-01 1.1482841849071345e-02 0.0000000000000000e+00  9.8729349285038714e-01 1.0958996138794584e-02 0.0000000000000000e+00  9.8736906189823315e-01 1.0431376807840917e-02 0.0000000000000000e+00  9.8744320367371718e-01 9.9003775212107518e-03 0.0000000000000000e+00  9.8751571141503036e-01 9.3706007079885530e-03 0.0000000000000000e+00  9.8758543032706847e-01 8.8414708754886301e-03 0.0000000000000000e+00  9.8765243727797980e-01 8.3164420372826339e-03 0.0000000000000000e+00  9.8771585662037864e-01 7.7942986841385226e-03 0.0000000000000000e+00  9.8777595577496180e-01 7.2776214808278504e-03 0.0000000000000000e+00  9.8783205156326526e-01 6.7648354580154045e-03 0.0000000000000000e+00  9.8788452793535875e-01 6.2578674140991025e-03 0.0000000000000000e+00  9.8793282700857810e-01 5.7550010294575389e-03 0.0000000000000000e+00  9.8797739533375917e-01 5.2576683784819611e-03 0.0000000000000000e+00  9.8801775177804152e-01 4.7641690677099838e-03 0.0000000000000000e+00  9.8805436933074720e-01 4.2755460938922133e-03 0.0000000000000000e+00  9.8808681045419056e-01 3.7902211552380475e-03 0.0000000000000000e+00  9.8811555236833104e-01 3.3089121923201869e-03 0.0000000000000000e+00  9.8814017941452237e-01 2.8302303323128990e-03 0.0000000000000000e+00  9.8816116083626560e-01 2.3546033033891383e-03 0.0000000000000000e+00  9.8817808893473025e-01 1.8808716601492331e-03 0.0000000000000000e+00  9.8819141941124156e-01 1.4091892525712880e-03 0.0000000000000000e+00  9.8820074355123755e-01 9.3864793845281028e-04 0.0000000000000000e+00  9.8820650209380689e-01 4.6913363619885108e-04 0.0000000000000000e+00  9.8820827931871813e-01 1.4443223955578338e-15 0.0000000000000000e+00  9.8820650209380689e-01 -4.6913363619985511e-04 0.0000000000000000e+00  9.8820074355123744e-01 -9.3864793844950336e-04 0.0000000000000000e+00  9.8819141941124133e-01 -1.4091892525717065e-03 0.0000000000000000e+00  9.8817808893472991e-01 -1.8808716601458862e-03 0.0000000000000000e+00  9.8816116083626526e-01 -2.3546033033902021e-03 0.0000000000000000e+00  9.8814017941452181e-01 -2.8302303323101837e-03 0.0000000000000000e+00  9.8811555236833071e-01 -3.3089121923202190e-03 0.0000000000000000e+00  9.8808681045418978e-01 -3.7902211552352317e-03 0.0000000000000000e+00  9.8805436933074675e-01 -4.2755460938923781e-03 0.0000000000000000e+00  9.8801775177804096e-01 -4.7641690677077842e-03 0.0000000000000000e+00  9.8797739533375883e-01 -5.2576683784819299e-03 0.0000000000000000e+00  9.8793282700857765e-01 -5.7550010294556940e-03 0.0000000000000000e+00  9.8788452793535864e-01 -6.2578674140995345e-03 0.0000000000000000e+00  9.8783205156326481e-01 -6.7648354580142050e-03 0.0000000000000000e+00  9.8777595577496169e-01 -7.2776214808287516e-03 0.0000000000000000e+00  9.8771585662037842e-01 -7.7942986841382199e-03 0.0000000000000000e+00  9.8765243727797958e-01 -8.3164420372836556e-03 0.0000000000000000e+00  9.8758543032706847e-01 -8.8414708754892529e-03 0.0000000000000000e+00  9.8751571141503014e-01 -9.3706007079900951e-03 0.0000000000000000e+00  9.8744320367371718e-01 -9.9003775212120563e-03 0.0000000000000000e+00  9.8736906189823315e-01 -1.0431376807842872e-02 0.0000000000000000e+00  9.8729349285038737e-01 -1.0958996138795370e-02 0.0000000000000000e+00  9.8721803316234746e-01 -1.1482841849073366e-02 0.0000000000000000e+00  9.8714327898001875e-01 -1.1996856622649441e-02 0.0000000000000000e+00  9.8707125794208794e-01 -1.2499337033035341e-02 0.0000000000000000e+00  9.8700306128468129e-01 -1.2982483809340436e-02 0.0000000000000000e+00  9.8694130780848655e-01 -1.3442998139251280e-02 0.0000000000000000e+00  9.8688767210025807e-01 -1.3871153131621204e-02 0.0000000000000000e+00  9.8684543768672905e-01 -1.4261922793198111e-02 0.0000000000000000e+00  9.8681691804550598e-01 -1.4603683963723836e-02 0.0000000000000000e+00  9.8680609928935814e-01 -1.4889840504276898e-02 0.0000000000000000e+00  9.8681595882532536e-01 -1.5107279462947687e-02 0.0000000000000000e+00  9.8685120849721752e-01 -1.5248471963149299e-02 0.0000000000000000e+00  9.8691553394487752e-01 -1.5299839383026563e-02 0.0000000000000000e+00  9.8701447404290366e-01 -1.5254364426184646e-02 0.0000000000000000e+00  9.8715264230263589e-01 -1.5100108512018881e-02 0.0000000000000000e+00  9.8733683281401985e-01 -1.4833506059570982e-02 0.0000000000000000e+00  9.8757336633593795e-01 -1.4448494420765132e-02 0.0000000000000000e+00  9.8787163124033861e-01 -1.3951010450297452e-02 0.0000000000000000e+00  9.8824187244980388e-01 -1.3349720230633130e-02 0.0000000000000000e+00  9.8869963187151577e-01 -1.2673029307542893e-02 0.0000000000000000e+00  9.8926467008941898e-01 -1.1963554147172465e-02 0.0000000000000000e+00  9.8996729469567457e-01 -1.1300599220015216e-02 0.0000000000000000e+00  9.9084981514619141e-01 -1.0802721780670913e-02 0.0000000000000000e+00  9.9197663315510320e-01 -1.0661369610447568e-02 0.0000000000000000e+00  9.9344056433577010e-01 -1.1158698745752220e-02 0.0000000000000000e+00  9.9537910550213438e-01 -1.2719515671073489e-02 0.0000000000000000e+00  9.9798702456138011e-01 -1.5948051798891322e-02 0.0000000000000000e+00  1.0015365007207035e+00 -2.1689604130587726e-02 0.0000000000000000e+00  1.0063847855441552e+00 -3.1048905523582849e-02 0.0000000000000000e+00  1.0129698902038813e+00 -4.5369502637452902e-02 0.0000000000000000e+00  1.0217598405612944e+00 -6.6063552616612745e-02 0.0000000000000000e+00  1.0331486222619546e+00 -9.4275996510001236e-02 0.0000000000000000e+00  1.0472861777062932e+00 -1.3035251859299576e-01 0.0000000000000000e+00  1.0639090154808251e+00 -1.7333475037003401e-01 0.0000000000000000e+00  1.0822623476717721e+00 -2.2077258444816886e-01 0.0000000000000000e+00  1.1012166494734070e+00 -2.6915168606195838e-01 0.0000000000000000e+00  1.1195433619765669e+00 -3.1478067921361336e-01 0.0000000000000000e+00  1.1362225414929230e+00 -3.5471389854780200e-01 0.0000000000000000e+00  1.1506234954548269e+00 -3.8723839906838475e-01 0.0000000000000000e+00  1.1625262219894315e+00 -4.1187301414627492e-01 0.0000000000000000e+00  1.1720235053011077e+00 -4.2903353815436346e-01 0.0000000000000000e+00  1.1793945491611872e+00 -4.3964348565683342e-01 0.0000000000000000e+00  1.1849911737612460e+00 -4.4480171983683570e-01 0.0000000000000000e+00  1.1891674109204715e+00 -4.4558579295646078e-01 0.0000000000000000e+00  1.1922377308934715e+00 -4.4294017169643918e-01 0.0000000000000000e+00  1.1944654826683778e+00 -4.3764968025637047e-01 0.0000000000000000e+00  1.1960592893376321e+00 -4.3033470660177930e-01 0.0000000000000000e+00  1.1971821353255889e+00 -4.2147950200735451e-01 0.0000000000000000e+00  1.1979565630857680e+00 -4.1145013630895261e-01 0.0000000000000000e+00  1.1984759335074502e+00 -4.0052634265391923e-01 0.0000000000000000e+00  1.1988084305128182e+00 -3.8891539371719924e-01 0.0000000000000000e+00  1.1990059752132181e+00 -3.7677585485771864e-01 0.0000000000000000e+00  1.1991055752414748e+00 -3.6422407142567792e-01 0.0000000000000000e+00  1.1991359418655778e+00 -3.5135048620538900e-01 0.0000000000000000e+00  1.1991168522187821e+00 -3.3822094841629186e-01 0.0000000000000000e+00  1.1990642940504590e+00 -3.2488812425339059e-01 0.0000000000000000e+00  1.1989886210872691e+00 -3.1138994141031850e-01 0.0000000000000000e+00  1.1988988747541376e+00 -2.9775800782250111e-01 0.0000000000000000e+00  1.1988002523168919e+00 -2.8401469043956862e-01 0.0000000000000000e+00  1.1986979955180510e+00 -2.7017968425892736e-01 0.0000000000000000e+00  1.1985944703835947e+00 -2.5626657128636188e-01 0.0000000000000000e+00  1.1984928363286609e+00 -2.4228817012925380e-01 0.0000000000000000e+00  1.1983939020816099e+00 -2.2825303008038111e-01 0.0000000000000000e+00  1.1982996882096109e+00 -2.1416990258106378e-01 0.0000000000000000e+00  1.1982101495092528e+00 -2.0004441153527416e-01 0.0000000000000000e+00  1.1981266897208633e+00 -1.8588283290527394e-01 0.0000000000000000e+00  1.1980488010040982e+00 -1.7168906847658127e-01 0.0000000000000000e+00  1.1979775608453720e+00 -1.5746783736648506e-01 0.0000000000000000e+00  1.1979122179077859e+00 -1.4322201992955275e-01 0.0000000000000000e+00  1.1978536858497097e+00 -1.2895532066236112e-01 0.0000000000000000e+00  1.1978010932390537e+00 -1.1467001665768597e-01 0.0000000000000000e+00  1.1977552808445517e+00 -1.0036912715593661e-01 0.0000000000000000e+00  1.1977153268842886e+00 -8.6054583778817348e-02 0.0000000000000000e+00  1.1976820499883880e+00 -7.1728928368398268e-02 0.0000000000000000e+00  1.1976545174261779e+00 -5.7393913260955796e-02 0.0000000000000000e+00  1.1976335536012619e+00 -4.3051741126005939e-02 0.0000000000000000e+00  1.1976182368078789e+00 -2.8704099115227834e-02 0.0000000000000000e+00  1.1976094118535290e+00 -1.4352949564101035e-02 0.0000000000000000e+00  1.1976061796529243e+00 0.0000000000000000e+00 0.0000000000000000e+00  </DataArray> 
</PointData> 
</Piece>
</UnstructuredGrid>
</VTKFile>