<?xml version="1.0"?>
<VTKFile type="UnstructuredGrid"  version="0.1"  >
<UnstructuredGrid>
<Piece  NumberOfPoints="201" NumberOfCells="200">
<Points>
<DataArray  type="Float64"  NumberOfComponents="3"  format="ascii">-5 0 0  -4.95 0 0  -4.9 0 0  -4.85 0 0  -4.8 0 0  -4.75 0 0  -4.7 0 0  -4.65 0 0  -4.6 0 0  -4.55 0 0  -4.5 0 0  -4.45 0 0  -4.4 0 0  -4.35 0 0  -4.3 0 0  -4.25 0 0  -4.2 0 0  -4.15 0 0  -4.1 0 0  -4.05 0 0  -4 0 0  -3.95 0 0  -3.9 0 0  -3.85 0 0  -3.8 0 0  -3.75 0 0  -3.7 0 0  -3.65 0 0  -3.6 0 0  -3.55 0 0  -3.5 0 0  -3.45 0 0  -3.4 0 0  -3.35 0 0  -3.3 0 0  -3.25 0 0  -3.2 0 0  -3.15 0 0  -3.1 0 0  -3.05 0 0  -3 0 0  -2.95 0 0  -2.9 0 0  -2.85 0 0  -2.8 0 0  -2.75 0 0  -2.7 0 0  -2.65 0 0  -2.6 0 0  -2.55 0 0  -2.5 0 0  -2.45 0 0  -2.4 0 0  -2.35 0 0  -2.3 0 0  -2.25 0 0  -2.2 0 0  -2.15 0 0  -2.1 0 0  -2.05 0 0  -2 0 0  -1.95 0 0  -1.9 0 0  -1.85 0 0  -1.8 0 0  -1.75 0 0  -1.7 0 0  -1.65 0 0  -1.6 0 0  -1.55 0 0  -1.5 0 0  -1.45 0 0  -1.4 0 0  -1.35 0 0  -1.3 0 0  -1.25 0 0  -1.2 0 0  -1.15 0 0  -1.1 0 0  -1.05 0 0  -1 0 0  -0.9500000000000002 0 0  -0.9000000000000004 0 0  -0.8499999999999996 0 0  -0.7999999999999998 0 0  -0.75 0 0  -0.7000000000000002 0 0  -0.6500000000000004 0 0  -0.5999999999999996 0 0  -0.5499999999999998 0 0  -0.5 0 0  -0.4500000000000002 0 0  -0.4000000000000004 0 0  -0.3499999999999996 0 0  -0.2999999999999998 0 0  -0.25 0 0  -0.2000000000000002 0 0  -0.1500000000000004 0 0  -0.09999999999999964 0 0  -0.04999999999999982 0 0  0 0 0  0.04999999999999982 0 0  0.09999999999999964 0 0  0.1500000000000004 0 0  0.2000000000000002 0 0  0.25 0 0  0.2999999999999998 0 0  0.3499999999999996 0 0  0.4000000000000004 0 0  0.4500000000000002 0 0  0.5 0 0  0.5499999999999998 0 0  0.5999999999999996 0 0  0.6500000000000004 0 0  0.7000000000000002 0 0  0.75 0 0  0.7999999999999998 0 0  0.8499999999999996 0 0  0.9000000000000004 0 0  0.9500000000000002 0 0  1 0 0  1.05 0 0  1.1 0 0  1.15 0 0  1.2 0 0  1.25 0 0  1.3 0 0  1.35 0 0  1.4 0 0  1.45 0 0  1.5 0 0  1.55 0 0  1.6 0 0  1.65 0 0  1.7 0 0  1.75 0 0  1.8 0 0  1.85 0 0  1.9 0 0  1.95 0 0  2 0 0  2.05 0 0  2.1 0 0  2.15 0 0  2.2 0 0  2.25 0 0  2.3 0 0  2.35 0 0  2.4 0 0  2.45 0 0  2.5 0 0  2.55 0 0  2.6 0 0  2.65 0 0  2.7 0 0  2.75 0 0  2.8 0 0  2.85 0 0  2.9 0 0  2.95 0 0  3 0 0  3.050000000000001 0 0  3.1 0 0  3.15 0 0  3.199999999999999 0 0  3.25 0 0  3.300000000000001 0 0  3.35 0 0  3.4 0 0  3.449999999999999 0 0  3.5 0 0  3.550000000000001 0 0  3.6 0 0  3.65 0 0  3.699999999999999 0 0  3.75 0 0  3.800000000000001 0 0  3.85 0 0  3.9 0 0  3.949999999999999 0 0  4 0 0  4.050000000000001 0 0  4.1 0 0  4.15 0 0  4.199999999999999 0 0  4.25 0 0  4.300000000000001 0 0  4.35 0 0  4.4 0 0  4.449999999999999 0 0  4.5 0 0  4.550000000000001 0 0  4.6 0 0  4.65 0 0  4.699999999999999 0 0  4.75 0 0  4.800000000000001 0 0  4.85 0 0  4.9 0 0  4.949999999999999 0 0  5 0 0  </DataArray>
</Points>
<Cells>
<DataArray  type="UInt32"  Name="connectivity"  format="ascii">0 1  1 2  2 3  3 4  4 5  5 6  6 7  7 8  8 9  9 10  10 11  11 12  12 13  13 14  14 15  15 16  16 17  17 18  18 19  19 20  20 21  21 22  22 23  23 24  24 25  25 26  26 27  27 28  28 29  29 30  30 31  31 32  32 33  33 34  34 35  35 36  36 37  37 38  38 39  39 40  40 41  41 42  42 43  43 44  44 45  45 46  46 47  47 48  48 49  49 50  50 51  51 52  52 53  53 54  54 55  55 56  56 57  57 58  58 59  59 60  60 61  61 62  62 63  63 64  64 65  65 66  66 67  67 68  68 69  69 70  70 71  71 72  72 73  73 74  74 75  75 76  76 77  77 78  78 79  79 80  80 81  81 82  82 83  83 84  84 85  85 86  86 87  87 88  88 89  89 90  90 91  91 92  92 93  93 94  94 95  95 96  96 97  97 98  98 99  99 100  100 101  101 102  102 103  103 104  104 105  105 106  106 107  107 108  108 109  109 110  110 111  111 112  112 113  113 114  114 115  115 116  116 117  117 118  118 119  119 120  120 121  121 122  122 123  123 124  124 125  125 126  126 127  127 128  128 129  129 130  130 131  131 132  132 133  133 134  134 135  135 136  136 137  137 138  138 139  139 140  140 141  141 142  142 143  143 144  144 145  145 146  146 147  147 148  148 149  149 150  150 151  151 152  152 153  153 154  154 155  155 156  156 157  157 158  158 159  159 160  160 161  161 162  162 163  163 164  164 165  165 166  166 167  167 168  168 169  169 170  170 171  171 172  172 173  173 174  174 175  175 176  176 177  177 178  178 179  179 180  180 181  181 182  182 183  183 184  184 185  185 186  186 187  187 188  188 189  189 190  190 191  191 192  192 193  193 194  194 195  195 196  196 197  197 198  198 199  199 200  </DataArray>
<DataArray  type="UInt32"  Name="offsets"  format="ascii">2 4 6 8 10 12 14 16 18 20 22 24 26 28 30 32 34 36 38 40 42 44 46 48 50 52 54 56 58 60 62 64 66 68 70 72 74 76 78 80 82 84 86 88 90 92 94 96 98 100 102 104 106 108 110 112 114 116 118 120 122 124 126 128 130 132 134 136 138 140 142 144 146 148 150 152 154 156 158 160 162 164 166 168 170 172 174 176 178 180 182 184 186 188 190 192 194 196 198 200 202 204 206 208 210 212 214 216 218 220 222 224 226 228 230 232 234 236 238 240 242 244 246 248 250 252 254 256 258 260 262 264 266 268 270 272 274 276 278 280 282 284 286 288 290 292 294 296 298 300 302 304 306 308 310 312 314 316 318 320 322 324 326 328 330 332 334 336 338 340 342 344 346 348 350 352 354 356 358 360 362 364 366 368 370 372 374 376 378 380 382 384 386 388 390 392 394 396 398 400 </DataArray>
<DataArray  type="UInt8"  Name="types"  format="ascii">3 3 3 3 3 3 3 3 3 3 3 3 3 3 3 3 3 3 3 3 3 3 3 3 3 3 3 3 3 3 3 3 3 3 3 3 3 3 3 3 3 3 3 3 3 3 3 3 3 3 3 3 3 3 3 3 3 3 3 3 3 3 3 3 3 3 3 3 3 3 3 3 3 3 3 3 3 3 3 3 3 3 3 3 3 3 3 3 3 3 3 3 3 3 3 3 3 3 3 3 3 3 3 3 3 3 3 3 3 3 3 3 3 3 3 3 3 3 3 3 3 3 3 3 3 3 3 3 3 3 3 3 3 3 3 3 3 3 3 3 3 3 3 3 3 3 3 3 3 3 3 3 3 3 3 3 3 3 3 3 3 3 3 3 3 3 3 3 3 3 3 3 3 3 3 3 3 3 3 3 3 3 3 3 3 3 3 3 3 3 3 3 3 3 3 3 3 3 3 3 </DataArray>
</Cells>
<PointData  Vectors="(h, u)"> 
<DataArray  type="Float64"  Name="(h, u)"  NumberOfComponents="3" format="ascii">9.8945605841977446e-01 0.0000000000000000e+00 0.0000000000000000e+00  9.8945472183696792e-01 -4.2274627978730248e-04 0.0000000000000000e+00  9.8944962567987527e-01 -8.4575862446994781e-04 0.0000000000000000e+00  9.8944184488112141e-01 -1.2696764102287943e-03 0.0000000000000000e+00  9.8943028503852637e-01 -1.6943968222371620e-03 0.0000000000000000e+00  9.8941600599604262e-01 -2.1209343226480369e-03 0.0000000000000000e+00  9.8939790863570942e-01 -2.5488243606005627e-03 0.0000000000000000e+00  9.8937703404501076e-01 -2.9794556534643800e-03 0.0000000000000000e+00  9.8935228139262921e-01 -3.4120118155818151e-03 0.0000000000000000e+00  9.8932466936292218e-01 -3.8482524170404811e-03 0.0000000000000000e+00  9.8929309808308252e-01 -4.2870218985105275e-03 0.0000000000000000e+00  9.8925856029850401e-01 -4.7304446845696886e-03 0.0000000000000000e+00  9.8921995942428409e-01 -5.1770413334211183e-03 0.0000000000000000e+00  9.8917825898465817e-01 -5.6292923253049628e-03 0.0000000000000000e+00  9.8913236777266988e-01 -6.0854117666277853e-03 0.0000000000000000e+00  9.8908321736632443e-01 -6.5482238742330841e-03 0.0000000000000000e+00  9.8902972417774615e-01 -7.0156544741046883e-03 0.0000000000000000e+00  9.8897278638933228e-01 -7.4908536504566508e-03 0.0000000000000000e+00  9.8891133147901389e-01 -7.9714743617551390e-03 0.0000000000000000e+00  9.8884622572480940e-01 -8.4609641320038467e-03 0.0000000000000000e+00  9.8877641477245892e-01 -8.9567077975877003e-03 0.0000000000000000e+00  9.8870274100392119e-01 -9.4624003123955185e-03 0.0000000000000000e+00  9.8862418405675168e-01 -9.9751362930673628e-03 0.0000000000000000e+00  9.8854158390182723e-01 -1.0498764853425605e-02 0.0000000000000000e+00  9.8845398805429918e-01 -1.1030011779006024e-02 0.0000000000000000e+00  9.8836228108731827e-01 -1.1572706086364201e-02 0.0000000000000000e+00  9.8826564546476514e-01 -1.2123021661535250e-02 0.0000000000000000e+00  9.8816510100464094e-01 -1.2684455364513694e-02 0.0000000000000000e+00  9.8806008617071106e-01 -1.3252275770781179e-02 0.0000000000000000e+00  9.8795191266018101e-01 -1.3829127422709125e-02 0.0000000000000000e+00  9.8784047226331473e-01 -1.4408779128118354e-02 0.0000000000000000e+00  9.8772761060943737e-01 -1.4992233740560556e-02 0.0000000000000000e+00  9.8761395948235786e-01 -1.5570883137109373e-02 0.0000000000000000e+00  9.8750222804618792e-01 -1.6143023339428370e-02 0.0000000000000000e+00  9.8739415039916612e-01 -1.6696552242866661e-02 0.0000000000000000e+00  9.8729368186591659e-01 -1.7225827477153868e-02 0.0000000000000000e+00  9.8720403744926688e-01 -1.7714083565984810e-02 0.0000000000000000e+00  9.8713076782325149e-01 -1.8150615908353127e-02 0.0000000000000000e+00  9.8707885105884197e-01 -1.8513131126980786e-02 0.0000000000000000e+00  9.8705561483227278e-01 -1.8785272699568836e-02 0.0000000000000000e+00  9.8706783990074665e-01 -1.8939124951120156e-02 0.0000000000000000e+00  9.8712450089128878e-01 -1.8953085251137886e-02 0.0000000000000000e+00  9.8723385349275672e-01 -1.8794693341459990e-02 0.0000000000000000e+00  9.8740599111714855e-01 -1.8438785679358808e-02 0.0000000000000000e+00  9.8764991901013499e-01 -1.7850717517509593e-02 0.0000000000000000e+00  9.8797596250989372e-01 -1.7004626304274337e-02 0.0000000000000000e+00  9.8839286875230359e-01 -1.5866994733889056e-02 0.0000000000000000e+00  9.8891013803552774e-01 -1.4414760152946527e-02 0.0000000000000000e+00  9.8953521978670156e-01 -1.2619101526083001e-02 0.0000000000000000e+00  9.9027585622164094e-01 -1.0463130130469917e-02 0.0000000000000000e+00  9.9113744541966986e-01 -7.9258335978129556e-03 0.0000000000000000e+00  9.9212548892534624e-01 -4.9992181261250736e-03 0.0000000000000000e+00  9.9324319936294903e-01 -1.6725469105192169e-03 0.0000000000000000e+00  9.9449416756725473e-01 2.0508815663526341e-03 0.0000000000000000e+00  9.9588035504393679e-01 6.1686296367818704e-03 0.0000000000000000e+00  9.9740523195302311e-01 1.0661874201648488e-02 0.0000000000000000e+00  9.9907255098014536e-01 1.5507904786088772e-02 0.0000000000000000e+00  1.0008906594551232e+00 2.0660060305039880e-02 0.0000000000000000e+00  1.0028732144818868e+00 2.6053900698925329e-02 0.0000000000000000e+00  1.0050466186503870e+00 3.1578148189971005e-02 0.0000000000000000e+00  1.0074558083432605e+00 3.7064632997922127e-02 0.0000000000000000e+00  1.0101797371585126e+00 4.2235094546070072e-02 0.0000000000000000e+00  1.0133495082920763e+00 4.6652679764999920e-02 0.0000000000000000e+00  1.0171816254418538e+00 4.9615544500560542e-02 0.0000000000000000e+00  1.0220186118366537e+00 5.0040709204125261e-02 0.0000000000000000e+00  1.0283828096654304e+00 4.6300601569157433e-02 0.0000000000000000e+00  1.0370144553318654e+00 3.6125566854014947e-02 0.0000000000000000e+00  1.0488535333160334e+00 1.6682803135704902e-02 0.0000000000000000e+00  1.0648696869983085e+00 -1.4856990637897683e-02 0.0000000000000000e+00  1.0856770881700253e+00 -6.0110763919190915e-02 0.0000000000000000e+00  1.1110072386860119e+00 -1.1790125313574697e-01 0.0000000000000000e+00  1.1393966689645716e+00 -1.8346676569598366e-01 0.0000000000000000e+00  1.1684698234853343e+00 -2.4954797544609011e-01 0.0000000000000000e+00  1.1957629006430301e+00 -3.0899322665161955e-01 0.0000000000000000e+00  1.2195145190682171e+00 -3.5701121560656668e-01 0.0000000000000000e+00  1.2389646719251264e+00 -3.9183086554895463e-01 0.0000000000000000e+00  1.2541797109153747e+00 -4.1400771586543555e-01 0.0000000000000000e+00  1.2657013621818296e+00 -4.2534201114883174e-01 0.0000000000000000e+00  1.2742373842098964e+00 -4.2799581657583630e-01 0.0000000000000000e+00  1.2804757922855634e+00 -4.2400011960272094e-01 0.0000000000000000e+00  1.2849993875157675e+00 -4.1504254784496736e-01 0.0000000000000000e+00  1.2882678933909981e+00 -4.0244087111099375e-01 0.0000000000000000e+00  1.2906269012082918e+00 -3.8717956026092004e-01 0.0000000000000000e+00  1.2923310084967514e+00 -3.6998269539863005e-01 0.0000000000000000e+00  1.2935636030255897e+00 -3.5137206257149139e-01 0.0000000000000000e+00  1.2944572824534262e+00 -3.3172619066671150e-01 0.0000000000000000e+00  1.2951061666627086e+00 -3.1131558260021724e-01 0.0000000000000000e+00  1.2955785822610437e+00 -2.9033791947410093e-01 0.0000000000000000e+00  1.2959226652348392e+00 -2.6893477436690488e-01 0.0000000000000000e+00  1.2961739745377927e+00 -2.4721153625868258e-01 0.0000000000000000e+00  1.2963572364770251e+00 -2.2524410012797938e-01 0.0000000000000000e+00  1.2964912950899312e+00 -2.0309048616899242e-01 0.0000000000000000e+00  1.2965888590731720e+00 -1.8079279530264114e-01 0.0000000000000000e+00  1.2966601391825032e+00 -1.5838435329200493e-01 0.0000000000000000e+00  1.2967115753759144e+00 -1.3588965924711255e-01 0.0000000000000000e+00  1.2967488360082506e+00 -1.1332896846659293e-01 0.0000000000000000e+00  1.2967750145114925e+00 -9.0717582960022983e-02 0.0000000000000000e+00  1.2967933160583398e+00 -6.8068818307249881e-02 0.0000000000000000e+00  1.2968049690789034e+00 -4.5393308857133580e-02 0.0000000000000000e+00  1.2968117518611333e+00 -2.2700836549053107e-02 0.0000000000000000e+00  1.2968137428906663e+00 -6.4497141747503911e-16 0.0000000000000000e+00  1.2968117518611337e+00 2.2700836549053766e-02 0.0000000000000000e+00  1.2968049690789036e+00 4.5393308857132768e-02 0.0000000000000000e+00  1.2967933160583407e+00 6.8068818307249424e-02 0.0000000000000000e+00  1.2967750145114925e+00 9.0717582960022122e-02 0.0000000000000000e+00  1.2967488360082515e+00 1.1332896846659220e-01 0.0000000000000000e+00  1.2967115753759144e+00 1.3588965924711241e-01 0.0000000000000000e+00  1.2966601391825041e+00 1.5838435329200312e-01 0.0000000000000000e+00  1.2965888590731722e+00 1.8079279530264084e-01 0.0000000000000000e+00  1.2964912950899321e+00 2.0309048616899139e-01 0.0000000000000000e+00  1.2963572364770251e+00 2.2524410012797808e-01 0.0000000000000000e+00  1.2961739745377934e+00 2.4721153625868100e-01 0.0000000000000000e+00  1.2959226652348390e+00 2.6893477436690422e-01 0.0000000000000000e+00  1.2955785822610444e+00 2.9033791947409915e-01 0.0000000000000000e+00  1.2951061666627082e+00 3.1131558260021691e-01 0.0000000000000000e+00  1.2944572824534264e+00 3.3172619066670939e-01 0.0000000000000000e+00  1.2935636030255895e+00 3.5137206257149023e-01 0.0000000000000000e+00  1.2923310084967514e+00 3.6998269539862783e-01 0.0000000000000000e+00  1.2906269012082912e+00 3.8717956026091793e-01 0.0000000000000000e+00  1.2882678933909981e+00 4.0244087111099147e-01 0.0000000000000000e+00  1.2849993875157673e+00 4.1504254784496580e-01 0.0000000000000000e+00  1.2804757922855636e+00 4.2400011960271949e-01 0.0000000000000000e+00  1.2742373842098964e+00 4.2799581657583619e-01 0.0000000000000000e+00  1.2657013621818303e+00 4.2534201114883174e-01 0.0000000000000000e+00  1.2541797109153745e+00 4.1400771586543650e-01 0.0000000000000000e+00  1.2389646719251277e+00 3.9183086554895519e-01 0.0000000000000000e+00  1.2195145190682168e+00 3.5701121560656879e-01 0.0000000000000000e+00  1.1957629006430317e+00 3.0899322665162116e-01 0.0000000000000000e+00  1.1684698234853341e+00 2.4954797544609217e-01 0.0000000000000000e+00  1.1393966689645731e+00 1.8346676569598441e-01 0.0000000000000000e+00  1.1110072386860119e+00 1.1790125313575056e-01 0.0000000000000000e+00  1.0856770881700264e+00 6.0110763919192456e-02 0.0000000000000000e+00  1.0648696869983083e+00 1.4856990637900372e-02 0.0000000000000000e+00  1.0488535333160334e+00 -1.6682803135705714e-02 0.0000000000000000e+00  1.0370144553318650e+00 -3.6125566854014829e-02 0.0000000000000000e+00  1.0283828096654308e+00 -4.6300601569158370e-02 0.0000000000000000e+00  1.0220186118366534e+00 -5.0040709204125365e-02 0.0000000000000000e+00  1.0171816254418542e+00 -4.9615544500562513e-02 0.0000000000000000e+00  1.0133495082920760e+00 -4.6652679764999545e-02 0.0000000000000000e+00  1.0101797371585133e+00 -4.2235094546072154e-02 0.0000000000000000e+00  1.0074558083432603e+00 -3.7064632997922953e-02 0.0000000000000000e+00  1.0050466186503877e+00 -3.1578148189972406e-02 0.0000000000000000e+00  1.0028732144818862e+00 -2.6053900698926769e-02 0.0000000000000000e+00  1.0008906594551237e+00 -2.0660060305041767e-02 0.0000000000000000e+00  9.9907255098014447e-01 -1.5507904786090336e-02 0.0000000000000000e+00  9.9740523195302322e-01 -1.0661874201649981e-02 0.0000000000000000e+00  9.9588035504393624e-01 -6.1686296367840900e-03 0.0000000000000000e+00  9.9449416756725495e-01 -2.0508815663542973e-03 0.0000000000000000e+00  9.9324319936294858e-01 1.6725469105164914e-03 0.0000000000000000e+00  9.9212548892534669e-01 4.9992181261246191e-03 0.0000000000000000e+00  9.9113744541966975e-01 7.9258335978113527e-03 0.0000000000000000e+00  9.9027585622164149e-01 1.0463130130470063e-02 0.0000000000000000e+00  9.8953521978670167e-01 1.2619101526080662e-02 0.0000000000000000e+00  9.8891013803552796e-01 1.4414760152946716e-02 0.0000000000000000e+00  9.8839286875230381e-01 1.5866994733887373e-02 0.0000000000000000e+00  9.8797596250989406e-01 1.7004626304275405e-02 0.0000000000000000e+00  9.8764991901013521e-01 1.7850717517508788e-02 0.0000000000000000e+00  9.8740599111714888e-01 1.8438785679361185e-02 0.0000000000000000e+00  9.8723385349275672e-01 1.8794693341460760e-02 0.0000000000000000e+00  9.8712450089128889e-01 1.8953085251140242e-02 0.0000000000000000e+00  9.8706783990074654e-01 1.8939124951120413e-02 0.0000000000000000e+00  9.8705561483227278e-01 1.8785272699570799e-02 0.0000000000000000e+00  9.8707885105884163e-01 1.8513131126980404e-02 0.0000000000000000e+00  9.8713076782325127e-01 1.8150615908355011e-02 0.0000000000000000e+00  9.8720403744926699e-01 1.7714083565984039e-02 0.0000000000000000e+00  9.8729368186591648e-01 1.7225827477155481e-02 0.0000000000000000e+00  9.8739415039916589e-01 1.6696552242865891e-02 0.0000000000000000e+00  9.8750222804618804e-01 1.6143023339429251e-02 0.0000000000000000e+00  9.8761395948235786e-01 1.5570883137108929e-02 0.0000000000000000e+00  9.8772761060943748e-01 1.4992233740561529e-02 0.0000000000000000e+00  9.8784047226331484e-01 1.4408779128119114e-02 0.0000000000000000e+00  9.8795191266018134e-01 1.3829127422710832e-02 0.0000000000000000e+00  9.8806008617071139e-01 1.3252275770782052e-02 0.0000000000000000e+00  9.8816510100464128e-01 1.2684455364514916e-02 0.0000000000000000e+00  9.8826564546476536e-01 1.2123021661536067e-02 0.0000000000000000e+00  9.8836228108731861e-01 1.1572706086365519e-02 0.0000000000000000e+00  9.8845398805429940e-01 1.1030011779006532e-02 0.0000000000000000e+00  9.8854158390182756e-01 1.0498764853425676e-02 0.0000000000000000e+00  9.8862418405675212e-01 9.9751362930679578e-03 0.0000000000000000e+00  9.8870274100392153e-01 9.4624003123955375e-03 0.0000000000000000e+00  9.8877641477245948e-01 8.9567077975879674e-03 0.0000000000000000e+00  9.8884622572480962e-01 8.4609641320041711e-03 0.0000000000000000e+00  9.8891133147901433e-01 7.9714743617555379e-03 0.0000000000000000e+00  9.8897278638933228e-01 7.4908536504573993e-03 0.0000000000000000e+00  9.8902972417774637e-01 7.0156544741052018e-03 0.0000000000000000e+00  9.8908321736632421e-01 6.5482238742341865e-03 0.0000000000000000e+00  9.8913236777266977e-01 6.0854117666282225e-03 0.0000000000000000e+00  9.8917825898465783e-01 5.6292923253061719e-03 0.0000000000000000e+00  9.8921995942428409e-01 5.1770413334214175e-03 0.0000000000000000e+00  9.8925856029850356e-01 4.7304446845702480e-03 0.0000000000000000e+00  9.8929309808308252e-01 4.2870218985104529e-03 0.0000000000000000e+00  9.8932466936292163e-01 3.8482524170405539e-03 0.0000000000000000e+00  9.8935228139262921e-01 3.4120118155813481e-03 0.0000000000000000e+00  9.8937703404501021e-01 2.9794556534644854e-03 0.0000000000000000e+00  9.8939790863570942e-01 2.5488243605999599e-03 0.0000000000000000e+00  9.8941600599604218e-01 2.1209343226478378e-03 0.0000000000000000e+00  9.8943028503852615e-01 1.6943968222362827e-03 0.0000000000000000e+00  9.8944184488112108e-01 1.2696764102278491e-03 0.0000000000000000e+00  9.8944962567987527e-01 8.4575862446907232e-04 0.0000000000000000e+00  9.8945472183696759e-01 4.2274627978678179e-04 0.0000000000000000e+00  9.8945605841977446e-01 0.0000000000000000e+00 0.0000000000000000e+00  </DataArray> 
</PointData> 
</Piece>
</UnstructuredGrid>
</VTKFile>