<?xml version="1.0"?>
<VTKFile type="UnstructuredGrid"  version="0.1"  >
<UnstructuredGrid>
<Piece  NumberOfPoints="201" NumberOfCells="200">
<Points>
<DataArray  type="Float64"  NumberOfComponents="3"  format="ascii">-5 0 0  -4.95 0 0  -4.9 0 0  -4.85 0 0  -4.8 0 0  -4.75 0 0  -4.7 0 0  -4.65 0 0  -4.6 0 0  -4.55 0 0  -4.5 0 0  -4.45 0 0  -4.4 0 0  -4.35 0 0  -4.3 0 0  -4.25 0 0  -4.2 0 0  -4.15 0 0  -4.1 0 0  -4.05 0 0  -4 0 0  -3.95 0 0  -3.9 0 0  -3.85 0 0  -3.8 0 0  -3.75 0 0  -3.7 0 0  -3.65 0 0  -3.6 0 0  -3.55 0 0  -3.5 0 0  -3.45 0 0  -3.4 0 0  -3.35 0 0  -3.3 0 0  -3.25 0 0  -3.2 0 0  -3.15 0 0  -3.1 0 0  -3.05 0 0  -3 0 0  -2.95 0 0  -2.9 0 0  -2.85 0 0  -2.8 0 0  -2.75 0 0  -2.7 0 0  -2.65 0 0  -2.6 0 0  -2.55 0 0  -2.5 0 0  -2.45 0 0  -2.4 0 0  -2.35 0 0  -2.3 0 0  -2.25 0 0  -2.2 0 0  -2.15 0 0  -2.1 0 0  -2.05 0 0  -2 0 0  -1.95 0 0  -1.9 0 0  -1.85 0 0  -1.8 0 0  -1.75 0 0  -1.7 0 0  -1.65 0 0  -1.6 0 0  -1.55 0 0  -1.5 0 0  -1.45 0 0  -1.4 0 0  -1.35 0 0  -1.3 0 0  -1.25 0 0  -1.2 0 0  -1.15 0 0  -1.1 0 0  -1.05 0 0  -1 0 0  -0.9500000000000002 0 0  -0.9000000000000004 0 0  -0.8499999999999996 0 0  -0.7999999999999998 0 0  -0.75 0 0  -0.7000000000000002 0 0  -0.6500000000000004 0 0  -0.5999999999999996 0 0  -0.5499999999999998 0 0  -0.5 0 0  -0.4500000000000002 0 0  -0.4000000000000004 0 0  -0.3499999999999996 0 0  -0.2999999999999998 0 0  -0.25 0 0  -0.2000000000000002 0 0  -0.1500000000000004 0 0  -0.09999999999999964 0 0  -0.04999999999999982 0 0  0 0 0  0.04999999999999982 0 0  0.09999999999999964 0 0  0.1500000000000004 0 0  0.2000000000000002 0 0  0.25 0 0  0.2999999999999998 0 0  0.3499999999999996 0 0  0.4000000000000004 0 0  0.4500000000000002 0 0  0.5 0 0  0.5499999999999998 0 0  0.5999999999999996 0 0  0.6500000000000004 0 0  0.7000000000000002 0 0  0.75 0 0  0.7999999999999998 0 0  0.8499999999999996 0 0  0.9000000000000004 0 0  0.9500000000000002 0 0  1 0 0  1.05 0 0  1.1 0 0  1.15 0 0  1.2 0 0  1.25 0 0  1.3 0 0  1.35 0 0  1.4 0 0  1.45 0 0  1.5 0 0  1.55 0 0  1.6 0 0  1.65 0 0  1.7 0 0  1.75 0 0  1.8 0 0  1.85 0 0  1.9 0 0  1.95 0 0  2 0 0  2.05 0 0  2.1 0 0  2.15 0 0  2.2 0 0  2.25 0 0  2.3 0 0  2.35 0 0  2.4 0 0  2.45 0 0  2.5 0 0  2.55 0 0  2.6 0 0  2.65 0 0  2.7 0 0  2.75 0 0  2.8 0 0  2.85 0 0  2.9 0 0  2.95 0 0  3 0 0  3.050000000000001 0 0  3.1 0 0  3.15 0 0  3.199999999999999 0 0  3.25 0 0  3.300000000000001 0 0  3.35 0 0  3.4 0 0  3.449999999999999 0 0  3.5 0 0  3.550000000000001 0 0  3.6 0 0  3.65 0 0  3.699999999999999 0 0  3.75 0 0  3.800000000000001 0 0  3.85 0 0  3.9 0 0  3.949999999999999 0 0  4 0 0  4.050000000000001 0 0  4.1 0 0  4.15 0 0  4.199999999999999 0 0  4.25 0 0  4.300000000000001 0 0  4.35 0 0  4.4 0 0  4.449999999999999 0 0  4.5 0 0  4.550000000000001 0 0  4.6 0 0  4.65 0 0  4.699999999999999 0 0  4.75 0 0  4.800000000000001 0 0  4.85 0 0  4.9 0 0  4.949999999999999 0 0  5 0 0  </DataArray>
</Points>
<Cells>
<DataArray  type="UInt32"  Name="connectivity"  format="ascii">0 1  1 2  2 3  3 4  4 5  5 6  6 7  7 8  8 9  9 10  10 11  11 12  12 13  13 14  14 15  15 16  16 17  17 18  18 19  19 20  20 21  21 22  22 23  23 24  24 25  25 26  26 27  27 28  28 29  29 30  30 31  31 32  32 33  33 34  34 35  35 36  36 37  37 38  38 39  39 40  40 41  41 42  42 43  43 44  44 45  45 46  46 47  47 48  48 49  49 50  50 51  51 52  52 53  53 54  54 55  55 56  56 57  57 58  58 59  59 60  60 61  61 62  62 63  63 64  64 65  65 66  66 67  67 68  68 69  69 70  70 71  71 72  72 73  73 74  74 75  75 76  76 77  77 78  78 79  79 80  80 81  81 82  82 83  83 84  84 85  85 86  86 87  87 88  88 89  89 90  90 91  91 92  92 93  93 94  94 95  95 96  96 97  97 98  98 99  99 100  100 101  101 102  102 103  103 104  104 105  105 106  106 107  107 108  108 109  109 110  110 111  111 112  112 113  113 114  114 115  115 116  116 117  117 118  118 119  119 120  120 121  121 122  122 123  123 124  124 125  125 126  126 127  127 128  128 129  129 130  130 131  131 132  132 133  133 134  134 135  135 136  136 137  137 138  138 139  139 140  140 141  141 142  142 143  143 144  144 145  145 146  146 147  147 148  148 149  149 150  150 151  151 152  152 153  153 154  154 155  155 156  156 157  157 158  158 159  159 160  160 161  161 162  162 163  163 164  164 165  165 166  166 167  167 168  168 169  169 170  170 171  171 172  172 173  173 174  174 175  175 176  176 177  177 178  178 179  179 180  180 181  181 182  182 183  183 184  184 185  185 186  186 187  187 188  188 189  189 190  190 191  191 192  192 193  193 194  194 195  195 196  196 197  197 198  198 199  199 200  </DataArray>
<DataArray  type="UInt32"  Name="offsets"  format="ascii">2 4 6 8 10 12 14 16 18 20 22 24 26 28 30 32 34 36 38 40 42 44 46 48 50 52 54 56 58 60 62 64 66 68 70 72 74 76 78 80 82 84 86 88 90 92 94 96 98 100 102 104 106 108 110 112 114 116 118 120 122 124 126 128 130 132 134 136 138 140 142 144 146 148 150 152 154 156 158 160 162 164 166 168 170 172 174 176 178 180 182 184 186 188 190 192 194 196 198 200 202 204 206 208 210 212 214 216 218 220 222 224 226 228 230 232 234 236 238 240 242 244 246 248 250 252 254 256 258 260 262 264 266 268 270 272 274 276 278 280 282 284 286 288 290 292 294 296 298 300 302 304 306 308 310 312 314 316 318 320 322 324 326 328 330 332 334 336 338 340 342 344 346 348 350 352 354 356 358 360 362 364 366 368 370 372 374 376 378 380 382 384 386 388 390 392 394 396 398 400 </DataArray>
<DataArray  type="UInt8"  Name="types"  format="ascii">3 3 3 3 3 3 3 3 3 3 3 3 3 3 3 3 3 3 3 3 3 3 3 3 3 3 3 3 3 3 3 3 3 3 3 3 3 3 3 3 3 3 3 3 3 3 3 3 3 3 3 3 3 3 3 3 3 3 3 3 3 3 3 3 3 3 3 3 3 3 3 3 3 3 3 3 3 3 3 3 3 3 3 3 3 3 3 3 3 3 3 3 3 3 3 3 3 3 3 3 3 3 3 3 3 3 3 3 3 3 3 3 3 3 3 3 3 3 3 3 3 3 3 3 3 3 3 3 3 3 3 3 3 3 3 3 3 3 3 3 3 3 3 3 3 3 3 3 3 3 3 3 3 3 3 3 3 3 3 3 3 3 3 3 3 3 3 3 3 3 3 3 3 3 3 3 3 3 3 3 3 3 3 3 3 3 3 3 3 3 3 3 3 3 3 3 3 3 3 3 </DataArray>
</Cells>
<PointData  Vectors="(h, u)"> 
<DataArray  type="Float64"  Name="(h, u)"  NumberOfComponents="3" format="ascii">1.0275174268293752e+00 0.0000000000000000e+00 0.0000000000000000e+00  1.0298506252360744e+00 -4.2597065551311819e-02 0.0000000000000000e+00  1.0367915251213322e+00 -8.8375755020521293e-02 0.0000000000000000e+00  1.0480902327736163e+00 -1.3950556167612727e-01 0.0000000000000000e+00  1.0631164893744582e+00 -1.9631315330099683e-01 0.0000000000000000e+00  1.0807510039731609e+00 -2.5697189236823620e-01 0.0000000000000000e+00  1.0994788915863485e+00 -3.1800917163342129e-01 0.0000000000000000e+00  1.1177166773488352e+00 -3.7547684608627047e-01 0.0000000000000000e+00  1.1341667893145251e+00 -4.2615888057183865e-01 0.0000000000000000e+00  1.1480384229744536e+00 -4.6823289917987787e-01 0.0000000000000000e+00  1.1590475324222458e+00 -5.0127484856474180e-01 0.0000000000000000e+00  1.1672963740366467e+00 -5.2587042902011238e-01 0.0000000000000000e+00  1.1731035572574986e+00 -5.4314656996032262e-01 0.0000000000000000e+00  1.1768767907225919e+00 -5.5440167196329693e-01 0.0000000000000000e+00  1.1790196380239106e+00 -5.6087867817294779e-01 0.0000000000000000e+00  1.1798940454967641e+00 -5.6365706948928773e-01 0.0000000000000000e+00  1.1797976972021309e+00 -5.6362035399708921e-01 0.0000000000000000e+00  1.1789705163864830e+00 -5.6146539509309601e-01 0.0000000000000000e+00  1.1775954158358475e+00 -5.5772779975883091e-01 0.0000000000000000e+00  1.1758141934025479e+00 -5.5281327413049175e-01 0.0000000000000000e+00  1.1737306256061379e+00 -5.4702505293686721e-01 0.0000000000000000e+00  1.1714246878993395e+00 -5.4058922989309410e-01 0.0000000000000000e+00  1.1689531192438973e+00 -5.3367267676337438e-01 0.0000000000000000e+00  1.1663604432945363e+00 -5.2639955944032346e-01 0.0000000000000000e+00  1.1636771245423323e+00 -5.1886092973146447e-01 0.0000000000000000e+00  1.1609281395377331e+00 -5.1112512395648868e-01 0.0000000000000000e+00  1.1581296600918272e+00 -5.0324192934747092e-01 0.0000000000000000e+00  1.1552960312636777e+00 -4.9524950867884432e-01 0.0000000000000000e+00  1.1524357252227289e+00 -4.8717530260979930e-01 0.0000000000000000e+00  1.1495573009243556e+00 -4.7904120196690020e-01 0.0000000000000000e+00  1.1466650888952901e+00 -4.7086248822500365e-01 0.0000000000000000e+00  1.1437644655097321e+00 -4.6265224367801544e-01 0.0000000000000000e+00  1.1408575296792791e+00 -4.5441905688674289e-01 0.0000000000000000e+00  1.1379478735070014e+00 -4.4617121113700514e-01 0.0000000000000000e+00  1.1350363931253069e+00 -4.3791354888408551e-01 0.0000000000000000e+00  1.1321256529000574e+00 -4.2965172485345554e-01 0.0000000000000000e+00  1.1292159058223492e+00 -4.2138844228541195e-01 0.0000000000000000e+00  1.1263091036767621e+00 -4.1312791820797773e-01 0.0000000000000000e+00  1.1234051653171049e+00 -4.0487160877270273e-01 0.0000000000000000e+00  1.1205056626176515e+00 -3.9662295912896323e-01 0.0000000000000000e+00  1.1176103541740396e+00 -3.8838268608782384e-01 0.0000000000000000e+00  1.1147205661453059e+00 -3.8015384420060766e-01 0.0000000000000000e+00  1.1118359968688900e+00 -3.7193670955112640e-01 0.0000000000000000e+00  1.1089578071973663e+00 -3.6373417097645366e-01 0.0000000000000000e+00  1.1060856941346708e+00 -3.5554624720322148e-01 0.0000000000000000e+00  1.1032207039152466e+00 -3.4737579903090765e-01 0.0000000000000000e+00  1.1003625679253390e+00 -3.3922270708910429e-01 0.0000000000000000e+00  1.0975122519369074e+00 -3.3108989269606420e-01 0.0000000000000000e+00  1.0946695441808305e+00 -3.2297718200162562e-01 0.0000000000000000e+00  1.0918353549722213e+00 -3.1488761776671076e-01 0.0000000000000000e+00  1.0890095443033292e+00 -3.0682103592209192e-01 0.0000000000000000e+00  1.0861929871228639e+00 -2.9878064645095731e-01 0.0000000000000000e+00  1.0833856259442669e+00 -2.9076634959741143e-01 0.0000000000000000e+00  1.0805883180229721e+00 -2.8278156072221500e-01 0.0000000000000000e+00  1.0778010970970617e+00 -2.7482629510673623e-01 0.0000000000000000e+00  1.0750248195096850e+00 -2.6690420874162718e-01 0.0000000000000000e+00  1.0722596182463107e+00 -2.5901548266394708e-01 0.0000000000000000e+00  1.0695063656046386e+00 -2.5116404893696198e-01 0.0000000000000000e+00  1.0667653021281618e+00 -2.4335030759682533e-01 0.0000000000000000e+00  1.0640373337014313e+00 -2.3557850447732709e-01 0.0000000000000000e+00  1.0613228177788308e+00 -2.2784931602997174e-01 0.0000000000000000e+00  1.0586227127746042e+00 -2.2016734306753158e-01 0.0000000000000000e+00  1.0559375041297532e+00 -2.1253360086040712e-01 0.0000000000000000e+00  1.0532682235912261e+00 -2.0495309025571032e-01 0.0000000000000000e+00  1.0506154981332763e+00 -1.9742723242406854e-01 0.0000000000000000e+00  1.0479804562149810e+00 -1.8996147608802044e-01 0.0000000000000000e+00  1.0453638833622161e+00 -1.8255771794334880e-01 0.0000000000000000e+00  1.0427670318081239e+00 -1.7522190182014219e-01 0.0000000000000000e+00  1.0401908676329368e+00 -1.6795646694999655e-01 0.0000000000000000e+00  1.0376367993826967e+00 -1.6076789170870845e-01 0.0000000000000000e+00  1.0351060030258881e+00 -1.5365921237638891e-01 0.0000000000000000e+00  1.0326000842468386e+00 -1.4663746066104630e-01 0.0000000000000000e+00  1.0301204690371100e+00 -1.3970629533685613e-01 0.0000000000000000e+00  1.0276690133495816e+00 -1.3287327919009051e-01 0.0000000000000000e+00  1.0252474487418692e+00 -1.2614266510160677e-01 0.0000000000000000e+00  1.0228579518293288e+00 -1.1952245489064173e-01 0.0000000000000000e+00  1.0205026357565732e+00 -1.1301738061646598e-01 0.0000000000000000e+00  1.0181840901411545e+00 -1.0663568598349481e-01 0.0000000000000000e+00  1.0159049098569064e+00 -1.0038234394180741e-01 0.0000000000000000e+00  1.0136682135456507e+00 -9.4265502255801006e-02 0.0000000000000000e+00  1.0114772007936443e+00 -8.8289981268716844e-02 0.0000000000000000e+00  1.0093356534723779e+00 -8.2463330403025670e-02 0.0000000000000000e+00  1.0072475105881675e+00 -7.6789656356680530e-02 0.0000000000000000e+00  1.0052173516855132e+00 -7.1275247462479430e-02 0.0000000000000000e+00  1.0032499756823967e+00 -6.5922792520911544e-02 0.0000000000000000e+00  1.0013508600225509e+00 -6.0736544080971011e-02 0.0000000000000000e+00  9.9952572678367302e-01 -5.5716999265843524e-02 0.0000000000000000e+00  9.9778096684614737e-01 -5.0865587586036487e-02 0.0000000000000000e+00  9.9612317553331309e-01 -4.6179892671323879e-02 0.0000000000000000e+00  9.9455953016981646e-01 -4.1657859587910406e-02 0.0000000000000000e+00  9.9309728092758887e-01 -3.7293634524809841e-02 0.0000000000000000e+00  9.9174407498108830e-01 -3.3081285601859245e-02 0.0000000000000000e+00  9.9050739763920503e-01 -2.9011322768370412e-02 0.0000000000000000e+00  9.8939484736859473e-01 -2.5073913827120587e-02 0.0000000000000000e+00  9.8841353682031208e-01 -2.1256121468112257e-02 0.0000000000000000e+00  9.8757033783005677e-01 -1.7544578463784717e-02 0.0000000000000000e+00  9.8687126762033894e-01 -1.3923451697278610e-02 0.0000000000000000e+00  9.8632173622242270e-01 -1.0376527692318432e-02 0.0000000000000000e+00  9.8592595395907612e-01 -6.8858953331546796e-03 0.0000000000000000e+00  9.8568721950051563e-01 -3.4333935524670928e-03 0.0000000000000000e+00  9.8560738542584525e-01 -1.6087073908752013e-15 0.0000000000000000e+00  9.8568721950051563e-01 3.4333935524669713e-03 0.0000000000000000e+00  9.8592595395907623e-01 6.8858953331521972e-03 0.0000000000000000e+00  9.8632173622242270e-01 1.0376527692317358e-02 0.0000000000000000e+00  9.8687126762033950e-01 1.3923451697275891e-02 0.0000000000000000e+00  9.8757033783005665e-01 1.7544578463784627e-02 0.0000000000000000e+00  9.8841353682031263e-01 2.1256121468110400e-02 0.0000000000000000e+00  9.8939484736859418e-01 2.5073913827120618e-02 0.0000000000000000e+00  9.9050739763920548e-01 2.9011322768368791e-02 0.0000000000000000e+00  9.9174407498108752e-01 3.3081285601859967e-02 0.0000000000000000e+00  9.9309728092758942e-01 3.7293634524808522e-02 0.0000000000000000e+00  9.9455953016981591e-01 4.1657859587911870e-02 0.0000000000000000e+00  9.9612317553331364e-01 4.6179892671323178e-02 0.0000000000000000e+00  9.9778096684614681e-01 5.0865587586037896e-02 0.0000000000000000e+00  9.9952572678367357e-01 5.5716999265842837e-02 0.0000000000000000e+00  1.0013508600225505e+00 6.0736544080971906e-02 0.0000000000000000e+00  1.0032499756823974e+00 6.5922792520910434e-02 0.0000000000000000e+00  1.0052173516855127e+00 7.1275247462480859e-02 0.0000000000000000e+00  1.0072475105881677e+00 7.6789656356679489e-02 0.0000000000000000e+00  1.0093356534723774e+00 8.2463330403025767e-02 0.0000000000000000e+00  1.0114772007936446e+00 8.8289981268715317e-02 0.0000000000000000e+00  1.0136682135456505e+00 9.4265502255799855e-02 0.0000000000000000e+00  1.0159049098569068e+00 1.0038234394180504e-01 0.0000000000000000e+00  1.0181840901411545e+00 1.0663568598349477e-01 0.0000000000000000e+00  1.0205026357565739e+00 1.1301738061646363e-01 0.0000000000000000e+00  1.0228579518293290e+00 1.1952245489064149e-01 0.0000000000000000e+00  1.0252474487418699e+00 1.2614266510160418e-01 0.0000000000000000e+00  1.0276690133495816e+00 1.3287327919009062e-01 0.0000000000000000e+00  1.0301204690371104e+00 1.3970629533685425e-01 0.0000000000000000e+00  1.0326000842468384e+00 1.4663746066104694e-01 0.0000000000000000e+00  1.0351060030258883e+00 1.5365921237638724e-01 0.0000000000000000e+00  1.0376367993826963e+00 1.6076789170870898e-01 0.0000000000000000e+00  1.0401908676329368e+00 1.6795646694999572e-01 0.0000000000000000e+00  1.0427670318081239e+00 1.7522190182014385e-01 0.0000000000000000e+00  1.0453638833622165e+00 1.8255771794334863e-01 0.0000000000000000e+00  1.0479804562149810e+00 1.8996147608802139e-01 0.0000000000000000e+00  1.0506154981332765e+00 1.9742723242406804e-01 0.0000000000000000e+00  1.0532682235912256e+00 2.0495309025571018e-01 0.0000000000000000e+00  1.0559375041297532e+00 2.1253360086040726e-01 0.0000000000000000e+00  1.0586227127746044e+00 2.2016734306753158e-01 0.0000000000000000e+00  1.0613228177788310e+00 2.2784931602997133e-01 0.0000000000000000e+00  1.0640373337014315e+00 2.3557850447732639e-01 0.0000000000000000e+00  1.0667653021281618e+00 2.4335030759682488e-01 0.0000000000000000e+00  1.0695063656046384e+00 2.5116404893696209e-01 0.0000000000000000e+00  1.0722596182463111e+00 2.5901548266394830e-01 0.0000000000000000e+00  1.0750248195096843e+00 2.6690420874162907e-01 0.0000000000000000e+00  1.0778010970970615e+00 2.7482629510673678e-01 0.0000000000000000e+00  1.0805883180229710e+00 2.8278156072221627e-01 0.0000000000000000e+00  1.0833856259442667e+00 2.9076634959741121e-01 0.0000000000000000e+00  1.0861929871228631e+00 2.9878064645095903e-01 0.0000000000000000e+00  1.0890095443033287e+00 3.0682103592209103e-01 0.0000000000000000e+00  1.0918353549722206e+00 3.1488761776671059e-01 0.0000000000000000e+00  1.0946695441808305e+00 3.2297718200162517e-01 0.0000000000000000e+00  1.0975122519369067e+00 3.3108989269606498e-01 0.0000000000000000e+00  1.1003625679253388e+00 3.3922270708910446e-01 0.0000000000000000e+00  1.1032207039152457e+00 3.4737579903090826e-01 0.0000000000000000e+00  1.1060856941346704e+00 3.5554624720322009e-01 0.0000000000000000e+00  1.1089578071973656e+00 3.6373417097645305e-01 0.0000000000000000e+00  1.1118359968688898e+00 3.7193670955112407e-01 0.0000000000000000e+00  1.1147205661453057e+00 3.8015384420060672e-01 0.0000000000000000e+00  1.1176103541740396e+00 3.8838268608782156e-01 0.0000000000000000e+00  1.1205056626176515e+00 3.9662295912896189e-01 0.0000000000000000e+00  1.1234051653171053e+00 4.0487160877270006e-01 0.0000000000000000e+00  1.1263091036767623e+00 4.1312791820797662e-01 0.0000000000000000e+00  1.1292159058223497e+00 4.2138844228541011e-01 0.0000000000000000e+00  1.1321256529000576e+00 4.2965172485345471e-01 0.0000000000000000e+00  1.1350363931253074e+00 4.3791354888408351e-01 0.0000000000000000e+00  1.1379478735070014e+00 4.4617121113700392e-01 0.0000000000000000e+00  1.1408575296792793e+00 4.5441905688673978e-01 0.0000000000000000e+00  1.1437644655097319e+00 4.6265224367801405e-01 0.0000000000000000e+00  1.1466650888952901e+00 4.7086248822500215e-01 0.0000000000000000e+00  1.1495573009243554e+00 4.7904120196689975e-01 0.0000000000000000e+00  1.1524357252227291e+00 4.8717530260979841e-01 0.0000000000000000e+00  1.1552960312636777e+00 4.9524950867884426e-01 0.0000000000000000e+00  1.1581296600918274e+00 5.0324192934747036e-01 0.0000000000000000e+00  1.1609281395377331e+00 5.1112512395648924e-01 0.0000000000000000e+00  1.1636771245423327e+00 5.1886092973146358e-01 0.0000000000000000e+00  1.1663604432945363e+00 5.2639955944032413e-01 0.0000000000000000e+00  1.1689531192438980e+00 5.3367267676337360e-01 0.0000000000000000e+00  1.1714246878993397e+00 5.4058922989309499e-01 0.0000000000000000e+00  1.1737306256061384e+00 5.4702505293686621e-01 0.0000000000000000e+00  1.1758141934025481e+00 5.5281327413049264e-01 0.0000000000000000e+00  1.1775954158358481e+00 5.5772779975883113e-01 0.0000000000000000e+00  1.1789705163864830e+00 5.6146539509309779e-01 0.0000000000000000e+00  1.1797976972021311e+00 5.6362035399708899e-01 0.0000000000000000e+00  1.1798940454967644e+00 5.6365706948928840e-01 0.0000000000000000e+00  1.1790196380239111e+00 5.6087867817294734e-01 0.0000000000000000e+00  1.1768767907225923e+00 5.5440167196329659e-01 0.0000000000000000e+00  1.1731035572574995e+00 5.4314656996032196e-01 0.0000000000000000e+00  1.1672963740366473e+00 5.2587042902011227e-01 0.0000000000000000e+00  1.1590475324222462e+00 5.0127484856474258e-01 0.0000000000000000e+00  1.1480384229744534e+00 4.6823289917987726e-01 0.0000000000000000e+00  1.1341667893145253e+00 4.2615888057183898e-01 0.0000000000000000e+00  1.1177166773488352e+00 3.7547684608627113e-01 0.0000000000000000e+00  1.0994788915863494e+00 3.1800917163342241e-01 0.0000000000000000e+00  1.0807510039731612e+00 2.5697189236823692e-01 0.0000000000000000e+00  1.0631164893744582e+00 1.9631315330099725e-01 0.0000000000000000e+00  1.0480902327736166e+00 1.3950556167612929e-01 0.0000000000000000e+00  1.0367915251213324e+00 8.8375755020522723e-02 0.0000000000000000e+00  1.0298506252360746e+00 4.2597065551313075e-02 0.0000000000000000e+00  1.0275174268293754e+00 0.0000000000000000e+00 0.0000000000000000e+00  </DataArray> 
</PointData> 
</Piece>
</UnstructuredGrid>
</VTKFile>