<?xml version="1.0"?>
<VTKFile type="UnstructuredGrid"  version="0.1"  >
<UnstructuredGrid>
<Piece  NumberOfPoints="201" NumberOfCells="200">
<Points>
<DataArray  type="Float64"  NumberOfComponents="3"  format="ascii">-5 0 0  -4.95 0 0  -4.9 0 0  -4.85 0 0  -4.8 0 0  -4.75 0 0  -4.7 0 0  -4.65 0 0  -4.6 0 0  -4.55 0 0  -4.5 0 0  -4.45 0 0  -4.4 0 0  -4.35 0 0  -4.3 0 0  -4.25 0 0  -4.2 0 0  -4.15 0 0  -4.1 0 0  -4.05 0 0  -4 0 0  -3.95 0 0  -3.9 0 0  -3.85 0 0  -3.8 0 0  -3.75 0 0  -3.7 0 0  -3.65 0 0  -3.6 0 0  -3.55 0 0  -3.5 0 0  -3.45 0 0  -3.4 0 0  -3.35 0 0  -3.3 0 0  -3.25 0 0  -3.2 0 0  -3.15 0 0  -3.1 0 0  -3.05 0 0  -3 0 0  -2.95 0 0  -2.9 0 0  -2.85 0 0  -2.8 0 0  -2.75 0 0  -2.7 0 0  -2.65 0 0  -2.6 0 0  -2.55 0 0  -2.5 0 0  -2.45 0 0  -2.4 0 0  -2.35 0 0  -2.3 0 0  -2.25 0 0  -2.2 0 0  -2.15 0 0  -2.1 0 0  -2.05 0 0  -2 0 0  -1.95 0 0  -1.9 0 0  -1.85 0 0  -1.8 0 0  -1.75 0 0  -1.7 0 0  -1.65 0 0  -1.6 0 0  -1.55 0 0  -1.5 0 0  -1.45 0 0  -1.4 0 0  -1.35 0 0  -1.3 0 0  -1.25 0 0  -1.2 0 0  -1.15 0 0  -1.1 0 0  -1.05 0 0  -1 0 0  -0.9500000000000002 0 0  -0.9000000000000004 0 0  -0.8499999999999996 0 0  -0.7999999999999998 0 0  -0.75 0 0  -0.7000000000000002 0 0  -0.6500000000000004 0 0  -0.5999999999999996 0 0  -0.5499999999999998 0 0  -0.5 0 0  -0.4500000000000002 0 0  -0.4000000000000004 0 0  -0.3499999999999996 0 0  -0.2999999999999998 0 0  -0.25 0 0  -0.2000000000000002 0 0  -0.1500000000000004 0 0  -0.09999999999999964 0 0  -0.04999999999999982 0 0  0 0 0  0.04999999999999982 0 0  0.09999999999999964 0 0  0.1500000000000004 0 0  0.2000000000000002 0 0  0.25 0 0  0.2999999999999998 0 0  0.3499999999999996 0 0  0.4000000000000004 0 0  0.4500000000000002 0 0  0.5 0 0  0.5499999999999998 0 0  0.5999999999999996 0 0  0.6500000000000004 0 0  0.7000000000000002 0 0  0.75 0 0  0.7999999999999998 0 0  0.8499999999999996 0 0  0.9000000000000004 0 0  0.9500000000000002 0 0  1 0 0  1.05 0 0  1.1 0 0  1.15 0 0  1.2 0 0  1.25 0 0  1.3 0 0  1.35 0 0  1.4 0 0  1.45 0 0  1.5 0 0  1.55 0 0  1.6 0 0  1.65 0 0  1.7 0 0  1.75 0 0  1.8 0 0  1.85 0 0  1.9 0 0  1.95 0 0  2 0 0  2.05 0 0  2.1 0 0  2.15 0 0  2.2 0 0  2.25 0 0  2.3 0 0  2.35 0 0  2.4 0 0  2.45 0 0  2.5 0 0  2.55 0 0  2.6 0 0  2.65 0 0  2.7 0 0  2.75 0 0  2.8 0 0  2.85 0 0  2.9 0 0  2.95 0 0  3 0 0  3.050000000000001 0 0  3.1 0 0  3.15 0 0  3.199999999999999 0 0  3.25 0 0  3.300000000000001 0 0  3.35 0 0  3.4 0 0  3.449999999999999 0 0  3.5 0 0  3.550000000000001 0 0  3.6 0 0  3.65 0 0  3.699999999999999 0 0  3.75 0 0  3.800000000000001 0 0  3.85 0 0  3.9 0 0  3.949999999999999 0 0  4 0 0  4.050000000000001 0 0  4.1 0 0  4.15 0 0  4.199999999999999 0 0  4.25 0 0  4.300000000000001 0 0  4.35 0 0  4.4 0 0  4.449999999999999 0 0  4.5 0 0  4.550000000000001 0 0  4.6 0 0  4.65 0 0  4.699999999999999 0 0  4.75 0 0  4.800000000000001 0 0  4.85 0 0  4.9 0 0  4.949999999999999 0 0  5 0 0  </DataArray>
</Points>
<Cells>
<DataArray  type="UInt32"  Name="connectivity"  format="ascii">0 1  1 2  2 3  3 4  4 5  5 6  6 7  7 8  8 9  9 10  10 11  11 12  12 13  13 14  14 15  15 16  16 17  17 18  18 19  19 20  20 21  21 22  22 23  23 24  24 25  25 26  26 27  27 28  28 29  29 30  30 31  31 32  32 33  33 34  34 35  35 36  36 37  37 38  38 39  39 40  40 41  41 42  42 43  43 44  44 45  45 46  46 47  47 48  48 49  49 50  50 51  51 52  52 53  53 54  54 55  55 56  56 57  57 58  58 59  59 60  60 61  61 62  62 63  63 64  64 65  65 66  66 67  67 68  68 69  69 70  70 71  71 72  72 73  73 74  74 75  75 76  76 77  77 78  78 79  79 80  80 81  81 82  82 83  83 84  84 85  85 86  86 87  87 88  88 89  89 90  90 91  91 92  92 93  93 94  94 95  95 96  96 97  97 98  98 99  99 100  100 101  101 102  102 103  103 104  104 105  105 106  106 107  107 108  108 109  109 110  110 111  111 112  112 113  113 114  114 115  115 116  116 117  117 118  118 119  119 120  120 121  121 122  122 123  123 124  124 125  125 126  126 127  127 128  128 129  129 130  130 131  131 132  132 133  133 134  134 135  135 136  136 137  137 138  138 139  139 140  140 141  141 142  142 143  143 144  144 145  145 146  146 147  147 148  148 149  149 150  150 151  151 152  152 153  153 154  154 155  155 156  156 157  157 158  158 159  159 160  160 161  161 162  162 163  163 164  164 165  165 166  166 167  167 168  168 169  169 170  170 171  171 172  172 173  173 174  174 175  175 176  176 177  177 178  178 179  179 180  180 181  181 182  182 183  183 184  184 185  185 186  186 187  187 188  188 189  189 190  190 191  191 192  192 193  193 194  194 195  195 196  196 197  197 198  198 199  199 200  </DataArray>
<DataArray  type="UInt32"  Name="offsets"  format="ascii">2 4 6 8 10 12 14 16 18 20 22 24 26 28 30 32 34 36 38 40 42 44 46 48 50 52 54 56 58 60 62 64 66 68 70 72 74 76 78 80 82 84 86 88 90 92 94 96 98 100 102 104 106 108 110 112 114 116 118 120 122 124 126 128 130 132 134 136 138 140 142 144 146 148 150 152 154 156 158 160 162 164 166 168 170 172 174 176 178 180 182 184 186 188 190 192 194 196 198 200 202 204 206 208 210 212 214 216 218 220 222 224 226 228 230 232 234 236 238 240 242 244 246 248 250 252 254 256 258 260 262 264 266 268 270 272 274 276 278 280 282 284 286 288 290 292 294 296 298 300 302 304 306 308 310 312 314 316 318 320 322 324 326 328 330 332 334 336 338 340 342 344 346 348 350 352 354 356 358 360 362 364 366 368 370 372 374 376 378 380 382 384 386 388 390 392 394 396 398 400 </DataArray>
<DataArray  type="UInt8"  Name="types"  format="ascii">3 3 3 3 3 3 3 3 3 3 3 3 3 3 3 3 3 3 3 3 3 3 3 3 3 3 3 3 3 3 3 3 3 3 3 3 3 3 3 3 3 3 3 3 3 3 3 3 3 3 3 3 3 3 3 3 3 3 3 3 3 3 3 3 3 3 3 3 3 3 3 3 3 3 3 3 3 3 3 3 3 3 3 3 3 3 3 3 3 3 3 3 3 3 3 3 3 3 3 3 3 3 3 3 3 3 3 3 3 3 3 3 3 3 3 3 3 3 3 3 3 3 3 3 3 3 3 3 3 3 3 3 3 3 3 3 3 3 3 3 3 3 3 3 3 3 3 3 3 3 3 3 3 3 3 3 3 3 3 3 3 3 3 3 3 3 3 3 3 3 3 3 3 3 3 3 3 3 3 3 3 3 3 3 3 3 3 3 3 3 3 3 3 3 3 3 3 3 3 3 </DataArray>
</Cells>
<PointData  Vectors="(h, u)"> 
<DataArray  type="Float64"  Name="(h, u)"  NumberOfComponents="3" format="ascii">1.0458899611022270e+00 0.0000000000000000e+00 0.0000000000000000e+00  1.0459144151988795e+00 1.0287249189817695e-02 0.0000000000000000e+00  1.0459876753975517e+00 2.0565581899819312e-02 0.0000000000000000e+00  1.0461101592533433e+00 3.0825912389032609e-02 0.0000000000000000e+00  1.0462820726066357e+00 4.1059478602059996e-02 0.0000000000000000e+00  1.0465041442043725e+00 5.1257015409851892e-02 0.0000000000000000e+00  1.0467768682045184e+00 6.1409911844510806e-02 0.0000000000000000e+00  1.0471012673911544e+00 7.1508734224246071e-02 0.0000000000000000e+00  1.0474780909535062e+00 8.1545047112712071e-02 0.0000000000000000e+00  1.0479086233792854e+00 9.1509296380044000e-02 0.0000000000000000e+00  1.0483938192672648e+00 1.0139329050868622e-01 0.0000000000000000e+00  1.0489351741421284e+00 1.1118745615819682e-01 0.0000000000000000e+00  1.0495337788130314e+00 1.2088397320263809e-01 0.0000000000000000e+00  1.0501912674835183e+00 1.3047341747748439e-01 0.0000000000000000e+00  1.0509087754070841e+00 1.3994853894912740e-01 0.0000000000000000e+00  1.0516879788838400e+00 1.4930030770849048e-01 0.0000000000000000e+00  1.0525299417725988e+00 1.5852231960252830e-01 0.0000000000000000e+00  1.0534362613851502e+00 1.6760626189908293e-01 0.0000000000000000e+00  1.0544077918442523e+00 1.7654692432623018e-01 0.0000000000000000e+00  1.0554459095673758e+00 1.8533710003979373e-01 0.0000000000000000e+00  1.0565511044672062e+00 1.9397317239963990e-01 0.0000000000000000e+00  1.0577243785961190e+00 2.0244946519334042e-01 0.0000000000000000e+00  1.0589656995557177e+00 2.1076436724680503e-01 0.0000000000000000e+00  1.0602755456930772e+00 2.1891414416485791e-01 0.0000000000000000e+00  1.0616532193813411e+00 2.2689955532799524e-01 0.0000000000000000e+00  1.0630985514465803e+00 2.3471913921462634e-01 0.0000000000000000e+00  1.0646100745745966e+00 2.4237627234113335e-01 0.0000000000000000e+00  1.0661868978101547e+00 2.4987194336876772e-01 0.0000000000000000e+00  1.0678267415866292e+00 2.5721220298487457e-01 0.0000000000000000e+00  1.0695279897023529e+00 2.6440044987997402e-01 0.0000000000000000e+00  1.0712875869890606e+00 2.7144522541931237e-01 0.0000000000000000e+00  1.0731032710996595e+00 2.7835204719699214e-01 0.0000000000000000e+00  1.0749713318470755e+00 2.8513151174972023e-01 0.0000000000000000e+00  1.0768890190753950e+00 2.9179072666188061e-01 0.0000000000000000e+00  1.0788521601296501e+00 2.9834169556030765e-01 0.0000000000000000e+00  1.0808577342757979e+00 3.0479241375715954e-01 0.0000000000000000e+00  1.0829013429579037e+00 3.1115551812961317e-01 0.0000000000000000e+00  1.0849799370858324e+00 3.1743911977245864e-01 0.0000000000000000e+00  1.0870891349029719e+00 3.2365570348313893e-01 0.0000000000000000e+00  1.0892260868878265e+00 3.2981277117172436e-01 0.0000000000000000e+00  1.0913866386409514e+00 3.3592197028620546e-01 0.0000000000000000e+00  1.0935683191082626e+00 3.4198961403179134e-01 0.0000000000000000e+00  1.0957673503467589e+00 3.4802600692576446e-01 0.0000000000000000e+00  1.0979817472991333e+00 3.5403589517311856e-01 0.0000000000000000e+00  1.1002081813307123e+00 3.6002794439617847e-01 0.0000000000000000e+00  1.1024451824380872e+00 3.6600515989109556e-01 0.0000000000000000e+00  1.1046898676457002e+00 3.7197446027809900e-01 0.0000000000000000e+00  1.1069412380473636e+00 3.7793709605747849e-01 0.0000000000000000e+00  1.1091967854872482e+00 3.8389825565335606e-01 0.0000000000000000e+00  1.1114558764822025e+00 3.8985750276668424e-01 0.0000000000000000e+00  1.1137162506381226e+00 3.9581834779228864e-01 0.0000000000000000e+00  1.1159774810590353e+00 4.0177871858177222e-01 0.0000000000000000e+00  1.1182373755645381e+00 4.0774042798801369e-01 0.0000000000000000e+00  1.1204954985621236e+00 4.1369968542917168e-01 0.0000000000000000e+00  1.1227494810895622e+00 4.1965638599723515e-01 0.0000000000000000e+00  1.1249985817670136e+00 4.2560465649241802e-01 0.0000000000000000e+00  1.1272399029694753e+00 4.3154187678668149e-01 0.0000000000000000e+00  1.1294719567060463e+00 4.3745922617798361e-01 0.0000000000000000e+00  1.1316907692797622e+00 4.4335031394507252e-01 0.0000000000000000e+00  1.1338933981022006e+00 4.4920163797004020e-01 0.0000000000000000e+00  1.1360738809910216e+00 4.5500063320463974e-01 0.0000000000000000e+00  1.1382266153459839e+00 4.6072585497650065e-01 0.0000000000000000e+00  1.1403420622401679e+00 4.6635412667319825e-01 0.0000000000000000e+00  1.1424098396042175e+00 4.7185008494278213e-01 0.0000000000000000e+00  1.1444140134666543e+00 4.7717188630021046e-01 0.0000000000000000e+00  1.1463356594136920e+00 4.8225946387184432e-01 0.0000000000000000e+00  1.1481474538752490e+00 4.8703790566433752e-01 0.0000000000000000e+00  1.1498153219910385e+00 4.9140336361305087e-01 0.0000000000000000e+00  1.1512919004512989e+00 4.9522278943887810e-01 0.0000000000000000e+00  1.1525167784308212e+00 4.9831606887376373e-01 0.0000000000000000e+00  1.1534083883212580e+00 5.0045068549475791e-01 0.0000000000000000e+00  1.1538625627075645e+00 5.0131914158960933e-01 0.0000000000000000e+00  1.1537430913796383e+00 5.0052887473728913e-01 0.0000000000000000e+00  1.1528798650586241e+00 4.9757815368730007e-01 0.0000000000000000e+00  1.1510613513221100e+00 4.9184981580307835e-01 0.0000000000000000e+00  1.1480388759219498e+00 4.8260357011409583e-01 0.0000000000000000e+00  1.1435325623841941e+00 4.6900587947884415e-01 0.0000000000000000e+00  1.1372595737898274e+00 4.5019009933293502e-01 0.0000000000000000e+00  1.1289768239284537e+00 4.2539243668689952e-01 0.0000000000000000e+00  1.1185556491020265e+00 3.9415298660460035e-01 0.0000000000000000e+00  1.1060670063915048e+00 3.5658997405858822e-01 0.0000000000000000e+00  1.0918654179493654e+00 3.1365459546625957e-01 0.0000000000000000e+00  1.0766125602914542e+00 2.6725332566253174e-01 0.0000000000000000e+00  1.0612091719004078e+00 2.2006772391029891e-01 0.0000000000000000e+00  1.0466157114186796e+00 1.7504875077435084e-01 0.0000000000000000e+00  1.0336365841293251e+00 1.3473356649462273e-01 0.0000000000000000e+00  1.0227546811288037e+00 1.0071498223384014e-01 0.0000000000000000e+00  1.0140965641387532e+00 7.3477931312497496e-02 0.0000000000000000e+00  1.0075037183078410e+00 5.2607556316602778e-02 0.0000000000000000e+00  1.0026594269085614e+00 3.7161950469646078e-02 0.0000000000000000e+00  9.9919719448860789e-01 2.6027507185381667e-02 0.0000000000000000e+00  9.9677603288901995e-01 1.8148289181256536e-02 0.0000000000000000e+00  9.9511032064824556e-01 1.2638811912826321e-02 0.0000000000000000e+00  9.9398000513337226e-01 8.8075909604527526e-03 0.0000000000000000e+00  9.9322105238363312e-01 6.1417471449353713e-03 0.0000000000000000e+00  9.9271761535262648e-01 4.2713025135487862e-03 0.0000000000000000e+00  9.9238769672133476e-01 2.9358124565647347e-03 0.0000000000000000e+00  9.9217689465623504e-01 1.9525566016797870e-03 0.0000000000000000e+00  9.9204804835134586e-01 1.1936023372902721e-03 0.0000000000000000e+00  9.9197925274400933e-01 5.6635736481637565e-04 0.0000000000000000e+00  9.9195736643466315e-01 -2.1741370010095883e-16 0.0000000000000000e+00  9.9197925274400922e-01 -5.6635736481597948e-04 0.0000000000000000e+00  9.9204804835134563e-01 -1.1936023372906915e-03 0.0000000000000000e+00  9.9217689465623493e-01 -1.9525566016786846e-03 0.0000000000000000e+00  9.9238769672133464e-01 -2.9358124565642004e-03 0.0000000000000000e+00  9.9271761535262659e-01 -4.2713025135474704e-03 0.0000000000000000e+00  9.9322105238363312e-01 -6.1417471449356177e-03 0.0000000000000000e+00  9.9398000513337237e-01 -8.8075909604525913e-03 0.0000000000000000e+00  9.9511032064824545e-01 -1.2638811912827331e-02 0.0000000000000000e+00  9.9677603288902006e-01 -1.8148289181256383e-02 0.0000000000000000e+00  9.9919719448860789e-01 -2.6027507185383617e-02 0.0000000000000000e+00  1.0026594269085616e+00 -3.7161950469646425e-02 0.0000000000000000e+00  1.0075037183078410e+00 -5.2607556316604118e-02 0.0000000000000000e+00  1.0140965641387534e+00 -7.3477931312498038e-02 0.0000000000000000e+00  1.0227546811288040e+00 -1.0071498223384238e-01 0.0000000000000000e+00  1.0336365841293260e+00 -1.3473356649462417e-01 0.0000000000000000e+00  1.0466157114186798e+00 -1.7504875077435361e-01 0.0000000000000000e+00  1.0612091719004084e+00 -2.2006772391030011e-01 0.0000000000000000e+00  1.0766125602914545e+00 -2.6725332566253440e-01 0.0000000000000000e+00  1.0918654179493661e+00 -3.1365459546626040e-01 0.0000000000000000e+00  1.1060670063915050e+00 -3.5658997405858978e-01 0.0000000000000000e+00  1.1185556491020272e+00 -3.9415298660460024e-01 0.0000000000000000e+00  1.1289768239284539e+00 -4.2539243668689880e-01 0.0000000000000000e+00  1.1372595737898279e+00 -4.5019009933293447e-01 0.0000000000000000e+00  1.1435325623841941e+00 -4.6900587947884392e-01 0.0000000000000000e+00  1.1480388759219502e+00 -4.8260357011409549e-01 0.0000000000000000e+00  1.1510613513221102e+00 -4.9184981580307774e-01 0.0000000000000000e+00  1.1528798650586245e+00 -4.9757815368729985e-01 0.0000000000000000e+00  1.1537430913796385e+00 -5.0052887473728858e-01 0.0000000000000000e+00  1.1538625627075645e+00 -5.0131914158960889e-01 0.0000000000000000e+00  1.1534083883212580e+00 -5.0045068549475691e-01 0.0000000000000000e+00  1.1525167784308212e+00 -4.9831606887376401e-01 0.0000000000000000e+00  1.1512919004512991e+00 -4.9522278943887643e-01 0.0000000000000000e+00  1.1498153219910385e+00 -4.9140336361304937e-01 0.0000000000000000e+00  1.1481474538752492e+00 -4.8703790566433619e-01 0.0000000000000000e+00  1.1463356594136920e+00 -4.8225946387184365e-01 0.0000000000000000e+00  1.1444140134666541e+00 -4.7717188630020968e-01 0.0000000000000000e+00  1.1424098396042175e+00 -4.7185008494278147e-01 0.0000000000000000e+00  1.1403420622401677e+00 -4.6635412667319659e-01 0.0000000000000000e+00  1.1382266153459835e+00 -4.6072585497650131e-01 0.0000000000000000e+00  1.1360738809910211e+00 -4.5500063320463857e-01 0.0000000000000000e+00  1.1338933981022004e+00 -4.4920163797003992e-01 0.0000000000000000e+00  1.1316907692797620e+00 -4.4335031394507091e-01 0.0000000000000000e+00  1.1294719567060463e+00 -4.3745922617798433e-01 0.0000000000000000e+00  1.1272399029694748e+00 -4.3154187678668060e-01 0.0000000000000000e+00  1.1249985817670134e+00 -4.2560465649241941e-01 0.0000000000000000e+00  1.1227494810895620e+00 -4.1965638599723359e-01 0.0000000000000000e+00  1.1204954985621236e+00 -4.1369968542917379e-01 0.0000000000000000e+00  1.1182373755645376e+00 -4.0774042798801191e-01 0.0000000000000000e+00  1.1159774810590348e+00 -4.0177871858177461e-01 0.0000000000000000e+00  1.1137162506381224e+00 -3.9581834779228592e-01 0.0000000000000000e+00  1.1114558764822020e+00 -3.8985750276668585e-01 0.0000000000000000e+00  1.1091967854872480e+00 -3.8389825565335367e-01 0.0000000000000000e+00  1.1069412380473631e+00 -3.7793709605748033e-01 0.0000000000000000e+00  1.1046898676456998e+00 -3.7197446027809744e-01 0.0000000000000000e+00  1.1024451824380868e+00 -3.6600515989109761e-01 0.0000000000000000e+00  1.1002081813307121e+00 -3.6002794439617530e-01 0.0000000000000000e+00  1.0979817472991327e+00 -3.5403589517311945e-01 0.0000000000000000e+00  1.0957673503467584e+00 -3.4802600692576191e-01 0.0000000000000000e+00  1.0935683191082621e+00 -3.4198961403179201e-01 0.0000000000000000e+00  1.0913866386409510e+00 -3.3592197028620391e-01 0.0000000000000000e+00  1.0892260868878265e+00 -3.2981277117172497e-01 0.0000000000000000e+00  1.0870891349029717e+00 -3.2365570348313710e-01 0.0000000000000000e+00  1.0849799370858328e+00 -3.1743911977245837e-01 0.0000000000000000e+00  1.0829013429579037e+00 -3.1115551812961201e-01 0.0000000000000000e+00  1.0808577342757986e+00 -3.0479241375715932e-01 0.0000000000000000e+00  1.0788521601296499e+00 -2.9834169556030682e-01 0.0000000000000000e+00  1.0768890190753959e+00 -2.9179072666188077e-01 0.0000000000000000e+00  1.0749713318470748e+00 -2.8513151174971979e-01 0.0000000000000000e+00  1.0731032710996598e+00 -2.7835204719699230e-01 0.0000000000000000e+00  1.0712875869890595e+00 -2.7144522541931210e-01 0.0000000000000000e+00  1.0695279897023529e+00 -2.6440044987997452e-01 0.0000000000000000e+00  1.0678267415866278e+00 -2.5721220298487391e-01 0.0000000000000000e+00  1.0661868978101545e+00 -2.4987194336876856e-01 0.0000000000000000e+00  1.0646100745745952e+00 -2.4237627234113390e-01 0.0000000000000000e+00  1.0630985514465803e+00 -2.3471913921462767e-01 0.0000000000000000e+00  1.0616532193813399e+00 -2.2689955532799547e-01 0.0000000000000000e+00  1.0602755456930775e+00 -2.1891414416485824e-01 0.0000000000000000e+00  1.0589656995557166e+00 -2.1076436724680550e-01 0.0000000000000000e+00  1.0577243785961190e+00 -2.0244946519334103e-01 0.0000000000000000e+00  1.0565511044672053e+00 -1.9397317239964060e-01 0.0000000000000000e+00  1.0554459095673761e+00 -1.8533710003979312e-01 0.0000000000000000e+00  1.0544077918442512e+00 -1.7654692432623226e-01 0.0000000000000000e+00  1.0534362613851507e+00 -1.6760626189908398e-01 0.0000000000000000e+00  1.0525299417725977e+00 -1.5852231960252922e-01 0.0000000000000000e+00  1.0516879788838407e+00 -1.4930030770849187e-01 0.0000000000000000e+00  1.0509087754070834e+00 -1.3994853894912720e-01 0.0000000000000000e+00  1.0501912674835190e+00 -1.3047341747748542e-01 0.0000000000000000e+00  1.0495337788130308e+00 -1.2088397320263750e-01 0.0000000000000000e+00  1.0489351741421293e+00 -1.1118745615819747e-01 0.0000000000000000e+00  1.0483938192672639e+00 -1.0139329050868538e-01 0.0000000000000000e+00  1.0479086233792860e+00 -9.1509296380043362e-02 0.0000000000000000e+00  1.0474780909535053e+00 -8.1545047112710281e-02 0.0000000000000000e+00  1.0471012673911548e+00 -7.1508734224244794e-02 0.0000000000000000e+00  1.0467768682045175e+00 -6.1409911844510487e-02 0.0000000000000000e+00  1.0465041442043732e+00 -5.1257015409851218e-02 0.0000000000000000e+00  1.0462820726066344e+00 -4.1059478602059878e-02 0.0000000000000000e+00  1.0461101592533433e+00 -3.0825912389032664e-02 0.0000000000000000e+00  1.0459876753975506e+00 -2.0565581899819708e-02 0.0000000000000000e+00  1.0459144151988797e+00 -1.0287249189818132e-02 0.0000000000000000e+00  1.0458899611022259e+00 0.0000000000000000e+00 0.0000000000000000e+00  </DataArray> 
</PointData> 
</Piece>
</UnstructuredGrid>
</VTKFile>