<?xml version="1.0"?>
<VTKFile type="UnstructuredGrid"  version="0.1"  >
<UnstructuredGrid>
<Piece  NumberOfPoints="201" NumberOfCells="200">
<Points>
<DataArray  type="Float64"  NumberOfComponents="3"  format="ascii">-5 0 0  -4.95 0 0  -4.9 0 0  -4.85 0 0  -4.8 0 0  -4.75 0 0  -4.7 0 0  -4.65 0 0  -4.6 0 0  -4.55 0 0  -4.5 0 0  -4.45 0 0  -4.4 0 0  -4.35 0 0  -4.3 0 0  -4.25 0 0  -4.2 0 0  -4.15 0 0  -4.1 0 0  -4.05 0 0  -4 0 0  -3.95 0 0  -3.9 0 0  -3.85 0 0  -3.8 0 0  -3.75 0 0  -3.7 0 0  -3.65 0 0  -3.6 0 0  -3.55 0 0  -3.5 0 0  -3.45 0 0  -3.4 0 0  -3.35 0 0  -3.3 0 0  -3.25 0 0  -3.2 0 0  -3.15 0 0  -3.1 0 0  -3.05 0 0  -3 0 0  -2.95 0 0  -2.9 0 0  -2.85 0 0  -2.8 0 0  -2.75 0 0  -2.7 0 0  -2.65 0 0  -2.6 0 0  -2.55 0 0  -2.5 0 0  -2.45 0 0  -2.4 0 0  -2.35 0 0  -2.3 0 0  -2.25 0 0  -2.2 0 0  -2.15 0 0  -2.1 0 0  -2.05 0 0  -2 0 0  -1.95 0 0  -1.9 0 0  -1.85 0 0  -1.8 0 0  -1.75 0 0  -1.7 0 0  -1.65 0 0  -1.6 0 0  -1.55 0 0  -1.5 0 0  -1.45 0 0  -1.4 0 0  -1.35 0 0  -1.3 0 0  -1.25 0 0  -1.2 0 0  -1.15 0 0  -1.1 0 0  -1.05 0 0  -1 0 0  -0.9500000000000002 0 0  -0.9000000000000004 0 0  -0.8499999999999996 0 0  -0.7999999999999998 0 0  -0.75 0 0  -0.7000000000000002 0 0  -0.6500000000000004 0 0  -0.5999999999999996 0 0  -0.5499999999999998 0 0  -0.5 0 0  -0.4500000000000002 0 0  -0.4000000000000004 0 0  -0.3499999999999996 0 0  -0.2999999999999998 0 0  -0.25 0 0  -0.2000000000000002 0 0  -0.1500000000000004 0 0  -0.09999999999999964 0 0  -0.04999999999999982 0 0  0 0 0  0.04999999999999982 0 0  0.09999999999999964 0 0  0.1500000000000004 0 0  0.2000000000000002 0 0  0.25 0 0  0.2999999999999998 0 0  0.3499999999999996 0 0  0.4000000000000004 0 0  0.4500000000000002 0 0  0.5 0 0  0.5499999999999998 0 0  0.5999999999999996 0 0  0.6500000000000004 0 0  0.7000000000000002 0 0  0.75 0 0  0.7999999999999998 0 0  0.8499999999999996 0 0  0.9000000000000004 0 0  0.9500000000000002 0 0  1 0 0  1.05 0 0  1.1 0 0  1.15 0 0  1.2 0 0  1.25 0 0  1.3 0 0  1.35 0 0  1.4 0 0  1.45 0 0  1.5 0 0  1.55 0 0  1.6 0 0  1.65 0 0  1.7 0 0  1.75 0 0  1.8 0 0  1.85 0 0  1.9 0 0  1.95 0 0  2 0 0  2.05 0 0  2.1 0 0  2.15 0 0  2.2 0 0  2.25 0 0  2.3 0 0  2.35 0 0  2.4 0 0  2.45 0 0  2.5 0 0  2.55 0 0  2.6 0 0  2.65 0 0  2.7 0 0  2.75 0 0  2.8 0 0  2.85 0 0  2.9 0 0  2.95 0 0  3 0 0  3.050000000000001 0 0  3.1 0 0  3.15 0 0  3.199999999999999 0 0  3.25 0 0  3.300000000000001 0 0  3.35 0 0  3.4 0 0  3.449999999999999 0 0  3.5 0 0  3.550000000000001 0 0  3.6 0 0  3.65 0 0  3.699999999999999 0 0  3.75 0 0  3.800000000000001 0 0  3.85 0 0  3.9 0 0  3.949999999999999 0 0  4 0 0  4.050000000000001 0 0  4.1 0 0  4.15 0 0  4.199999999999999 0 0  4.25 0 0  4.300000000000001 0 0  4.35 0 0  4.4 0 0  4.449999999999999 0 0  4.5 0 0  4.550000000000001 0 0  4.6 0 0  4.65 0 0  4.699999999999999 0 0  4.75 0 0  4.800000000000001 0 0  4.85 0 0  4.9 0 0  4.949999999999999 0 0  5 0 0  </DataArray>
</Points>
<Cells>
<DataArray  type="UInt32"  Name="connectivity"  format="ascii">0 1  1 2  2 3  3 4  4 5  5 6  6 7  7 8  8 9  9 10  10 11  11 12  12 13  13 14  14 15  15 16  16 17  17 18  18 19  19 20  20 21  21 22  22 23  23 24  24 25  25 26  26 27  27 28  28 29  29 30  30 31  31 32  32 33  33 34  34 35  35 36  36 37  37 38  38 39  39 40  40 41  41 42  42 43  43 44  44 45  45 46  46 47  47 48  48 49  49 50  50 51  51 52  52 53  53 54  54 55  55 56  56 57  57 58  58 59  59 60  60 61  61 62  62 63  63 64  64 65  65 66  66 67  67 68  68 69  69 70  70 71  71 72  72 73  73 74  74 75  75 76  76 77  77 78  78 79  79 80  80 81  81 82  82 83  83 84  84 85  85 86  86 87  87 88  88 89  89 90  90 91  91 92  92 93  93 94  94 95  95 96  96 97  97 98  98 99  99 100  100 101  101 102  102 103  103 104  104 105  105 106  106 107  107 108  108 109  109 110  110 111  111 112  112 113  113 114  114 115  115 116  116 117  117 118  118 119  119 120  120 121  121 122  122 123  123 124  124 125  125 126  126 127  127 128  128 129  129 130  130 131  131 132  132 133  133 134  134 135  135 136  136 137  137 138  138 139  139 140  140 141  141 142  142 143  143 144  144 145  145 146  146 147  147 148  148 149  149 150  150 151  151 152  152 153  153 154  154 155  155 156  156 157  157 158  158 159  159 160  160 161  161 162  162 163  163 164  164 165  165 166  166 167  167 168  168 169  169 170  170 171  171 172  172 173  173 174  174 175  175 176  176 177  177 178  178 179  179 180  180 181  181 182  182 183  183 184  184 185  185 186  186 187  187 188  188 189  189 190  190 191  191 192  192 193  193 194  194 195  195 196  196 197  197 198  198 199  199 200  </DataArray>
<DataArray  type="UInt32"  Name="offsets"  format="ascii">2 4 6 8 10 12 14 16 18 20 22 24 26 28 30 32 34 36 38 40 42 44 46 48 50 52 54 56 58 60 62 64 66 68 70 72 74 76 78 80 82 84 86 88 90 92 94 96 98 100 102 104 106 108 110 112 114 116 118 120 122 124 126 128 130 132 134 136 138 140 142 144 146 148 150 152 154 156 158 160 162 164 166 168 170 172 174 176 178 180 182 184 186 188 190 192 194 196 198 200 202 204 206 208 210 212 214 216 218 220 222 224 226 228 230 232 234 236 238 240 242 244 246 248 250 252 254 256 258 260 262 264 266 268 270 272 274 276 278 280 282 284 286 288 290 292 294 296 298 300 302 304 306 308 310 312 314 316 318 320 322 324 326 328 330 332 334 336 338 340 342 344 346 348 350 352 354 356 358 360 362 364 366 368 370 372 374 376 378 380 382 384 386 388 390 392 394 396 398 400 </DataArray>
<DataArray  type="UInt8"  Name="types"  format="ascii">3 3 3 3 3 3 3 3 3 3 3 3 3 3 3 3 3 3 3 3 3 3 3 3 3 3 3 3 3 3 3 3 3 3 3 3 3 3 3 3 3 3 3 3 3 3 3 3 3 3 3 3 3 3 3 3 3 3 3 3 3 3 3 3 3 3 3 3 3 3 3 3 3 3 3 3 3 3 3 3 3 3 3 3 3 3 3 3 3 3 3 3 3 3 3 3 3 3 3 3 3 3 3 3 3 3 3 3 3 3 3 3 3 3 3 3 3 3 3 3 3 3 3 3 3 3 3 3 3 3 3 3 3 3 3 3 3 3 3 3 3 3 3 3 3 3 3 3 3 3 3 3 3 3 3 3 3 3 3 3 3 3 3 3 3 3 3 3 3 3 3 3 3 3 3 3 3 3 3 3 3 3 3 3 3 3 3 3 3 3 3 3 3 3 3 3 3 3 3 3 </DataArray>
</Cells>
<PointData  Vectors="(h, u)"> 
<DataArray  type="Float64"  Name="(h, u)"  NumberOfComponents="3" format="ascii">9.9166387215124407e-01 0.0000000000000000e+00 0.0000000000000000e+00  9.9166293703871300e-01 -2.7311673453609900e-04 0.0000000000000000e+00  9.9166049364327002e-01 -5.4642887537112276e-04 0.0000000000000000e+00  9.9165617740360323e-01 -8.1996596715771153e-04 0.0000000000000000e+00  9.9165034305035338e-01 -1.0940900708941808e-03 0.0000000000000000e+00  9.9164262794988567e-01 -1.3686670724974820e-03 0.0000000000000000e+00  9.9163337500922233e-01 -1.6442250926000219e-03 0.0000000000000000e+00  9.9162222799977884e-01 -1.9204700043358891e-03 0.0000000000000000e+00  9.9160951340251557e-01 -2.1980940259964860e-03 0.0000000000000000e+00  9.9159488578174271e-01 -2.4766481658854218e-03 0.0000000000000000e+00  9.9157865063979655e-01 -2.7569854540677430e-03 0.0000000000000000e+00  9.9156047762632937e-01 -3.0385088055682281e-03 0.0000000000000000e+00  9.9154064683393939e-01 -3.3222275808212089e-03 0.0000000000000000e+00  9.9151884723647066e-01 -3.6074052889138791e-03 0.0000000000000000e+00  9.9149532936982132e-01 -3.8952023453041047e-03 0.0000000000000000e+00  9.9146980590776745e-01 -4.1847542375376664e-03 0.0000000000000000e+00  9.9144249439477239e-01 -4.4773675913714461e-03 0.0000000000000000e+00  9.9141313635271611e-01 -4.7720661548681593e-03 0.0000000000000000e+00  9.9138191480955884e-01 -5.0703019879356267e-03 0.0000000000000000e+00  9.9134860799090774e-01 -5.3710145808676694e-03 0.0000000000000000e+00  9.9131336820102667e-01 -5.6758153151288820e-03 0.0000000000000000e+00  9.9127602659501646e-01 -5.9836161364273969e-03 0.0000000000000000e+00  9.9123672355242520e-01 -6.2962466670173417e-03 0.0000000000000000e+00  9.9119538395011431e-01 -6.6127284105091206e-03 0.0000000000000000e+00  9.9115219734422311e-01 -6.9352989808841572e-03 0.0000000000000000e+00  9.9110729321890600e-01 -7.2634503324124095e-03 0.0000000000000000e+00  9.9106108965262796e-01 -7.6003875645255462e-03 0.0000000000000000e+00  9.9101422760954827e-01 -7.9470539620726359e-03 0.0000000000000000e+00  9.9096785932599640e-01 -8.3092059866122971e-03 0.0000000000000000e+00  9.9092398206081533e-01 -8.6919150225076760e-03 0.0000000000000000e+00  9.9088587334586287e-01 -9.1078567717199441e-03 0.0000000000000000e+00  9.9085917824708081e-01 -9.5734623095330221e-03 0.0000000000000000e+00  9.9085304224737436e-01 -1.0120090566526770e-02 0.0000000000000000e+00  9.9088284003342197e-01 -1.0794689285481506e-02 0.0000000000000000e+00  9.9097338153503223e-01 -1.1678100566782236e-02 0.0000000000000000e+00  9.9116539748232757e-01 -1.2896947064025381e-02 0.0000000000000000e+00  9.9152394386679576e-01 -1.4658780049094737e-02 0.0000000000000000e+00  9.9215303527692833e-01 -1.7288966523637591e-02 0.0000000000000000e+00  9.9321480398244000e-01 -2.1299767328952824e-02 0.0000000000000000e+00  9.9495782339175298e-01 -2.7468974992165416e-02 0.0000000000000000e+00  9.9774858835018654e-01 -3.6945994538528641e-02 0.0000000000000000e+00  1.0021014581158674e+00 -5.1330614567848654e-02 0.0000000000000000e+00  1.0086782646461685e+00 -7.2670410475953906e-02 0.0000000000000000e+00  1.0182194581871065e+00 -1.0321567683888162e-01 0.0000000000000000e+00  1.0313508059441587e+00 -1.4480098600530383e-01 0.0000000000000000e+00  1.0482694714910477e+00 -1.9784579060043633e-01 0.0000000000000000e+00  1.0684271121352598e+00 -2.6041950591189678e-01 0.0000000000000000e+00  1.0904580533802739e+00 -3.2811870546089911e-01 0.0000000000000000e+00  1.1124996788821466e+00 -3.9519424357835237e-01 0.0000000000000000e+00  1.1327654116311690e+00 -4.5634218292883971e-01 0.0000000000000000e+00  1.1500140025658878e+00 -5.0806528117880456e-01 0.0000000000000000e+00  1.1637057134129569e+00 -5.4900086072707466e-01 0.0000000000000000e+00  1.1738801314516556e+00 -5.7946465368693922e-01 0.0000000000000000e+00  1.1809309818641556e+00 -6.0073097006998288e-01 0.0000000000000000e+00  1.1853964558398000e+00 -6.1442978911835333e-01 0.0000000000000000e+00  1.1878250137021056e+00 -6.2216220415172641e-01 0.0000000000000000e+00  1.1887021829090421e+00 -6.2531930532881885e-01 0.0000000000000000e+00  1.1884290572605074e+00 -6.2502190131319757e-01 0.0000000000000000e+00  1.1873195376182293e+00 -6.2213407886723382e-01 0.0000000000000000e+00  1.1856152755685574e+00 -6.1729825252871795e-01 0.0000000000000000e+00  1.1834966788966026e+00 -6.1098315304117057e-01 0.0000000000000000e+00  1.1811003694161271e+00 -6.0352207500169841e-01 0.0000000000000000e+00  1.1785267912472350e+00 -5.9515044173516707e-01 0.0000000000000000e+00  1.1758531622717483e+00 -5.8602985174657563e-01 0.0000000000000000e+00  1.1731359851277170e+00 -5.7627172754069611e-01 0.0000000000000000e+00  1.1704202075336583e+00 -5.6594973529400194e-01 0.0000000000000000e+00  1.1677382157777159e+00 -5.5511403668067760e-01 0.0000000000000000e+00  1.1651168894737109e+00 -5.4379669441849032e-01 0.0000000000000000e+00  1.1625745723582135e+00 -5.3202046431002803e-01 0.0000000000000000e+00  1.1601272131261615e+00 -5.1980032063430892e-01 0.0000000000000000e+00  1.1577842272462529e+00 -5.0714914984042514e-01 0.0000000000000000e+00  1.1555543761134985e+00 -4.9407717098105236e-01 0.0000000000000000e+00  1.1534409886408556e+00 -4.8059583430382008e-01 0.0000000000000000e+00  1.1514478812834694e+00 -4.6671612888190994e-01 0.0000000000000000e+00  1.1495741494568592e+00 -4.5245142773609492e-01 0.0000000000000000e+00  1.1478202429046900e+00 -4.3781527032916007e-01 0.0000000000000000e+00  1.1461824095511071e+00 -4.2282360154608739e-01 0.0000000000000000e+00  1.1446589547655752e+00 -4.0749239212965255e-01 0.0000000000000000e+00  1.1432443693626915e+00 -3.9183954291127215e-01 0.0000000000000000e+00  1.1419357705343489e+00 -3.7588256123710678e-01 0.0000000000000000e+00  1.1407267327050850e+00 -3.5964028250010160e-01 0.0000000000000000e+00  1.1396139015978961e+00 -3.4313072012177215e-01 0.0000000000000000e+00  1.1385905481761553e+00 -3.2637267490994770e-01 0.0000000000000000e+00  1.1376533484908899e+00 -3.0938380981695685e-01 0.0000000000000000e+00  1.1367956853004086e+00 -2.9218216689916027e-01 0.0000000000000000e+00  1.1360145875715835e+00 -2.7478447938923817e-01 0.0000000000000000e+00  1.1353038072805282e+00 -2.5720758913813302e-01 0.0000000000000000e+00  1.1346609117039956e+00 -2.3946698993311691e-01 0.0000000000000000e+00  1.1340801637950444e+00 -2.2157812748501055e-01 0.0000000000000000e+00  1.1335597580351577e+00 -2.0355516179463629e-01 0.0000000000000000e+00  1.1330945323602608e+00 -1.8541213012036678e-01 0.0000000000000000e+00  1.1326833352465533e+00 -1.6716191652288687e-01 0.0000000000000000e+00  1.1323215962415056e+00 -1.4881726089181327e-01 0.0000000000000000e+00  1.1320088088557956e+00 -1.3038992665603655e-01 0.0000000000000000e+00  1.1317409858457637e+00 -1.1189154293611174e-01 0.0000000000000000e+00  1.1315182397846766e+00 -9.3332964647682343e-02 0.0000000000000000e+00  1.1313371485613493e+00 -7.4724938727643270e-02 0.0000000000000000e+00  1.1311984133533686e+00 -5.6077653524695230e-02 0.0000000000000000e+00  1.1310991593680173e+00 -3.7401223262971309e-02 0.0000000000000000e+00  1.1310406493355514e+00 -1.8705425414269502e-02 0.0000000000000000e+00  1.1310205442429138e+00 -3.2943073578463658e-16 0.0000000000000000e+00  1.1310406493355514e+00 1.8705425414268860e-02 0.0000000000000000e+00  1.1310991593680175e+00 3.7401223262971621e-02 0.0000000000000000e+00  1.1311984133533679e+00 5.6077653524694238e-02 0.0000000000000000e+00  1.1313371485613490e+00 7.4724938727643228e-02 0.0000000000000000e+00  1.1315182397846755e+00 9.3332964647681579e-02 0.0000000000000000e+00  1.1317409858457634e+00 1.1189154293611116e-01 0.0000000000000000e+00  1.1320088088557947e+00 1.3038992665603677e-01 0.0000000000000000e+00  1.1323215962415054e+00 1.4881726089181307e-01 0.0000000000000000e+00  1.1326833352465524e+00 1.6716191652288809e-01 0.0000000000000000e+00  1.1330945323602604e+00 1.8541213012036578e-01 0.0000000000000000e+00  1.1335597580351573e+00 2.0355516179463740e-01 0.0000000000000000e+00  1.1340801637950442e+00 2.2157812748500919e-01 0.0000000000000000e+00  1.1346609117039952e+00 2.3946698993311680e-01 0.0000000000000000e+00  1.1353038072805279e+00 2.5720758913813024e-01 0.0000000000000000e+00  1.1360145875715828e+00 2.7478447938923678e-01 0.0000000000000000e+00  1.1367956853004082e+00 2.9218216689915727e-01 0.0000000000000000e+00  1.1376533484908893e+00 3.0938380981695585e-01 0.0000000000000000e+00  1.1385905481761549e+00 3.2637267490994615e-01 0.0000000000000000e+00  1.1396139015978957e+00 3.4313072012177082e-01 0.0000000000000000e+00  1.1407267327050847e+00 3.5964028250009955e-01 0.0000000000000000e+00  1.1419357705343485e+00 3.7588256123710556e-01 0.0000000000000000e+00  1.1432443693626917e+00 3.9183954291127021e-01 0.0000000000000000e+00  1.1446589547655748e+00 4.0749239212965194e-01 0.0000000000000000e+00  1.1461824095511071e+00 4.2282360154608717e-01 0.0000000000000000e+00  1.1478202429046898e+00 4.3781527032915851e-01 0.0000000000000000e+00  1.1495741494568594e+00 4.5245142773609415e-01 0.0000000000000000e+00  1.1514478812834696e+00 4.6671612888190972e-01 0.0000000000000000e+00  1.1534409886408563e+00 4.8059583430381991e-01 0.0000000000000000e+00  1.1555543761134988e+00 4.9407717098105175e-01 0.0000000000000000e+00  1.1577842272462535e+00 5.0714914984042458e-01 0.0000000000000000e+00  1.1601272131261617e+00 5.1980032063430803e-01 0.0000000000000000e+00  1.1625745723582137e+00 5.3202046431002770e-01 0.0000000000000000e+00  1.1651168894737109e+00 5.4379669441848932e-01 0.0000000000000000e+00  1.1677382157777161e+00 5.5511403668067727e-01 0.0000000000000000e+00  1.1704202075336581e+00 5.6594973529400117e-01 0.0000000000000000e+00  1.1731359851277174e+00 5.7627172754069567e-01 0.0000000000000000e+00  1.1758531622717476e+00 5.8602985174657574e-01 0.0000000000000000e+00  1.1785267912472355e+00 5.9515044173516551e-01 0.0000000000000000e+00  1.1811003694161264e+00 6.0352207500169908e-01 0.0000000000000000e+00  1.1834966788966028e+00 6.1098315304116990e-01 0.0000000000000000e+00  1.1856152755685565e+00 6.1729825252871984e-01 0.0000000000000000e+00  1.1873195376182295e+00 6.2213407886723227e-01 0.0000000000000000e+00  1.1884290572605065e+00 6.2502190131319890e-01 0.0000000000000000e+00  1.1887021829090425e+00 6.2531930532881741e-01 0.0000000000000000e+00  1.1878250137021047e+00 6.2216220415172785e-01 0.0000000000000000e+00  1.1853964558398005e+00 6.1442978911835222e-01 0.0000000000000000e+00  1.1809309818641547e+00 6.0073097006998477e-01 0.0000000000000000e+00  1.1738801314516560e+00 5.7946465368693822e-01 0.0000000000000000e+00  1.1637057134129565e+00 5.4900086072707643e-01 0.0000000000000000e+00  1.1500140025658885e+00 5.0806528117880445e-01 0.0000000000000000e+00  1.1327654116311692e+00 4.5634218292884116e-01 0.0000000000000000e+00  1.1124996788821477e+00 3.9519424357835392e-01 0.0000000000000000e+00  1.0904580533802739e+00 3.2811870546090049e-01 0.0000000000000000e+00  1.0684271121352604e+00 2.6041950591189739e-01 0.0000000000000000e+00  1.0482694714910477e+00 1.9784579060043669e-01 0.0000000000000000e+00  1.0313508059441587e+00 1.4480098600530378e-01 0.0000000000000000e+00  1.0182194581871065e+00 1.0321567683888136e-01 0.0000000000000000e+00  1.0086782646461683e+00 7.2670410475953809e-02 0.0000000000000000e+00  1.0021014581158671e+00 5.1330614567848210e-02 0.0000000000000000e+00  9.9774858835018643e-01 3.6945994538527725e-02 0.0000000000000000e+00  9.9495782339175265e-01 2.7468974992164160e-02 0.0000000000000000e+00  9.9321480398243978e-01 2.1299767328952276e-02 0.0000000000000000e+00  9.9215303527692822e-01 1.7288966523636314e-02 0.0000000000000000e+00  9.9152394386679554e-01 1.4658780049094556e-02 0.0000000000000000e+00  9.9116539748232757e-01 1.2896947064024854e-02 0.0000000000000000e+00  9.9097338153503178e-01 1.1678100566782730e-02 0.0000000000000000e+00  9.9088284003342197e-01 1.0794689285480805e-02 0.0000000000000000e+00  9.9085304224737381e-01 1.0120090566527016e-02 0.0000000000000000e+00  9.9085917824708070e-01 9.5734623095324739e-03 0.0000000000000000e+00  9.9088587334586242e-01 9.1078567717206675e-03 0.0000000000000000e+00  9.9092398206081533e-01 8.6919150225074696e-03 0.0000000000000000e+00  9.9096785932599585e-01 8.3092059866131680e-03 0.0000000000000000e+00  9.9101422760954838e-01 7.9470539620720496e-03 0.0000000000000000e+00  9.9106108965262740e-01 7.6003875645268724e-03 0.0000000000000000e+00  9.9110729321890623e-01 7.2634503324118128e-03 0.0000000000000000e+00  9.9115219734422277e-01 6.9352989808850515e-03 0.0000000000000000e+00  9.9119538395011453e-01 6.6127284105091215e-03 0.0000000000000000e+00  9.9123672355242498e-01 6.2962466670182403e-03 0.0000000000000000e+00  9.9127602659501679e-01 5.9836161364269476e-03 0.0000000000000000e+00  9.9131336820102633e-01 5.6758153151304554e-03 0.0000000000000000e+00  9.9134860799090785e-01 5.3710145808674977e-03 0.0000000000000000e+00  9.9138191480955851e-01 5.0703019879375999e-03 0.0000000000000000e+00  9.9141313635271622e-01 4.7720661548680031e-03 0.0000000000000000e+00  9.9144249439477217e-01 4.4773675913726552e-03 0.0000000000000000e+00  9.9146980590776779e-01 4.1847542375379873e-03 0.0000000000000000e+00  9.9149532936982110e-01 3.8952023453062779e-03 0.0000000000000000e+00  9.9151884723647099e-01 3.6074052889145374e-03 0.0000000000000000e+00  9.9154064683393917e-01 3.3222275808231583e-03 0.0000000000000000e+00  9.9156047762632982e-01 3.0385088055690894e-03 0.0000000000000000e+00  9.9157865063979622e-01 2.7569854540699097e-03 0.0000000000000000e+00  9.9159488578174326e-01 2.4766481658863018e-03 0.0000000000000000e+00  9.9160951340251546e-01 2.1980940259982199e-03 0.0000000000000000e+00  9.9162222799977962e-01 1.9204700043369606e-03 0.0000000000000000e+00  9.9163337500922233e-01 1.6442250926014320e-03 0.0000000000000000e+00  9.9164262794988633e-01 1.3686670724987748e-03 0.0000000000000000e+00  9.9165034305035338e-01 1.0940900708949735e-03 0.0000000000000000e+00  9.9165617740360379e-01 8.1996596715816722e-04 0.0000000000000000e+00  9.9166049364327002e-01 5.4642887537117925e-04 0.0000000000000000e+00  9.9166293703871378e-01 2.7311673453597036e-04 0.0000000000000000e+00  9.9166387215124407e-01 0.0000000000000000e+00 0.0000000000000000e+00  </DataArray> 
</PointData> 
</Piece>
</UnstructuredGrid>
</VTKFile>