<?xml version="1.0"?>
<VTKFile type="UnstructuredGrid"  version="0.1"  >
<UnstructuredGrid>
<Piece  NumberOfPoints="201" NumberOfCells="200">
<Points>
<DataArray  type="Float64"  NumberOfComponents="3"  format="ascii">-5 0 0  -4.95 0 0  -4.9 0 0  -4.85 0 0  -4.8 0 0  -4.75 0 0  -4.7 0 0  -4.65 0 0  -4.6 0 0  -4.55 0 0  -4.5 0 0  -4.45 0 0  -4.4 0 0  -4.35 0 0  -4.3 0 0  -4.25 0 0  -4.2 0 0  -4.15 0 0  -4.1 0 0  -4.05 0 0  -4 0 0  -3.95 0 0  -3.9 0 0  -3.85 0 0  -3.8 0 0  -3.75 0 0  -3.7 0 0  -3.65 0 0  -3.6 0 0  -3.55 0 0  -3.5 0 0  -3.45 0 0  -3.4 0 0  -3.35 0 0  -3.3 0 0  -3.25 0 0  -3.2 0 0  -3.15 0 0  -3.1 0 0  -3.05 0 0  -3 0 0  -2.95 0 0  -2.9 0 0  -2.85 0 0  -2.8 0 0  -2.75 0 0  -2.7 0 0  -2.65 0 0  -2.6 0 0  -2.55 0 0  -2.5 0 0  -2.45 0 0  -2.4 0 0  -2.35 0 0  -2.3 0 0  -2.25 0 0  -2.2 0 0  -2.15 0 0  -2.1 0 0  -2.05 0 0  -2 0 0  -1.95 0 0  -1.9 0 0  -1.85 0 0  -1.8 0 0  -1.75 0 0  -1.7 0 0  -1.65 0 0  -1.6 0 0  -1.55 0 0  -1.5 0 0  -1.45 0 0  -1.4 0 0  -1.35 0 0  -1.3 0 0  -1.25 0 0  -1.2 0 0  -1.15 0 0  -1.1 0 0  -1.05 0 0  -1 0 0  -0.9500000000000002 0 0  -0.9000000000000004 0 0  -0.8499999999999996 0 0  -0.7999999999999998 0 0  -0.75 0 0  -0.7000000000000002 0 0  -0.6500000000000004 0 0  -0.5999999999999996 0 0  -0.5499999999999998 0 0  -0.5 0 0  -0.4500000000000002 0 0  -0.4000000000000004 0 0  -0.3499999999999996 0 0  -0.2999999999999998 0 0  -0.25 0 0  -0.2000000000000002 0 0  -0.1500000000000004 0 0  -0.09999999999999964 0 0  -0.04999999999999982 0 0  0 0 0  0.04999999999999982 0 0  0.09999999999999964 0 0  0.1500000000000004 0 0  0.2000000000000002 0 0  0.25 0 0  0.2999999999999998 0 0  0.3499999999999996 0 0  0.4000000000000004 0 0  0.4500000000000002 0 0  0.5 0 0  0.5499999999999998 0 0  0.5999999999999996 0 0  0.6500000000000004 0 0  0.7000000000000002 0 0  0.75 0 0  0.7999999999999998 0 0  0.8499999999999996 0 0  0.9000000000000004 0 0  0.9500000000000002 0 0  1 0 0  1.05 0 0  1.1 0 0  1.15 0 0  1.2 0 0  1.25 0 0  1.3 0 0  1.35 0 0  1.4 0 0  1.45 0 0  1.5 0 0  1.55 0 0  1.6 0 0  1.65 0 0  1.7 0 0  1.75 0 0  1.8 0 0  1.85 0 0  1.9 0 0  1.95 0 0  2 0 0  2.05 0 0  2.1 0 0  2.15 0 0  2.2 0 0  2.25 0 0  2.3 0 0  2.35 0 0  2.4 0 0  2.45 0 0  2.5 0 0  2.55 0 0  2.6 0 0  2.65 0 0  2.7 0 0  2.75 0 0  2.8 0 0  2.85 0 0  2.9 0 0  2.95 0 0  3 0 0  3.050000000000001 0 0  3.1 0 0  3.15 0 0  3.199999999999999 0 0  3.25 0 0  3.300000000000001 0 0  3.35 0 0  3.4 0 0  3.449999999999999 0 0  3.5 0 0  3.550000000000001 0 0  3.6 0 0  3.65 0 0  3.699999999999999 0 0  3.75 0 0  3.800000000000001 0 0  3.85 0 0  3.9 0 0  3.949999999999999 0 0  4 0 0  4.050000000000001 0 0  4.1 0 0  4.15 0 0  4.199999999999999 0 0  4.25 0 0  4.300000000000001 0 0  4.35 0 0  4.4 0 0  4.449999999999999 0 0  4.5 0 0  4.550000000000001 0 0  4.6 0 0  4.65 0 0  4.699999999999999 0 0  4.75 0 0  4.800000000000001 0 0  4.85 0 0  4.9 0 0  4.949999999999999 0 0  5 0 0  </DataArray>
</Points>
<Cells>
<DataArray  type="UInt32"  Name="connectivity"  format="ascii">0 1  1 2  2 3  3 4  4 5  5 6  6 7  7 8  8 9  9 10  10 11  11 12  12 13  13 14  14 15  15 16  16 17  17 18  18 19  19 20  20 21  21 22  22 23  23 24  24 25  25 26  26 27  27 28  28 29  29 30  30 31  31 32  32 33  33 34  34 35  35 36  36 37  37 38  38 39  39 40  40 41  41 42  42 43  43 44  44 45  45 46  46 47  47 48  48 49  49 50  50 51  51 52  52 53  53 54  54 55  55 56  56 57  57 58  58 59  59 60  60 61  61 62  62 63  63 64  64 65  65 66  66 67  67 68  68 69  69 70  70 71  71 72  72 73  73 74  74 75  75 76  76 77  77 78  78 79  79 80  80 81  81 82  82 83  83 84  84 85  85 86  86 87  87 88  88 89  89 90  90 91  91 92  92 93  93 94  94 95  95 96  96 97  97 98  98 99  99 100  100 101  101 102  102 103  103 104  104 105  105 106  106 107  107 108  108 109  109 110  110 111  111 112  112 113  113 114  114 115  115 116  116 117  117 118  118 119  119 120  120 121  121 122  122 123  123 124  124 125  125 126  126 127  127 128  128 129  129 130  130 131  131 132  132 133  133 134  134 135  135 136  136 137  137 138  138 139  139 140  140 141  141 142  142 143  143 144  144 145  145 146  146 147  147 148  148 149  149 150  150 151  151 152  152 153  153 154  154 155  155 156  156 157  157 158  158 159  159 160  160 161  161 162  162 163  163 164  164 165  165 166  166 167  167 168  168 169  169 170  170 171  171 172  172 173  173 174  174 175  175 176  176 177  177 178  178 179  179 180  180 181  181 182  182 183  183 184  184 185  185 186  186 187  187 188  188 189  189 190  190 191  191 192  192 193  193 194  194 195  195 196  196 197  197 198  198 199  199 200  </DataArray>
<DataArray  type="UInt32"  Name="offsets"  format="ascii">2 4 6 8 10 12 14 16 18 20 22 24 26 28 30 32 34 36 38 40 42 44 46 48 50 52 54 56 58 60 62 64 66 68 70 72 74 76 78 80 82 84 86 88 90 92 94 96 98 100 102 104 106 108 110 112 114 116 118 120 122 124 126 128 130 132 134 136 138 140 142 144 146 148 150 152 154 156 158 160 162 164 166 168 170 172 174 176 178 180 182 184 186 188 190 192 194 196 198 200 202 204 206 208 210 212 214 216 218 220 222 224 226 228 230 232 234 236 238 240 242 244 246 248 250 252 254 256 258 260 262 264 266 268 270 272 274 276 278 280 282 284 286 288 290 292 294 296 298 300 302 304 306 308 310 312 314 316 318 320 322 324 326 328 330 332 334 336 338 340 342 344 346 348 350 352 354 356 358 360 362 364 366 368 370 372 374 376 378 380 382 384 386 388 390 392 394 396 398 400 </DataArray>
<DataArray  type="UInt8"  Name="types"  format="ascii">3 3 3 3 3 3 3 3 3 3 3 3 3 3 3 3 3 3 3 3 3 3 3 3 3 3 3 3 3 3 3 3 3 3 3 3 3 3 3 3 3 3 3 3 3 3 3 3 3 3 3 3 3 3 3 3 3 3 3 3 3 3 3 3 3 3 3 3 3 3 3 3 3 3 3 3 3 3 3 3 3 3 3 3 3 3 3 3 3 3 3 3 3 3 3 3 3 3 3 3 3 3 3 3 3 3 3 3 3 3 3 3 3 3 3 3 3 3 3 3 3 3 3 3 3 3 3 3 3 3 3 3 3 3 3 3 3 3 3 3 3 3 3 3 3 3 3 3 3 3 3 3 3 3 3 3 3 3 3 3 3 3 3 3 3 3 3 3 3 3 3 3 3 3 3 3 3 3 3 3 3 3 3 3 3 3 3 3 3 3 3 3 3 3 3 3 3 3 3 3 </DataArray>
</Cells>
<PointData  Vectors="(h, u)"> 
<DataArray  type="Float64"  Name="(h, u)"  NumberOfComponents="3" format="ascii">1.0662684095586152e+00 0.0000000000000000e+00 0.0000000000000000e+00  1.0662866364834842e+00 1.1249984310990788e-02 0.0000000000000000e+00  1.0663406416130328e+00 2.2493150216994835e-02 0.0000000000000000e+00  1.0664313857872620e+00 3.3722432122672723e-02 0.0000000000000000e+00  1.0665584771170589e+00 4.4931182849104717e-02 0.0000000000000000e+00  1.0667231610181098e+00 5.6112017176994086e-02 0.0000000000000000e+00  1.0669253256559061e+00 6.7258387029999520e-02 0.0000000000000000e+00  1.0671664975899997e+00 7.8362526203932151e-02 0.0000000000000000e+00  1.0674468379080879e+00 8.9417925393391828e-02 0.0000000000000000e+00  1.0677681463436384e+00 1.0041639555937069e-01 0.0000000000000000e+00  1.0681308441910411e+00 1.1135142683223818e-01 0.0000000000000000e+00  1.0685369891407623e+00 1.2221439492500094e-01 0.0000000000000000e+00  1.0689872412625960e+00 1.3299878199126663e-01 0.0000000000000000e+00  1.0694838900855443e+00 1.4369555723137248e-01 0.0000000000000000e+00  1.0700278002831105e+00 1.5429823204856080e-01 0.0000000000000000e+00  1.0706214517703307e+00 1.6479745228311377e-01 0.0000000000000000e+00  1.0712658622671989e+00 1.7518685435068643e-01 0.0000000000000000e+00  1.0719636404874644e+00 1.8545691205306913e-01 0.0000000000000000e+00  1.0727158835661177e+00 1.9560155456201039e-01 0.0000000000000000e+00  1.0735252429028539e+00 2.0561131508849284e-01 0.0000000000000000e+00  1.0743927956128889e+00 2.1548066528157445e-01 0.0000000000000000e+00  1.0753211224105150e+00 2.2520051575020142e-01 0.0000000000000000e+00  1.0763111538727603e+00 2.3476621437516895e-01 0.0000000000000000e+00  1.0773652600317871e+00 2.4416944941736463e-01 0.0000000000000000e+00  1.0784840743640953e+00 2.5340685126461621e-01 0.0000000000000000e+00  1.0796695955378235e+00 2.6247134758330976e-01 0.0000000000000000e+00  1.0809219945515611e+00 2.7136129944264159e-01 0.0000000000000000e+00  1.0822427302012350e+00 2.8007135520714632e-01 0.0000000000000000e+00  1.0836313473587424e+00 2.8860204378666349e-01 0.0000000000000000e+00  1.0850886087711646e+00 2.9695017103981530e-01 0.0000000000000000e+00  1.0866132944928344e+00 3.0511878684632976e-01 0.0000000000000000e+00  1.0882053529530613e+00 3.1310716670256106e-01 0.0000000000000000e+00  1.0898627122688107e+00 3.2092106760797950e-01 0.0000000000000000e+00  1.0915844523980296e+00 3.2856234039552035e-01 0.0000000000000000e+00  1.0933676377989079e+00 3.3603939385610571e-01 0.0000000000000000e+00  1.0952105094853308e+00 3.4335649129907131e-01 0.0000000000000000e+00  1.0971093450877865e+00 3.5052435308790503e-01 0.0000000000000000e+00  1.0990616649578671e+00 3.5754920299512655e-01 0.0000000000000000e+00  1.1010631207365718e+00 3.6444345406599077e-01 0.0000000000000000e+00  1.1031107043233217e+00 3.7121458299769328e-01 0.0000000000000000e+00  1.1051996609017518e+00 3.7787585835294207e-01 0.0000000000000000e+00  1.1073266850872427e+00 3.8443512928678780e-01 0.0000000000000000e+00  1.1094868505022437e+00 3.9090556321501668e-01 0.0000000000000000e+00  1.1116767749872760e+00 3.9729443393963215e-01 0.0000000000000000e+00  1.1138915571004460e+00 4.0361383398487560e-01 0.0000000000000000e+00  1.1161278921046285e+00 4.0986953405133275e-01 0.0000000000000000e+00  1.1183810056934080e+00 4.1607162215054827e-01 0.0000000000000000e+00  1.1206477032293662e+00 4.2222348151491479e-01 0.0000000000000000e+00  1.1229232905431872e+00 4.2833228511580762e-01 0.0000000000000000e+00  1.1252045378116518e+00 4.3439810351165969e-01 0.0000000000000000e+00  1.1274865730640069e+00 4.4042414898320253e-01 0.0000000000000000e+00  1.1297657351100161e+00 4.4640597601751364e-01 0.0000000000000000e+00  1.1320364127485720e+00 4.5234131841010017e-01 0.0000000000000000e+00  1.1342937427465980e+00 4.5821927315133160e-01 0.0000000000000000e+00  1.1365303400975417e+00 4.6402949072691690e-01 0.0000000000000000e+00  1.1387387591785019e+00 4.6975111600598335e-01 0.0000000000000000e+00  1.1409080080294662e+00 4.7536094716537336e-01 0.0000000000000000e+00  1.1430256218812931e+00 4.8082170824964793e-01 0.0000000000000000e+00  1.1450737643393123e+00 4.8608854327627260e-01 0.0000000000000000e+00  1.1470306496343670e+00 4.9109587113930403e-01 0.0000000000000000e+00  1.1488658970547045e+00 4.9576119470749841e-01 0.0000000000000000e+00  1.1505408850294907e+00 4.9996933798864118e-01 0.0000000000000000e+00  1.1520028740485160e+00 5.0357209900058297e-01 0.0000000000000000e+00  1.1531837719933786e+00 5.0636832193341241e-01 0.0000000000000000e+00  1.1539925759637200e+00 5.0809793877292964e-01 0.0000000000000000e+00  1.1543123745219874e+00 5.0841716604915632e-01 0.0000000000000000e+00  1.1539916195597890e+00 5.0688798822500614e-01 0.0000000000000000e+00  1.1528412595333106e+00 5.0295333164624656e-01 0.0000000000000000e+00  1.1506292551371191e+00 4.9593377818530227e-01 0.0000000000000000e+00  1.1470863586964379e+00 4.8502618995648272e-01 0.0000000000000000e+00  1.1419182799486858e+00 4.6934835126607793e-01 0.0000000000000000e+00  1.1348413128350501e+00 4.4802291877379369e-01 0.0000000000000000e+00  1.1256377230675516e+00 4.2034832950620171e-01 0.0000000000000000e+00  1.1142411982561105e+00 3.8603727951966954e-01 0.0000000000000000e+00  1.1008284487498157e+00 3.4551308578718654e-01 0.0000000000000000e+00  1.0858907192480132e+00 3.0013883720821366e-01 0.0000000000000000e+00  1.0702239143244801e+00 2.5224228246897856e-01 0.0000000000000000e+00  1.0548096719684068e+00 2.0478253605107835e-01 0.0000000000000000e+00  1.0405991231994021e+00 1.6071563714630654e-01 0.0000000000000000e+00  1.0282976590329522e+00 1.2229991803136243e-01 0.0000000000000000e+00  1.0182431278172106e+00 9.0687927951003250e-02 0.0000000000000000e+00  1.0104243062344329e+00 6.5933669526277897e-02 0.0000000000000000e+00  1.0045883615943891e+00 4.7317769579061919e-02 0.0000000000000000e+00  1.0003731649321315e+00 3.3747480286150482e-02 0.0000000000000000e+00  9.9740501837995943e-01 2.4078550908349015e-02 0.0000000000000000e+00  9.9535643615770941e-01 1.7293876353795028e-02 0.0000000000000000e+00  9.9396408603416175e-01 1.2575148119245773e-02 0.0000000000000000e+00  9.9303013238282822e-01 9.3013700275011869e-03 0.0000000000000000e+00  9.9241017447338875e-01 7.0220672261580054e-03 0.0000000000000000e+00  9.9200321864541507e-01 5.4179711208313290e-03 0.0000000000000000e+00  9.9173848693905053e-01 4.2686570638303511e-03 0.0000000000000000e+00  9.9156856319856668e-01 3.4228450388513040e-03 0.0000000000000000e+00  9.9146056595773302e-01 2.7789082144201093e-03 0.0000000000000000e+00  9.9139334654427036e-01 2.2681338303061241e-03 0.0000000000000000e+00  9.9135198718978590e-01 1.8451906769286416e-03 0.0000000000000000e+00  9.9132749164089207e-01 1.4795532908462845e-03 0.0000000000000000e+00  9.9131311397250921e-01 1.1513225981263726e-03 0.0000000000000000e+00  9.9130532559158280e-01 8.4696400493167992e-04 0.0000000000000000e+00  9.9130104893615678e-01 5.5758056575345386e-04 0.0000000000000000e+00  9.9129923829122979e-01 2.7680426956897013e-04 0.0000000000000000e+00  9.9129855174180259e-01 2.4445089435996909e-16 0.0000000000000000e+00  9.9129923829122968e-01 -2.7680426956865582e-04 0.0000000000000000e+00  9.9130104893615667e-01 -5.5758056575360630e-04 0.0000000000000000e+00  9.9130532559158269e-01 -8.4696400493219708e-04 0.0000000000000000e+00  9.9131311397250899e-01 -1.1513225981269960e-03 0.0000000000000000e+00  9.9132749164089207e-01 -1.4795532908470916e-03 0.0000000000000000e+00  9.9135198718978557e-01 -1.8451906769290606e-03 0.0000000000000000e+00  9.9139334654427036e-01 -2.2681338303063019e-03 0.0000000000000000e+00  9.9146056595773246e-01 -2.7789082144202091e-03 0.0000000000000000e+00  9.9156856319856668e-01 -3.4228450388510850e-03 0.0000000000000000e+00  9.9173848693905009e-01 -4.2686570638293874e-03 0.0000000000000000e+00  9.9200321864541519e-01 -5.4179711208310966e-03 0.0000000000000000e+00  9.9241017447338820e-01 -7.0220672261575882e-03 0.0000000000000000e+00  9.9303013238282845e-01 -9.3013700275013031e-03 0.0000000000000000e+00  9.9396408603416164e-01 -1.2575148119246649e-02 0.0000000000000000e+00  9.9535643615770997e-01 -1.7293876353795867e-02 0.0000000000000000e+00  9.9740501837995943e-01 -2.4078550908349761e-02 0.0000000000000000e+00  1.0003731649321319e+00 -3.3747480286150607e-02 0.0000000000000000e+00  1.0045883615943891e+00 -4.7317769579061870e-02 0.0000000000000000e+00  1.0104243062344336e+00 -6.5933669526277675e-02 0.0000000000000000e+00  1.0182431278172108e+00 -9.0687927951003236e-02 0.0000000000000000e+00  1.0282976590329531e+00 -1.2229991803136281e-01 0.0000000000000000e+00  1.0405991231994023e+00 -1.6071563714630607e-01 0.0000000000000000e+00  1.0548096719684081e+00 -2.0478253605107932e-01 0.0000000000000000e+00  1.0702239143244805e+00 -2.5224228246897973e-01 0.0000000000000000e+00  1.0858907192480143e+00 -3.0013883720821505e-01 0.0000000000000000e+00  1.1008284487498159e+00 -3.4551308578718692e-01 0.0000000000000000e+00  1.1142411982561116e+00 -3.8603727951967015e-01 0.0000000000000000e+00  1.1256377230675516e+00 -4.2034832950620177e-01 0.0000000000000000e+00  1.1348413128350512e+00 -4.4802291877379330e-01 0.0000000000000000e+00  1.1419182799486856e+00 -4.6934835126607788e-01 0.0000000000000000e+00  1.1470863586964386e+00 -4.8502618995648311e-01 0.0000000000000000e+00  1.1506292551371187e+00 -4.9593377818530265e-01 0.0000000000000000e+00  1.1528412595333111e+00 -5.0295333164624800e-01 0.0000000000000000e+00  1.1539916195597884e+00 -5.0688798822500603e-01 0.0000000000000000e+00  1.1543123745219874e+00 -5.0841716604915854e-01 0.0000000000000000e+00  1.1539925759637195e+00 -5.0809793877292897e-01 0.0000000000000000e+00  1.1531837719933788e+00 -5.0636832193341330e-01 0.0000000000000000e+00  1.1520028740485151e+00 -5.0357209900058186e-01 0.0000000000000000e+00  1.1505408850294907e+00 -4.9996933798864196e-01 0.0000000000000000e+00  1.1488658970547039e+00 -4.9576119470749713e-01 0.0000000000000000e+00  1.1470306496343670e+00 -4.9109587113930470e-01 0.0000000000000000e+00  1.1450737643393114e+00 -4.8608854327627110e-01 0.0000000000000000e+00  1.1430256218812929e+00 -4.8082170824964882e-01 0.0000000000000000e+00  1.1409080080294651e+00 -4.7536094716537192e-01 0.0000000000000000e+00  1.1387387591785019e+00 -4.6975111600598418e-01 0.0000000000000000e+00  1.1365303400975408e+00 -4.6402949072691485e-01 0.0000000000000000e+00  1.1342937427465978e+00 -4.5821927315133304e-01 0.0000000000000000e+00  1.1320364127485709e+00 -4.5234131841009789e-01 0.0000000000000000e+00  1.1297657351100161e+00 -4.4640597601751486e-01 0.0000000000000000e+00  1.1274865730640058e+00 -4.4042414898320104e-01 0.0000000000000000e+00  1.1252045378116518e+00 -4.3439810351166175e-01 0.0000000000000000e+00  1.1229232905431865e+00 -4.2833228511580607e-01 0.0000000000000000e+00  1.1206477032293665e+00 -4.2222348151491618e-01 0.0000000000000000e+00  1.1183810056934071e+00 -4.1607162215054722e-01 0.0000000000000000e+00  1.1161278921046287e+00 -4.0986953405133419e-01 0.0000000000000000e+00  1.1138915571004453e+00 -4.0361383398487422e-01 0.0000000000000000e+00  1.1116767749872762e+00 -3.9729443393963237e-01 0.0000000000000000e+00  1.1094868505022430e+00 -3.9090556321501413e-01 0.0000000000000000e+00  1.1073266850872430e+00 -3.8443512928678686e-01 0.0000000000000000e+00  1.1051996609017516e+00 -3.7787585835293991e-01 0.0000000000000000e+00  1.1031107043233219e+00 -3.7121458299769194e-01 0.0000000000000000e+00  1.1010631207365711e+00 -3.6444345406598849e-01 0.0000000000000000e+00  1.0990616649578668e+00 -3.5754920299512694e-01 0.0000000000000000e+00  1.0971093450877860e+00 -3.5052435308790258e-01 0.0000000000000000e+00  1.0952105094853299e+00 -3.4335649129907236e-01 0.0000000000000000e+00  1.0933676377989072e+00 -3.3603939385610371e-01 0.0000000000000000e+00  1.0915844523980285e+00 -3.2856234039552257e-01 0.0000000000000000e+00  1.0898627122688100e+00 -3.2092106760797873e-01 0.0000000000000000e+00  1.0882053529530606e+00 -3.1310716670256389e-01 0.0000000000000000e+00  1.0866132944928342e+00 -3.0511878684632809e-01 0.0000000000000000e+00  1.0850886087711642e+00 -2.9695017103981824e-01 0.0000000000000000e+00  1.0836313473587422e+00 -2.8860204378666371e-01 0.0000000000000000e+00  1.0822427302012347e+00 -2.8007135520714838e-01 0.0000000000000000e+00  1.0809219945515609e+00 -2.7136129944264070e-01 0.0000000000000000e+00  1.0796695955378233e+00 -2.6247134758331103e-01 0.0000000000000000e+00  1.0784840743640947e+00 -2.5340685126461587e-01 0.0000000000000000e+00  1.0773652600317869e+00 -2.4416944941736640e-01 0.0000000000000000e+00  1.0763111538727594e+00 -2.3476621437516770e-01 0.0000000000000000e+00  1.0753211224105153e+00 -2.2520051575020247e-01 0.0000000000000000e+00  1.0743927956128885e+00 -2.1548066528157356e-01 0.0000000000000000e+00  1.0735252429028543e+00 -2.0561131508849353e-01 0.0000000000000000e+00  1.0727158835661172e+00 -1.9560155456200887e-01 0.0000000000000000e+00  1.0719636404874646e+00 -1.8545691205306977e-01 0.0000000000000000e+00  1.0712658622671984e+00 -1.7518685435068546e-01 0.0000000000000000e+00  1.0706214517703310e+00 -1.6479745228311429e-01 0.0000000000000000e+00  1.0700278002831101e+00 -1.5429823204855919e-01 0.0000000000000000e+00  1.0694838900855443e+00 -1.4369555723137284e-01 0.0000000000000000e+00  1.0689872412625954e+00 -1.3299878199126597e-01 0.0000000000000000e+00  1.0685369891407626e+00 -1.2221439492500163e-01 0.0000000000000000e+00  1.0681308441910400e+00 -1.1135142683223868e-01 0.0000000000000000e+00  1.0677681463436386e+00 -1.0041639555937211e-01 0.0000000000000000e+00  1.0674468379080873e+00 -8.9417925393392120e-02 0.0000000000000000e+00  1.0671664975900002e+00 -7.8362526203933219e-02 0.0000000000000000e+00  1.0669253256559055e+00 -6.7258387030000269e-02 0.0000000000000000e+00  1.0667231610181100e+00 -5.6112017176994766e-02 0.0000000000000000e+00  1.0665584771170582e+00 -4.4931182849104308e-02 0.0000000000000000e+00  1.0664313857872620e+00 -3.3722432122671064e-02 0.0000000000000000e+00  1.0663406416130319e+00 -2.2493150216993989e-02 0.0000000000000000e+00  1.0662866364834840e+00 -1.1249984310990790e-02 0.0000000000000000e+00  1.0662684095586141e+00 0.0000000000000000e+00 0.0000000000000000e+00  </DataArray> 
</PointData> 
</Piece>
</UnstructuredGrid>
</VTKFile>