<?xml version="1.0"?>
<VTKFile type="UnstructuredGrid"  version="0.1"  >
<UnstructuredGrid>
<Piece  NumberOfPoints="201" NumberOfCells="200">
<Points>
<DataArray  type="Float64"  NumberOfComponents="3"  format="ascii">-5 0 0  -4.95 0 0  -4.9 0 0  -4.85 0 0  -4.8 0 0  -4.75 0 0  -4.7 0 0  -4.65 0 0  -4.6 0 0  -4.55 0 0  -4.5 0 0  -4.45 0 0  -4.4 0 0  -4.35 0 0  -4.3 0 0  -4.25 0 0  -4.2 0 0  -4.15 0 0  -4.1 0 0  -4.05 0 0  -4 0 0  -3.95 0 0  -3.9 0 0  -3.85 0 0  -3.8 0 0  -3.75 0 0  -3.7 0 0  -3.65 0 0  -3.6 0 0  -3.55 0 0  -3.5 0 0  -3.45 0 0  -3.4 0 0  -3.35 0 0  -3.3 0 0  -3.25 0 0  -3.2 0 0  -3.15 0 0  -3.1 0 0  -3.05 0 0  -3 0 0  -2.95 0 0  -2.9 0 0  -2.85 0 0  -2.8 0 0  -2.75 0 0  -2.7 0 0  -2.65 0 0  -2.6 0 0  -2.55 0 0  -2.5 0 0  -2.45 0 0  -2.4 0 0  -2.35 0 0  -2.3 0 0  -2.25 0 0  -2.2 0 0  -2.15 0 0  -2.1 0 0  -2.05 0 0  -2 0 0  -1.95 0 0  -1.9 0 0  -1.85 0 0  -1.8 0 0  -1.75 0 0  -1.7 0 0  -1.65 0 0  -1.6 0 0  -1.55 0 0  -1.5 0 0  -1.45 0 0  -1.4 0 0  -1.35 0 0  -1.3 0 0  -1.25 0 0  -1.2 0 0  -1.15 0 0  -1.1 0 0  -1.05 0 0  -1 0 0  -0.9500000000000002 0 0  -0.9000000000000004 0 0  -0.8499999999999996 0 0  -0.7999999999999998 0 0  -0.75 0 0  -0.7000000000000002 0 0  -0.6500000000000004 0 0  -0.5999999999999996 0 0  -0.5499999999999998 0 0  -0.5 0 0  -0.4500000000000002 0 0  -0.4000000000000004 0 0  -0.3499999999999996 0 0  -0.2999999999999998 0 0  -0.25 0 0  -0.2000000000000002 0 0  -0.1500000000000004 0 0  -0.09999999999999964 0 0  -0.04999999999999982 0 0  0 0 0  0.04999999999999982 0 0  0.09999999999999964 0 0  0.1500000000000004 0 0  0.2000000000000002 0 0  0.25 0 0  0.2999999999999998 0 0  0.3499999999999996 0 0  0.4000000000000004 0 0  0.4500000000000002 0 0  0.5 0 0  0.5499999999999998 0 0  0.5999999999999996 0 0  0.6500000000000004 0 0  0.7000000000000002 0 0  0.75 0 0  0.7999999999999998 0 0  0.8499999999999996 0 0  0.9000000000000004 0 0  0.9500000000000002 0 0  1 0 0  1.05 0 0  1.1 0 0  1.15 0 0  1.2 0 0  1.25 0 0  1.3 0 0  1.35 0 0  1.4 0 0  1.45 0 0  1.5 0 0  1.55 0 0  1.6 0 0  1.65 0 0  1.7 0 0  1.75 0 0  1.8 0 0  1.85 0 0  1.9 0 0  1.95 0 0  2 0 0  2.05 0 0  2.1 0 0  2.15 0 0  2.2 0 0  2.25 0 0  2.3 0 0  2.35 0 0  2.4 0 0  2.45 0 0  2.5 0 0  2.55 0 0  2.6 0 0  2.65 0 0  2.7 0 0  2.75 0 0  2.8 0 0  2.85 0 0  2.9 0 0  2.95 0 0  3 0 0  3.050000000000001 0 0  3.1 0 0  3.15 0 0  3.199999999999999 0 0  3.25 0 0  3.300000000000001 0 0  3.35 0 0  3.4 0 0  3.449999999999999 0 0  3.5 0 0  3.550000000000001 0 0  3.6 0 0  3.65 0 0  3.699999999999999 0 0  3.75 0 0  3.800000000000001 0 0  3.85 0 0  3.9 0 0  3.949999999999999 0 0  4 0 0  4.050000000000001 0 0  4.1 0 0  4.15 0 0  4.199999999999999 0 0  4.25 0 0  4.300000000000001 0 0  4.35 0 0  4.4 0 0  4.449999999999999 0 0  4.5 0 0  4.550000000000001 0 0  4.6 0 0  4.65 0 0  4.699999999999999 0 0  4.75 0 0  4.800000000000001 0 0  4.85 0 0  4.9 0 0  4.949999999999999 0 0  5 0 0  </DataArray>
</Points>
<Cells>
<DataArray  type="UInt32"  Name="connectivity"  format="ascii">0 1  1 2  2 3  3 4  4 5  5 6  6 7  7 8  8 9  9 10  10 11  11 12  12 13  13 14  14 15  15 16  16 17  17 18  18 19  19 20  20 21  21 22  22 23  23 24  24 25  25 26  26 27  27 28  28 29  29 30  30 31  31 32  32 33  33 34  34 35  35 36  36 37  37 38  38 39  39 40  40 41  41 42  42 43  43 44  44 45  45 46  46 47  47 48  48 49  49 50  50 51  51 52  52 53  53 54  54 55  55 56  56 57  57 58  58 59  59 60  60 61  61 62  62 63  63 64  64 65  65 66  66 67  67 68  68 69  69 70  70 71  71 72  72 73  73 74  74 75  75 76  76 77  77 78  78 79  79 80  80 81  81 82  82 83  83 84  84 85  85 86  86 87  87 88  88 89  89 90  90 91  91 92  92 93  93 94  94 95  95 96  96 97  97 98  98 99  99 100  100 101  101 102  102 103  103 104  104 105  105 106  106 107  107 108  108 109  109 110  110 111  111 112  112 113  113 114  114 115  115 116  116 117  117 118  118 119  119 120  120 121  121 122  122 123  123 124  124 125  125 126  126 127  127 128  128 129  129 130  130 131  131 132  132 133  133 134  134 135  135 136  136 137  137 138  138 139  139 140  140 141  141 142  142 143  143 144  144 145  145 146  146 147  147 148  148 149  149 150  150 151  151 152  152 153  153 154  154 155  155 156  156 157  157 158  158 159  159 160  160 161  161 162  162 163  163 164  164 165  165 166  166 167  167 168  168 169  169 170  170 171  171 172  172 173  173 174  174 175  175 176  176 177  177 178  178 179  179 180  180 181  181 182  182 183  183 184  184 185  185 186  186 187  187 188  188 189  189 190  190 191  191 192  192 193  193 194  194 195  195 196  196 197  197 198  198 199  199 200  </DataArray>
<DataArray  type="UInt32"  Name="offsets"  format="ascii">2 4 6 8 10 12 14 16 18 20 22 24 26 28 30 32 34 36 38 40 42 44 46 48 50 52 54 56 58 60 62 64 66 68 70 72 74 76 78 80 82 84 86 88 90 92 94 96 98 100 102 104 106 108 110 112 114 116 118 120 122 124 126 128 130 132 134 136 138 140 142 144 146 148 150 152 154 156 158 160 162 164 166 168 170 172 174 176 178 180 182 184 186 188 190 192 194 196 198 200 202 204 206 208 210 212 214 216 218 220 222 224 226 228 230 232 234 236 238 240 242 244 246 248 250 252 254 256 258 260 262 264 266 268 270 272 274 276 278 280 282 284 286 288 290 292 294 296 298 300 302 304 306 308 310 312 314 316 318 320 322 324 326 328 330 332 334 336 338 340 342 344 346 348 350 352 354 356 358 360 362 364 366 368 370 372 374 376 378 380 382 384 386 388 390 392 394 396 398 400 </DataArray>
<DataArray  type="UInt8"  Name="types"  format="ascii">3 3 3 3 3 3 3 3 3 3 3 3 3 3 3 3 3 3 3 3 3 3 3 3 3 3 3 3 3 3 3 3 3 3 3 3 3 3 3 3 3 3 3 3 3 3 3 3 3 3 3 3 3 3 3 3 3 3 3 3 3 3 3 3 3 3 3 3 3 3 3 3 3 3 3 3 3 3 3 3 3 3 3 3 3 3 3 3 3 3 3 3 3 3 3 3 3 3 3 3 3 3 3 3 3 3 3 3 3 3 3 3 3 3 3 3 3 3 3 3 3 3 3 3 3 3 3 3 3 3 3 3 3 3 3 3 3 3 3 3 3 3 3 3 3 3 3 3 3 3 3 3 3 3 3 3 3 3 3 3 3 3 3 3 3 3 3 3 3 3 3 3 3 3 3 3 3 3 3 3 3 3 3 3 3 3 3 3 3 3 3 3 3 3 3 3 3 3 3 3 </DataArray>
</Cells>
<PointData  Vectors="(h, u)"> 
<DataArray  type="Float64"  Name="(h, u)"  NumberOfComponents="3" format="ascii">9.8429469195717934e-01 0.0000000000000000e+00 0.0000000000000000e+00  9.8429073034025927e-01 -8.8067815552433926e-04 0.0000000000000000e+00  9.8427780875628168e-01 -1.7614922392737912e-03 0.0000000000000000e+00  9.8425727312741740e-01 -2.6422146409733629e-03 0.0000000000000000e+00  9.8422844190412695e-01 -3.5224786093855254e-03 0.0000000000000000e+00  9.8419310587298947e-01 -4.4007572197587034e-03 0.0000000000000000e+00  9.8415116896909094e-01 -5.2751180471455666e-03 0.0000000000000000e+00  9.8410519024664989e-01 -6.1414861961018169e-03 0.0000000000000000e+00  9.8405607712633225e-01 -6.9949086597295542e-03 0.0000000000000000e+00  9.8400765966250570e-01 -7.8270837153875204e-03 0.0000000000000000e+00  9.8396242247124033e-01 -8.6281837977182294e-03 0.0000000000000000e+00  9.8392608075857957e-01 -9.3837084282891430e-03 0.0000000000000000e+00  9.8390331086715033e-01 -1.0077011655409654e-02 0.0000000000000000e+00  9.8390227023556609e-01 -1.0685626993327499e-02 0.0000000000000000e+00  9.8393026084677360e-01 -1.1184735034403958e-02 0.0000000000000000e+00  9.8399811865559283e-01 -1.1543163921720048e-02 0.0000000000000000e+00  9.8411574082243702e-01 -1.1728048109745259e-02 0.0000000000000000e+00  9.8429628645136857e-01 -1.1700657319835394e-02 0.0000000000000000e+00  9.8455153585313537e-01 -1.1422380638746277e-02 0.0000000000000000e+00  9.8489590252424919e-01 -1.0850352521475299e-02 0.0000000000000000e+00  9.8534166551977098e-01 -9.9446639667635766e-03 0.0000000000000000e+00  9.8590287034915991e-01 -8.6635058268750634e-03 0.0000000000000000e+00  9.8659054663018697e-01 -6.9712792851690623e-03 0.0000000000000000e+00  9.8741662634047411e-01 -4.8328138856255452e-03 0.0000000000000000e+00  9.8838928171470430e-01 -2.2219730836250530e-03 0.0000000000000000e+00  9.8951697717894116e-01 8.8545611980294194e-04 0.0000000000000000e+00  9.9080402041187277e-01 4.5029350651947823e-03 0.0000000000000000e+00  9.9225479646977344e-01 8.6417945152668599e-03 0.0000000000000000e+00  9.9386954692029261e-01 1.3302208216585733e-02 0.0000000000000000e+00  9.9564875485240423e-01 1.8483245152134752e-02 0.0000000000000000e+00  9.9758910099647735e-01 2.4173459412581744e-02 0.0000000000000000e+00  9.9968791891927489e-01 3.0362129016609087e-02 0.0000000000000000e+00  1.0019392520406634e+00 3.7029200673962211e-02 0.0000000000000000e+00  1.0043382920033417e+00 4.4157444370051403e-02 0.0000000000000000e+00  1.0068774734812744e+00 5.1721540048137150e-02 0.0000000000000000e+00  1.0095508311653572e+00 5.9700943784541077e-02 0.0000000000000000e+00  1.0123500996510015e+00 6.8068009454673117e-02 0.0000000000000000e+00  1.0152689541788991e+00 7.6801451832334264e-02 0.0000000000000000e+00  1.0182991117891749e+00 8.5873498084434396e-02 0.0000000000000000e+00  1.0214344438818859e+00 9.5263899855479589e-02 0.0000000000000000e+00  1.0246670934838404e+00 1.0494617817648541e-01 0.0000000000000000e+00  1.0279914599561033e+00 1.1490216801839398e-01 0.0000000000000000e+00  1.0314003553663074e+00 1.2510745487763106e-01 0.0000000000000000e+00  1.0348888654368549e+00 1.3554643872799590e-01 0.0000000000000000e+00  1.0384505690308545e+00 1.4619707209395258e-01 0.0000000000000000e+00  1.0420812784839912e+00 1.5704641839628727e-01 0.0000000000000000e+00  1.0457753436520028e+00 1.6807480122696020e-01 0.0000000000000000e+00  1.0495292721426781e+00 1.7927181491950639e-01 0.0000000000000000e+00  1.0533381356357867e+00 1.9061999065457502e-01 0.0000000000000000e+00  1.0571990679788139e+00 2.0211120058894563e-01 0.0000000000000000e+00  1.0611077877896156e+00 2.1372994210299354e-01 0.0000000000000000e+00  1.0650619706272568e+00 2.2547006353616189e-01 0.0000000000000000e+00  1.0690578986555408e+00 2.3731776452848721e-01 0.0000000000000000e+00  1.0730937022807534e+00 2.4926856193622629e-01 0.0000000000000000e+00  1.0771661449316188e+00 2.6131010173850250e-01 0.0000000000000000e+00  1.0812737295296329e+00 2.7343927776190080e-01 0.0000000000000000e+00  1.0854136241265235e+00 2.8564494849117544e-01 0.0000000000000000e+00  1.0895846291125020e+00 2.9792511824098694e-01 0.0000000000000000e+00  1.0937842474239705e+00 3.1026964985817274e-01 0.0000000000000000e+00  1.0980115092650800e+00 3.2267741732794597e-01 0.0000000000000000e+00  1.1022641887544644e+00 3.3513910232313943e-01 0.0000000000000000e+00  1.1065414839146039e+00 3.4765422832685339e-01 0.0000000000000000e+00  1.1108413798805212e+00 3.6021412491824600e-01 0.0000000000000000e+00  1.1151631827812936e+00 3.7281875571582079e-01 0.0000000000000000e+00  1.1195050278824004e+00 3.8545992886038721e-01 0.0000000000000000e+00  1.1238662664934529e+00 3.9813783367470373e-01 0.0000000000000000e+00  1.1282451154776283e+00 4.1084456853971507e-01 0.0000000000000000e+00  1.1326408961169929e+00 4.2358030301788629e-01 0.0000000000000000e+00  1.1370518189315886e+00 4.3633718430359864e-01 0.0000000000000000e+00  1.1414770719341818e+00 4.4911504081871667e-01 0.0000000000000000e+00  1.1459147309162236e+00 4.6190571373256312e-01 0.0000000000000000e+00  1.1503636906580696e+00 4.7470821135335040e-01 0.0000000000000000e+00  1.1548216842780801e+00 4.8751348882130680e-01 0.0000000000000000e+00  1.1592870426826325e+00 5.0031894355713147e-01 0.0000000000000000e+00  1.1637567943155034e+00 5.1311362566970975e-01 0.0000000000000000e+00  1.1682282214320920e+00 5.2589192041497557e-01 0.0000000000000000e+00  1.1726969879061562e+00 5.3863909623957862e-01 0.0000000000000000e+00  1.1771584279743528e+00 5.5134392394551812e-01 0.0000000000000000e+00  1.1816056036055267e+00 5.6398432023820788e-01 0.0000000000000000e+00  1.1860301972292637e+00 5.7653844804770404e-01 0.0000000000000000e+00  1.1904203110269420e+00 5.8896990753972700e-01 0.0000000000000000e+00  1.1947607130440250e+00 6.0123642414244938e-01 0.0000000000000000e+00  1.1990300243629952e+00 6.1327339479052323e-01 0.0000000000000000e+00  1.2031998480750725e+00 6.2499833373326030e-01 0.0000000000000000e+00  1.2072307064997814e+00 6.3629021594649049e-01 0.0000000000000000e+00  1.2110692418275435e+00 6.4698587366578331e-01 0.0000000000000000e+00  1.2146418971005826e+00 6.5684975542651292e-01 0.0000000000000000e+00  1.2178490908763953e+00 6.6555451442144331e-01 0.0000000000000000e+00  1.2205556730770830e+00 6.7263049650900897e-01 0.0000000000000000e+00  1.2225818902502850e+00 6.7741610574010958e-01 0.0000000000000000e+00  1.2236925090576436e+00 6.7896915443032302e-01 0.0000000000000000e+00  1.2235912202392125e+00 6.7596760451746740e-01 0.0000000000000000e+00  1.2219244307528578e+00 6.6656923276276903e-01 0.0000000000000000e+00  1.2183117135101700e+00 6.4827273184683276e-01 0.0000000000000000e+00  1.2124215034136550e+00 6.1779824236361258e-01 0.0000000000000000e+00  1.2041207620258252e+00 5.7111620574507271e-01 0.0000000000000000e+00  1.1937045283448706e+00 5.0380125283565536e-01 0.0000000000000000e+00  1.1821552885370812e+00 4.1201761634308326e-01 0.0000000000000000e+00  1.1712591699169566e+00 2.9432186110293795e-01 0.0000000000000000e+00  1.1633270662528847e+00 1.5393069961755748e-01 0.0000000000000000e+00  1.1604064259603073e+00 2.1267569264041740e-15 0.0000000000000000e+00  1.1633270662528845e+00 -1.5393069961755310e-01 0.0000000000000000e+00  1.1712591699169561e+00 -2.9432186110293418e-01 0.0000000000000000e+00  1.1821552885370807e+00 -4.1201761634307976e-01 0.0000000000000000e+00  1.1937045283448704e+00 -5.0380125283565336e-01 0.0000000000000000e+00  1.2041207620258250e+00 -5.7111620574507205e-01 0.0000000000000000e+00  1.2124215034136547e+00 -6.1779824236361292e-01 0.0000000000000000e+00  1.2183117135101700e+00 -6.4827273184683276e-01 0.0000000000000000e+00  1.2219244307528576e+00 -6.6656923276277125e-01 0.0000000000000000e+00  1.2235912202392130e+00 -6.7596760451746762e-01 0.0000000000000000e+00  1.2236925090576436e+00 -6.7896915443032613e-01 0.0000000000000000e+00  1.2225818902502856e+00 -6.7741610574010924e-01 0.0000000000000000e+00  1.2205556730770830e+00 -6.7263049650901108e-01 0.0000000000000000e+00  1.2178490908763957e+00 -6.6555451442144342e-01 0.0000000000000000e+00  1.2146418971005826e+00 -6.5684975542651425e-01 0.0000000000000000e+00  1.2110692418275435e+00 -6.4698587366578331e-01 0.0000000000000000e+00  1.2072307064997811e+00 -6.3629021594649204e-01 0.0000000000000000e+00  1.2031998480750725e+00 -6.2499833373325975e-01 0.0000000000000000e+00  1.1990300243629952e+00 -6.1327339479052478e-01 0.0000000000000000e+00  1.1947607130440248e+00 -6.0123642414244904e-01 0.0000000000000000e+00  1.1904203110269416e+00 -5.8896990753972933e-01 0.0000000000000000e+00  1.1860301972292633e+00 -5.7653844804770504e-01 0.0000000000000000e+00  1.1816056036055269e+00 -5.6398432023821010e-01 0.0000000000000000e+00  1.1771584279743526e+00 -5.5134392394551790e-01 0.0000000000000000e+00  1.1726969879061564e+00 -5.3863909623957873e-01 0.0000000000000000e+00  1.1682282214320918e+00 -5.2589192041497490e-01 0.0000000000000000e+00  1.1637567943155036e+00 -5.1311362566970986e-01 0.0000000000000000e+00  1.1592870426826323e+00 -5.0031894355713136e-01 0.0000000000000000e+00  1.1548216842780807e+00 -4.8751348882130624e-01 0.0000000000000000e+00  1.1503636906580699e+00 -4.7470821135334934e-01 0.0000000000000000e+00  1.1459147309162245e+00 -4.6190571373256267e-01 0.0000000000000000e+00  1.1414770719341820e+00 -4.4911504081871628e-01 0.0000000000000000e+00  1.1370518189315892e+00 -4.3633718430359786e-01 0.0000000000000000e+00  1.1326408961169929e+00 -4.2358030301788635e-01 0.0000000000000000e+00  1.1282451154776287e+00 -4.1084456853971502e-01 0.0000000000000000e+00  1.1238662664934529e+00 -3.9813783367470362e-01 0.0000000000000000e+00  1.1195050278824008e+00 -3.8545992886038760e-01 0.0000000000000000e+00  1.1151631827812936e+00 -3.7281875571582229e-01 0.0000000000000000e+00  1.1108413798805219e+00 -3.6021412491824661e-01 0.0000000000000000e+00  1.1065414839146042e+00 -3.4765422832685433e-01 0.0000000000000000e+00  1.1022641887544651e+00 -3.3513910232314037e-01 0.0000000000000000e+00  1.0980115092650804e+00 -3.2267741732794719e-01 0.0000000000000000e+00  1.0937842474239712e+00 -3.1026964985817274e-01 0.0000000000000000e+00  1.0895846291125024e+00 -2.9792511824098605e-01 0.0000000000000000e+00  1.0854136241265240e+00 -2.8564494849117489e-01 0.0000000000000000e+00  1.0812737295296333e+00 -2.7343927776190108e-01 0.0000000000000000e+00  1.0771661449316194e+00 -2.6131010173850244e-01 0.0000000000000000e+00  1.0730937022807541e+00 -2.4926856193622754e-01 0.0000000000000000e+00  1.0690578986555417e+00 -2.3731776452848616e-01 0.0000000000000000e+00  1.0650619706272575e+00 -2.2547006353616206e-01 0.0000000000000000e+00  1.0611077877896162e+00 -2.1372994210299268e-01 0.0000000000000000e+00  1.0571990679788144e+00 -2.0211120058894658e-01 0.0000000000000000e+00  1.0533381356357872e+00 -1.9061999065457363e-01 0.0000000000000000e+00  1.0495292721426783e+00 -1.7927181491950639e-01 0.0000000000000000e+00  1.0457753436520032e+00 -1.6807480122695950e-01 0.0000000000000000e+00  1.0420812784839915e+00 -1.5704641839628727e-01 0.0000000000000000e+00  1.0384505690308545e+00 -1.4619707209395230e-01 0.0000000000000000e+00  1.0348888654368551e+00 -1.3554643872799660e-01 0.0000000000000000e+00  1.0314003553663074e+00 -1.2510745487763028e-01 0.0000000000000000e+00  1.0279914599561035e+00 -1.1490216801839530e-01 0.0000000000000000e+00  1.0246670934838404e+00 -1.0494617817648534e-01 0.0000000000000000e+00  1.0214344438818861e+00 -9.5263899855480644e-02 0.0000000000000000e+00  1.0182991117891749e+00 -8.5873498084434799e-02 0.0000000000000000e+00  1.0152689541788991e+00 -7.6801451832336123e-02 0.0000000000000000e+00  1.0123500996510013e+00 -6.8068009454674658e-02 0.0000000000000000e+00  1.0095508311653572e+00 -5.9700943784544484e-02 0.0000000000000000e+00  1.0068774734812740e+00 -5.1721540048137740e-02 0.0000000000000000e+00  1.0043382920033421e+00 -4.4157444370055365e-02 0.0000000000000000e+00  1.0019392520406634e+00 -3.7029200673962245e-02 0.0000000000000000e+00  9.9968791891927544e-01 -3.0362129016612272e-02 0.0000000000000000e+00  9.9758910099647735e-01 -2.4173459412581717e-02 0.0000000000000000e+00  9.9564875485240478e-01 -1.8483245152137794e-02 0.0000000000000000e+00  9.9386954692029272e-01 -1.3302208216585027e-02 0.0000000000000000e+00  9.9225479646977377e-01 -8.6417945152696147e-03 0.0000000000000000e+00  9.9080402041187243e-01 -4.5029350651938803e-03 0.0000000000000000e+00  9.8951697717894149e-01 -8.8545611980588544e-04 0.0000000000000000e+00  9.8838928171470408e-01 2.2219730836263436e-03 0.0000000000000000e+00  9.8741662634047445e-01 4.8328138856233429e-03 0.0000000000000000e+00  9.8659054663018708e-01 6.9712792851707815e-03 0.0000000000000000e+00  9.8590287034916035e-01 8.6635058268732471e-03 0.0000000000000000e+00  9.8534166551977109e-01 9.9446639667657259e-03 0.0000000000000000e+00  9.8489590252424919e-01 1.0850352521474605e-02 0.0000000000000000e+00  9.8455153585313515e-01 1.1422380638748071e-02 0.0000000000000000e+00  9.8429628645136824e-01 1.1700657319833527e-02 0.0000000000000000e+00  9.8411574082243680e-01 1.1728048109745948e-02 0.0000000000000000e+00  9.8399811865559239e-01 1.1543163921718841e-02 0.0000000000000000e+00  9.8393026084677304e-01 1.1184735034404387e-02 0.0000000000000000e+00  9.8390227023556553e-01 1.0685626993326765e-02 0.0000000000000000e+00  9.8390331086715010e-01 1.0077011655410448e-02 0.0000000000000000e+00  9.8392608075857912e-01 9.3837084282886018e-03 0.0000000000000000e+00  9.8396242247124011e-01 8.6281837977186804e-03 0.0000000000000000e+00  9.8400765966250547e-01 7.8270837153869791e-03 0.0000000000000000e+00  9.8405607712633236e-01 6.9949086597301795e-03 0.0000000000000000e+00  9.8410519024664977e-01 6.1414861961021673e-03 0.0000000000000000e+00  9.8415116896909094e-01 5.2751180471459552e-03 0.0000000000000000e+00  9.8419310587298936e-01 4.4007572197584111e-03 0.0000000000000000e+00  9.8422844190412673e-01 3.5224786093852383e-03 0.0000000000000000e+00  9.8425727312741706e-01 2.6422146409730879e-03 0.0000000000000000e+00  9.8427780875628157e-01 1.7614922392737030e-03 0.0000000000000000e+00  9.8429073034025905e-01 8.8067815552433611e-04 0.0000000000000000e+00  9.8429469195717911e-01 0.0000000000000000e+00 0.0000000000000000e+00  </DataArray> 
</PointData> 
</Piece>
</UnstructuredGrid>
</VTKFile>