<?xml version="1.0"?>
<VTKFile type="UnstructuredGrid"  version="0.1"  >
<UnstructuredGrid>
<Piece  NumberOfPoints="201" NumberOfCells="200">
<Points>
<DataArray  type="Float64"  NumberOfComponents="3"  format="ascii">-5 0 0  -4.95 0 0  -4.9 0 0  -4.85 0 0  -4.8 0 0  -4.75 0 0  -4.7 0 0  -4.65 0 0  -4.6 0 0  -4.55 0 0  -4.5 0 0  -4.45 0 0  -4.4 0 0  -4.35 0 0  -4.3 0 0  -4.25 0 0  -4.2 0 0  -4.15 0 0  -4.1 0 0  -4.05 0 0  -4 0 0  -3.95 0 0  -3.9 0 0  -3.85 0 0  -3.8 0 0  -3.75 0 0  -3.7 0 0  -3.65 0 0  -3.6 0 0  -3.55 0 0  -3.5 0 0  -3.45 0 0  -3.4 0 0  -3.35 0 0  -3.3 0 0  -3.25 0 0  -3.2 0 0  -3.15 0 0  -3.1 0 0  -3.05 0 0  -3 0 0  -2.95 0 0  -2.9 0 0  -2.85 0 0  -2.8 0 0  -2.75 0 0  -2.7 0 0  -2.65 0 0  -2.6 0 0  -2.55 0 0  -2.5 0 0  -2.45 0 0  -2.4 0 0  -2.35 0 0  -2.3 0 0  -2.25 0 0  -2.2 0 0  -2.15 0 0  -2.1 0 0  -2.05 0 0  -2 0 0  -1.95 0 0  -1.9 0 0  -1.85 0 0  -1.8 0 0  -1.75 0 0  -1.7 0 0  -1.65 0 0  -1.6 0 0  -1.55 0 0  -1.5 0 0  -1.45 0 0  -1.4 0 0  -1.35 0 0  -1.3 0 0  -1.25 0 0  -1.2 0 0  -1.15 0 0  -1.1 0 0  -1.05 0 0  -1 0 0  -0.9500000000000002 0 0  -0.9000000000000004 0 0  -0.8499999999999996 0 0  -0.7999999999999998 0 0  -0.75 0 0  -0.7000000000000002 0 0  -0.6500000000000004 0 0  -0.5999999999999996 0 0  -0.5499999999999998 0 0  -0.5 0 0  -0.4500000000000002 0 0  -0.4000000000000004 0 0  -0.3499999999999996 0 0  -0.2999999999999998 0 0  -0.25 0 0  -0.2000000000000002 0 0  -0.1500000000000004 0 0  -0.09999999999999964 0 0  -0.04999999999999982 0 0  0 0 0  0.04999999999999982 0 0  0.09999999999999964 0 0  0.1500000000000004 0 0  0.2000000000000002 0 0  0.25 0 0  0.2999999999999998 0 0  0.3499999999999996 0 0  0.4000000000000004 0 0  0.4500000000000002 0 0  0.5 0 0  0.5499999999999998 0 0  0.5999999999999996 0 0  0.6500000000000004 0 0  0.7000000000000002 0 0  0.75 0 0  0.7999999999999998 0 0  0.8499999999999996 0 0  0.9000000000000004 0 0  0.9500000000000002 0 0  1 0 0  1.05 0 0  1.1 0 0  1.15 0 0  1.2 0 0  1.25 0 0  1.3 0 0  1.35 0 0  1.4 0 0  1.45 0 0  1.5 0 0  1.55 0 0  1.6 0 0  1.65 0 0  1.7 0 0  1.75 0 0  1.8 0 0  1.85 0 0  1.9 0 0  1.95 0 0  2 0 0  2.05 0 0  2.1 0 0  2.15 0 0  2.2 0 0  2.25 0 0  2.3 0 0  2.35 0 0  2.4 0 0  2.45 0 0  2.5 0 0  2.55 0 0  2.6 0 0  2.65 0 0  2.7 0 0  2.75 0 0  2.8 0 0  2.85 0 0  2.9 0 0  2.95 0 0  3 0 0  3.050000000000001 0 0  3.1 0 0  3.15 0 0  3.199999999999999 0 0  3.25 0 0  3.300000000000001 0 0  3.35 0 0  3.4 0 0  3.449999999999999 0 0  3.5 0 0  3.550000000000001 0 0  3.6 0 0  3.65 0 0  3.699999999999999 0 0  3.75 0 0  3.800000000000001 0 0  3.85 0 0  3.9 0 0  3.949999999999999 0 0  4 0 0  4.050000000000001 0 0  4.1 0 0  4.15 0 0  4.199999999999999 0 0  4.25 0 0  4.300000000000001 0 0  4.35 0 0  4.4 0 0  4.449999999999999 0 0  4.5 0 0  4.550000000000001 0 0  4.6 0 0  4.65 0 0  4.699999999999999 0 0  4.75 0 0  4.800000000000001 0 0  4.85 0 0  4.9 0 0  4.949999999999999 0 0  5 0 0  </DataArray>
</Points>
<Cells>
<DataArray  type="UInt32"  Name="connectivity"  format="ascii">0 1  1 2  2 3  3 4  4 5  5 6  6 7  7 8  8 9  9 10  10 11  11 12  12 13  13 14  14 15  15 16  16 17  17 18  18 19  19 20  20 21  21 22  22 23  23 24  24 25  25 26  26 27  27 28  28 29  29 30  30 31  31 32  32 33  33 34  34 35  35 36  36 37  37 38  38 39  39 40  40 41  41 42  42 43  43 44  44 45  45 46  46 47  47 48  48 49  49 50  50 51  51 52  52 53  53 54  54 55  55 56  56 57  57 58  58 59  59 60  60 61  61 62  62 63  63 64  64 65  65 66  66 67  67 68  68 69  69 70  70 71  71 72  72 73  73 74  74 75  75 76  76 77  77 78  78 79  79 80  80 81  81 82  82 83  83 84  84 85  85 86  86 87  87 88  88 89  89 90  90 91  91 92  92 93  93 94  94 95  95 96  96 97  97 98  98 99  99 100  100 101  101 102  102 103  103 104  104 105  105 106  106 107  107 108  108 109  109 110  110 111  111 112  112 113  113 114  114 115  115 116  116 117  117 118  118 119  119 120  120 121  121 122  122 123  123 124  124 125  125 126  126 127  127 128  128 129  129 130  130 131  131 132  132 133  133 134  134 135  135 136  136 137  137 138  138 139  139 140  140 141  141 142  142 143  143 144  144 145  145 146  146 147  147 148  148 149  149 150  150 151  151 152  152 153  153 154  154 155  155 156  156 157  157 158  158 159  159 160  160 161  161 162  162 163  163 164  164 165  165 166  166 167  167 168  168 169  169 170  170 171  171 172  172 173  173 174  174 175  175 176  176 177  177 178  178 179  179 180  180 181  181 182  182 183  183 184  184 185  185 186  186 187  187 188  188 189  189 190  190 191  191 192  192 193  193 194  194 195  195 196  196 197  197 198  198 199  199 200  </DataArray>
<DataArray  type="UInt32"  Name="offsets"  format="ascii">2 4 6 8 10 12 14 16 18 20 22 24 26 28 30 32 34 36 38 40 42 44 46 48 50 52 54 56 58 60 62 64 66 68 70 72 74 76 78 80 82 84 86 88 90 92 94 96 98 100 102 104 106 108 110 112 114 116 118 120 122 124 126 128 130 132 134 136 138 140 142 144 146 148 150 152 154 156 158 160 162 164 166 168 170 172 174 176 178 180 182 184 186 188 190 192 194 196 198 200 202 204 206 208 210 212 214 216 218 220 222 224 226 228 230 232 234 236 238 240 242 244 246 248 250 252 254 256 258 260 262 264 266 268 270 272 274 276 278 280 282 284 286 288 290 292 294 296 298 300 302 304 306 308 310 312 314 316 318 320 322 324 326 328 330 332 334 336 338 340 342 344 346 348 350 352 354 356 358 360 362 364 366 368 370 372 374 376 378 380 382 384 386 388 390 392 394 396 398 400 </DataArray>
<DataArray  type="UInt8"  Name="types"  format="ascii">3 3 3 3 3 3 3 3 3 3 3 3 3 3 3 3 3 3 3 3 3 3 3 3 3 3 3 3 3 3 3 3 3 3 3 3 3 3 3 3 3 3 3 3 3 3 3 3 3 3 3 3 3 3 3 3 3 3 3 3 3 3 3 3 3 3 3 3 3 3 3 3 3 3 3 3 3 3 3 3 3 3 3 3 3 3 3 3 3 3 3 3 3 3 3 3 3 3 3 3 3 3 3 3 3 3 3 3 3 3 3 3 3 3 3 3 3 3 3 3 3 3 3 3 3 3 3 3 3 3 3 3 3 3 3 3 3 3 3 3 3 3 3 3 3 3 3 3 3 3 3 3 3 3 3 3 3 3 3 3 3 3 3 3 3 3 3 3 3 3 3 3 3 3 3 3 3 3 3 3 3 3 3 3 3 3 3 3 3 3 3 3 3 3 3 3 3 3 3 3 </DataArray>
</Cells>
<PointData  Vectors="(h, u)"> 
<DataArray  type="Float64"  Name="(h, u)"  NumberOfComponents="3" format="ascii">1.1395490900501029e+00 0.0000000000000000e+00 0.0000000000000000e+00  1.1395563136794304e+00 1.3320919381110602e-02 0.0000000000000000e+00  1.1395764308809795e+00 2.6639078632791743e-02 0.0000000000000000e+00  1.1396111144074879e+00 3.9951773007806037e-02 0.0000000000000000e+00  1.1396589334305958e+00 5.3256132014977572e-02 0.0000000000000000e+00  1.1397216781280426e+00 6.6549450335473520e-02 0.0000000000000000e+00  1.1397980464375124e+00 7.9828691836154875e-02 0.0000000000000000e+00  1.1398899464196062e+00 9.3091092430534053e-02 0.0000000000000000e+00  1.1399962126752694e+00 1.0633339346376172e-01 0.0000000000000000e+00  1.1401188735447156e+00 1.1955271036258523e-01 0.0000000000000000e+00  1.1402569099196920e+00 1.3274550212355479e-01 0.0000000000000000e+00  1.1404124744274768e+00 1.4590869711694562e-01 0.0000000000000000e+00  1.1405847051373486e+00 1.5903840777218473e-01 0.0000000000000000e+00  1.1407758839782682e+00 1.7213130253820147e-01 0.0000000000000000e+00  1.1409853175203959e+00 1.8518307702346073e-01 0.0000000000000000e+00  1.1412154219572515e+00 1.9819005888341248e-01 0.0000000000000000e+00  1.1414656827159064e+00 2.1114744855478035e-01 0.0000000000000000e+00  1.1417386533572471e+00 2.2405114172194562e-01 0.0000000000000000e+00  1.1420340051940878e+00 2.3689575426448645e-01 0.0000000000000000e+00  1.1423544273617356e+00 2.4967664487046765e-01 0.0000000000000000e+00  1.1426997768343983e+00 2.6238773969390811e-01 0.0000000000000000e+00  1.1430728665894099e+00 2.7502373544262387e-01 0.0000000000000000e+00  1.1434737252911462e+00 2.8757773917269058e-01 0.0000000000000000e+00  1.1439052597465236e+00 3.0004362937829027e-01 0.0000000000000000e+00  1.1443676318644591e+00 3.1241352470933953e-01 0.0000000000000000e+00  1.1448637801890036e+00 3.2468027643199404e-01 0.0000000000000000e+00  1.1453939191688434e+00 3.3683477549280083e-01 0.0000000000000000e+00  1.1459609019475545e+00 3.4886854266161038e-01 0.0000000000000000e+00  1.1465648428090252e+00 3.6077087413094289e-01 0.0000000000000000e+00  1.1472082986661476e+00 3.7253148275850478e-01 0.0000000000000000e+00  1.1478910085001532e+00 3.8413746422425488e-01 0.0000000000000000e+00  1.1486148623483128e+00 3.9557591844867690e-01 0.0000000000000000e+00  1.1493787391602317e+00 4.0683068350898621e-01 0.0000000000000000e+00  1.1501832161238730e+00 4.1788481982372733e-01 0.0000000000000000e+00  1.1510254638486406e+00 4.2871699288877724e-01 0.0000000000000000e+00  1.1519036190288605e+00 4.3930361405318052e-01 0.0000000000000000e+00  1.1528116542392508e+00 4.4961462854974904e-01 0.0000000000000000e+00  1.1537432812471764e+00 4.5961493951983223e-01 0.0000000000000000e+00  1.1546866364157720e+00 4.6925912843819795e-01 0.0000000000000000e+00  1.1556274814561871e+00 4.7849148649332374e-01 0.0000000000000000e+00  1.1565434131897252e+00 4.8723879649672125e-01 0.0000000000000000e+00  1.1574059639397662e+00 4.9540779757369074e-01 0.0000000000000000e+00  1.1581738483571160e+00 5.0287456097138317e-01 0.0000000000000000e+00  1.1587933609143866e+00 5.0947757380872383e-01 0.0000000000000000e+00  1.1591900062123730e+00 5.1500168838815752e-01 0.0000000000000000e+00  1.1592665794968764e+00 5.1916484944679109e-01 0.0000000000000000e+00  1.1588928811243009e+00 5.2159541745710736e-01 0.0000000000000000e+00  1.1579019846817149e+00 5.2181344892835402e-01 0.0000000000000000e+00  1.1560802565504549e+00 5.1920696817749157e-01 0.0000000000000000e+00  1.1531672082213800e+00 5.1302214450836592e-01 0.0000000000000000e+00  1.1488564580476832e+00 5.0236777635499041e-01 0.0000000000000000e+00  1.1428173447455552e+00 4.8626571029957216e-01 0.0000000000000000e+00  1.1347335221461150e+00 4.6376165972192540e-01 0.0000000000000000e+00  1.1243778192377705e+00 4.3413306792069922e-01 0.0000000000000000e+00  1.1117104921473451e+00 3.9718569394939918e-01 0.0000000000000000e+00  1.0969907010516167e+00 3.5359630664353658e-01 0.0000000000000000e+00  1.0808413509848700e+00 3.0514984591477068e-01 0.0000000000000000e+00  1.0642141297054932e+00 2.5468024864227429e-01 0.0000000000000000e+00  1.0482115187904810e+00 2.0557550643840741e-01 0.0000000000000000e+00  1.0338251641737120e+00 1.6097468009196567e-01 0.0000000000000000e+00  1.0217040781309936e+00 1.2302082255884751e-01 0.0000000000000000e+00  1.0120704669709957e+00 9.2541302173291720e-02 0.0000000000000000e+00  1.0047850138784857e+00 6.9216577875967106e-02 0.0000000000000000e+00  9.9949631860865695e-01 5.2026980490298746e-02 0.0000000000000000e+00  9.9578134380491190e-01 3.9700076525246625e-02 0.0000000000000000e+00  9.9324163778732466e-01 3.1016574747407436e-02 0.0000000000000000e+00  9.9154514467158317e-01 2.4954788613844141e-02 0.0000000000000000e+00  9.9043726793712117e-01 2.0726623083098018e-02 0.0000000000000000e+00  9.8973119898410267e-01 1.7754934563833345e-02 0.0000000000000000e+00  9.8929557449782379e-01 1.5632309311138414e-02 0.0000000000000000e+00  9.8903913853814163e-01 1.4077747323109256e-02 0.0000000000000000e+00  9.8890046195219261e-01 1.2901017945529784e-02 0.0000000000000000e+00  9.8883784941675112e-01 1.1974757466951756e-02 0.0000000000000000e+00  9.8882401393917785e-01 1.1214560646073244e-02 0.0000000000000000e+00  9.8884055387471659e-01 1.0564845104700222e-02 0.0000000000000000e+00  9.8887573854357746e-01 9.9891428692802497e-03 0.0000000000000000e+00  9.8892161575859028e-01 9.4637040192560810e-03 0.0000000000000000e+00  9.8897328125349993e-01 8.9729310054231116e-03 0.0000000000000000e+00  9.8902736185649698e-01 8.5067711944815817e-03 0.0000000000000000e+00  9.8908187004756487e-01 8.0584868680702009e-03 0.0000000000000000e+00  9.8913541823980788e-01 7.6238037515238642e-03 0.0000000000000000e+00  9.8918723031361044e-01 7.1996785594400448e-03 0.0000000000000000e+00  9.8923678002712845e-01 6.7842415381673829e-03 0.0000000000000000e+00  9.8928377187537209e-01 6.3759721138976697e-03 0.0000000000000000e+00  9.8932805880151853e-01 5.9739925430618256e-03 0.0000000000000000e+00  9.8936951777485893e-01 5.5774094179593739e-03 0.0000000000000000e+00  9.8940817494407030e-01 5.1857527002054440e-03 0.0000000000000000e+00  9.8944395268089569e-01 4.7983936998620223e-03 0.0000000000000000e+00  9.8947696178443723e-01 4.4150293993137626e-03 0.0000000000000000e+00  9.8950711986571727e-01 4.0351519481565384e-03 0.0000000000000000e+00  9.8953458322376642e-01 3.6585251225680301e-03 0.0000000000000000e+00  9.8955924698593600e-01 3.2847059231194109e-03 0.0000000000000000e+00  9.8958129433339259e-01 2.9134814794692190e-03 0.0000000000000000e+00  9.8960059377605902e-01 2.5444521868274398e-03 0.0000000000000000e+00  9.8961734514108868e-01 2.1774080019198155e-03 0.0000000000000000e+00  9.8963139182874982e-01 1.8119843700290781e-03 0.0000000000000000e+00  9.8964294339435421e-01 1.4479629740959197e-03 0.0000000000000000e+00  9.8965182194149626e-01 1.0850106112211082e-03 0.0000000000000000e+00  9.8965824107509759e-01 7.2289371963778573e-04 0.0000000000000000e+00  9.8966200632382650e-01 3.6130808757017536e-04 0.0000000000000000e+00  9.8966333007278262e-01 1.4000416676445584e-15 0.0000000000000000e+00  9.8966200632382673e-01 -3.6130808757071036e-04 0.0000000000000000e+00  9.8965824107509770e-01 -7.2289371963499911e-04 0.0000000000000000e+00  9.8965182194149659e-01 -1.0850106112213884e-03 0.0000000000000000e+00  9.8964294339435466e-01 -1.4479629740925171e-03 0.0000000000000000e+00  9.8963139182875037e-01 -1.8119843700297306e-03 0.0000000000000000e+00  9.8961734514108923e-01 -2.1774080019167324e-03 0.0000000000000000e+00  9.8960059377605947e-01 -2.5444521868284906e-03 0.0000000000000000e+00  9.8958129433339315e-01 -2.9134814794666798e-03 0.0000000000000000e+00  9.8955924698593623e-01 -3.2847059231216214e-03 0.0000000000000000e+00  9.8953458322376719e-01 -3.6585251225664415e-03 0.0000000000000000e+00  9.8950711986571738e-01 -4.0351519481582618e-03 0.0000000000000000e+00  9.8947696178443789e-01 -4.4150293993113999e-03 0.0000000000000000e+00  9.8944395268089580e-01 -4.7983936998635566e-03 0.0000000000000000e+00  9.8940817494407096e-01 -5.1857527002026685e-03 0.0000000000000000e+00  9.8936951777485871e-01 -5.5774094179608267e-03 0.0000000000000000e+00  9.8932805880151886e-01 -5.9739925430594837e-03 0.0000000000000000e+00  9.8928377187537186e-01 -6.3759721138996351e-03 0.0000000000000000e+00  9.8923678002712867e-01 -6.7842415381648225e-03 0.0000000000000000e+00  9.8918723031361011e-01 -7.1996785594421091e-03 0.0000000000000000e+00  9.8913541823980811e-01 -7.6238037515225891e-03 0.0000000000000000e+00  9.8908187004756487e-01 -8.0584868680719460e-03 0.0000000000000000e+00  9.8902736185649709e-01 -8.5067711944798261e-03 0.0000000000000000e+00  9.8897328125349993e-01 -8.9729310054247422e-03 0.0000000000000000e+00  9.8892161575858994e-01 -9.4637040192543948e-03 0.0000000000000000e+00  9.8887573854357746e-01 -9.9891428692825621e-03 0.0000000000000000e+00  9.8884055387471637e-01 -1.0564845104698926e-02 0.0000000000000000e+00  9.8882401393917785e-01 -1.1214560646075955e-02 0.0000000000000000e+00  9.8883784941675090e-01 -1.1974757466950904e-02 0.0000000000000000e+00  9.8890046195219250e-01 -1.2901017945533130e-02 0.0000000000000000e+00  9.8903913853814152e-01 -1.4077747323108587e-02 0.0000000000000000e+00  9.8929557449782379e-01 -1.5632309311141436e-02 0.0000000000000000e+00  9.8973119898410256e-01 -1.7754934563833313e-02 0.0000000000000000e+00  9.9043726793712106e-01 -2.0726623083101459e-02 0.0000000000000000e+00  9.9154514467158306e-01 -2.4954788613844859e-02 0.0000000000000000e+00  9.9324163778732477e-01 -3.1016574747410458e-02 0.0000000000000000e+00  9.9578134380491201e-01 -3.9700076525246597e-02 0.0000000000000000e+00  9.9949631860865684e-01 -5.2026980490301862e-02 0.0000000000000000e+00  1.0047850138784857e+00 -6.9216577875967994e-02 0.0000000000000000e+00  1.0120704669709959e+00 -9.2541302173294995e-02 0.0000000000000000e+00  1.0217040781309936e+00 -1.2302082255884790e-01 0.0000000000000000e+00  1.0338251641737122e+00 -1.6097468009196700e-01 0.0000000000000000e+00  1.0482115187904812e+00 -2.0557550643840580e-01 0.0000000000000000e+00  1.0642141297054935e+00 -2.5468024864227551e-01 0.0000000000000000e+00  1.0808413509848702e+00 -3.0514984591477062e-01 0.0000000000000000e+00  1.0969907010516171e+00 -3.5359630664353836e-01 0.0000000000000000e+00  1.1117104921473455e+00 -3.9718569394939846e-01 0.0000000000000000e+00  1.1243778192377707e+00 -4.3413306792070017e-01 0.0000000000000000e+00  1.1347335221461152e+00 -4.6376165972192651e-01 0.0000000000000000e+00  1.1428173447455554e+00 -4.8626571029957372e-01 0.0000000000000000e+00  1.1488564580476832e+00 -5.0236777635499208e-01 0.0000000000000000e+00  1.1531672082213795e+00 -5.1302214450836814e-01 0.0000000000000000e+00  1.1560802565504547e+00 -5.1920696817749312e-01 0.0000000000000000e+00  1.1579019846817145e+00 -5.2181344892835602e-01 0.0000000000000000e+00  1.1588928811243007e+00 -5.2159541745710913e-01 0.0000000000000000e+00  1.1592665794968766e+00 -5.1916484944679187e-01 0.0000000000000000e+00  1.1591900062123728e+00 -5.1500168838815852e-01 0.0000000000000000e+00  1.1587933609143866e+00 -5.0947757380872494e-01 0.0000000000000000e+00  1.1581738483571158e+00 -5.0287456097138306e-01 0.0000000000000000e+00  1.1574059639397662e+00 -4.9540779757369219e-01 0.0000000000000000e+00  1.1565434131897248e+00 -4.8723879649672208e-01 0.0000000000000000e+00  1.1556274814561869e+00 -4.7849148649332363e-01 0.0000000000000000e+00  1.1546866364157715e+00 -4.6925912843819717e-01 0.0000000000000000e+00  1.1537432812471764e+00 -4.5961493951983179e-01 0.0000000000000000e+00  1.1528116542392504e+00 -4.4961462854974832e-01 0.0000000000000000e+00  1.1519036190288605e+00 -4.3930361405317986e-01 0.0000000000000000e+00  1.1510254638486404e+00 -4.2871699288877535e-01 0.0000000000000000e+00  1.1501832161238728e+00 -4.1788481982372594e-01 0.0000000000000000e+00  1.1493787391602315e+00 -4.0683068350898371e-01 0.0000000000000000e+00  1.1486148623483126e+00 -3.9557591844867579e-01 0.0000000000000000e+00  1.1478910085001528e+00 -3.8413746422425388e-01 0.0000000000000000e+00  1.1472082986661469e+00 -3.7253148275850356e-01 0.0000000000000000e+00  1.1465648428090247e+00 -3.6077087413094339e-01 0.0000000000000000e+00  1.1459609019475541e+00 -3.4886854266160960e-01 0.0000000000000000e+00  1.1453939191688434e+00 -3.3683477549280055e-01 0.0000000000000000e+00  1.1448637801890036e+00 -3.2468027643199243e-01 0.0000000000000000e+00  1.1443676318644591e+00 -3.1241352470933920e-01 0.0000000000000000e+00  1.1439052597465236e+00 -3.0004362937828943e-01 0.0000000000000000e+00  1.1434737252911460e+00 -2.8757773917269058e-01 0.0000000000000000e+00  1.1430728665894092e+00 -2.7502373544262326e-01 0.0000000000000000e+00  1.1426997768343978e+00 -2.6238773969390899e-01 0.0000000000000000e+00  1.1423544273617354e+00 -2.4967664487046720e-01 0.0000000000000000e+00  1.1420340051940872e+00 -2.3689575426448686e-01 0.0000000000000000e+00  1.1417386533572462e+00 -2.2405114172194560e-01 0.0000000000000000e+00  1.1414656827159058e+00 -2.1114744855478182e-01 0.0000000000000000e+00  1.1412154219572506e+00 -1.9819005888341329e-01 0.0000000000000000e+00  1.1409853175203959e+00 -1.8518307702346215e-01 0.0000000000000000e+00  1.1407758839782673e+00 -1.7213130253820180e-01 0.0000000000000000e+00  1.1405847051373486e+00 -1.5903840777218564e-01 0.0000000000000000e+00  1.1404124744274766e+00 -1.4590869711694590e-01 0.0000000000000000e+00  1.1402569099196920e+00 -1.3274550212355443e-01 0.0000000000000000e+00  1.1401188735447150e+00 -1.1955271036258411e-01 0.0000000000000000e+00  1.1399962126752694e+00 -1.0633339346376094e-01 0.0000000000000000e+00  1.1398899464196057e+00 -9.3091092430533470e-02 0.0000000000000000e+00  1.1397980464375121e+00 -7.9828691836154445e-02 0.0000000000000000e+00  1.1397216781280421e+00 -6.6549450335472701e-02 0.0000000000000000e+00  1.1396589334305962e+00 -5.3256132014977260e-02 0.0000000000000000e+00  1.1396111144074874e+00 -3.9951773007805669e-02 0.0000000000000000e+00  1.1395764308809799e+00 -2.6639078632791791e-02 0.0000000000000000e+00  1.1395563136794300e+00 -1.3320919381110562e-02 0.0000000000000000e+00  1.1395490900501035e+00 0.0000000000000000e+00 0.0000000000000000e+00  </DataArray> 
</PointData> 
</Piece>
</UnstructuredGrid>
</VTKFile>