<?xml version="1.0"?>
<VTKFile type="UnstructuredGrid"  version="0.1"  >
<UnstructuredGrid>
<Piece  NumberOfPoints="201" NumberOfCells="200">
<Points>
<DataArray  type="Float64"  NumberOfComponents="3"  format="ascii">-5 0 0  -4.95 0 0  -4.9 0 0  -4.85 0 0  -4.8 0 0  -4.75 0 0  -4.7 0 0  -4.65 0 0  -4.6 0 0  -4.55 0 0  -4.5 0 0  -4.45 0 0  -4.4 0 0  -4.35 0 0  -4.3 0 0  -4.25 0 0  -4.2 0 0  -4.15 0 0  -4.1 0 0  -4.05 0 0  -4 0 0  -3.95 0 0  -3.9 0 0  -3.85 0 0  -3.8 0 0  -3.75 0 0  -3.7 0 0  -3.65 0 0  -3.6 0 0  -3.55 0 0  -3.5 0 0  -3.45 0 0  -3.4 0 0  -3.35 0 0  -3.3 0 0  -3.25 0 0  -3.2 0 0  -3.15 0 0  -3.1 0 0  -3.05 0 0  -3 0 0  -2.95 0 0  -2.9 0 0  -2.85 0 0  -2.8 0 0  -2.75 0 0  -2.7 0 0  -2.65 0 0  -2.6 0 0  -2.55 0 0  -2.5 0 0  -2.45 0 0  -2.4 0 0  -2.35 0 0  -2.3 0 0  -2.25 0 0  -2.2 0 0  -2.15 0 0  -2.1 0 0  -2.05 0 0  -2 0 0  -1.95 0 0  -1.9 0 0  -1.85 0 0  -1.8 0 0  -1.75 0 0  -1.7 0 0  -1.65 0 0  -1.6 0 0  -1.55 0 0  -1.5 0 0  -1.45 0 0  -1.4 0 0  -1.35 0 0  -1.3 0 0  -1.25 0 0  -1.2 0 0  -1.15 0 0  -1.1 0 0  -1.05 0 0  -1 0 0  -0.9500000000000002 0 0  -0.9000000000000004 0 0  -0.8499999999999996 0 0  -0.7999999999999998 0 0  -0.75 0 0  -0.7000000000000002 0 0  -0.6500000000000004 0 0  -0.5999999999999996 0 0  -0.5499999999999998 0 0  -0.5 0 0  -0.4500000000000002 0 0  -0.4000000000000004 0 0  -0.3499999999999996 0 0  -0.2999999999999998 0 0  -0.25 0 0  -0.2000000000000002 0 0  -0.1500000000000004 0 0  -0.09999999999999964 0 0  -0.04999999999999982 0 0  0 0 0  0.04999999999999982 0 0  0.09999999999999964 0 0  0.1500000000000004 0 0  0.2000000000000002 0 0  0.25 0 0  0.2999999999999998 0 0  0.3499999999999996 0 0  0.4000000000000004 0 0  0.4500000000000002 0 0  0.5 0 0  0.5499999999999998 0 0  0.5999999999999996 0 0  0.6500000000000004 0 0  0.7000000000000002 0 0  0.75 0 0  0.7999999999999998 0 0  0.8499999999999996 0 0  0.9000000000000004 0 0  0.9500000000000002 0 0  1 0 0  1.05 0 0  1.1 0 0  1.15 0 0  1.2 0 0  1.25 0 0  1.3 0 0  1.35 0 0  1.4 0 0  1.45 0 0  1.5 0 0  1.55 0 0  1.6 0 0  1.65 0 0  1.7 0 0  1.75 0 0  1.8 0 0  1.85 0 0  1.9 0 0  1.95 0 0  2 0 0  2.05 0 0  2.1 0 0  2.15 0 0  2.2 0 0  2.25 0 0  2.3 0 0  2.35 0 0  2.4 0 0  2.45 0 0  2.5 0 0  2.55 0 0  2.6 0 0  2.65 0 0  2.7 0 0  2.75 0 0  2.8 0 0  2.85 0 0  2.9 0 0  2.95 0 0  3 0 0  3.050000000000001 0 0  3.1 0 0  3.15 0 0  3.199999999999999 0 0  3.25 0 0  3.300000000000001 0 0  3.35 0 0  3.4 0 0  3.449999999999999 0 0  3.5 0 0  3.550000000000001 0 0  3.6 0 0  3.65 0 0  3.699999999999999 0 0  3.75 0 0  3.800000000000001 0 0  3.85 0 0  3.9 0 0  3.949999999999999 0 0  4 0 0  4.050000000000001 0 0  4.1 0 0  4.15 0 0  4.199999999999999 0 0  4.25 0 0  4.300000000000001 0 0  4.35 0 0  4.4 0 0  4.449999999999999 0 0  4.5 0 0  4.550000000000001 0 0  4.6 0 0  4.65 0 0  4.699999999999999 0 0  4.75 0 0  4.800000000000001 0 0  4.85 0 0  4.9 0 0  4.949999999999999 0 0  5 0 0  </DataArray>
</Points>
<Cells>
<DataArray  type="UInt32"  Name="connectivity"  format="ascii">0 1  1 2  2 3  3 4  4 5  5 6  6 7  7 8  8 9  9 10  10 11  11 12  12 13  13 14  14 15  15 16  16 17  17 18  18 19  19 20  20 21  21 22  22 23  23 24  24 25  25 26  26 27  27 28  28 29  29 30  30 31  31 32  32 33  33 34  34 35  35 36  36 37  37 38  38 39  39 40  40 41  41 42  42 43  43 44  44 45  45 46  46 47  47 48  48 49  49 50  50 51  51 52  52 53  53 54  54 55  55 56  56 57  57 58  58 59  59 60  60 61  61 62  62 63  63 64  64 65  65 66  66 67  67 68  68 69  69 70  70 71  71 72  72 73  73 74  74 75  75 76  76 77  77 78  78 79  79 80  80 81  81 82  82 83  83 84  84 85  85 86  86 87  87 88  88 89  89 90  90 91  91 92  92 93  93 94  94 95  95 96  96 97  97 98  98 99  99 100  100 101  101 102  102 103  103 104  104 105  105 106  106 107  107 108  108 109  109 110  110 111  111 112  112 113  113 114  114 115  115 116  116 117  117 118  118 119  119 120  120 121  121 122  122 123  123 124  124 125  125 126  126 127  127 128  128 129  129 130  130 131  131 132  132 133  133 134  134 135  135 136  136 137  137 138  138 139  139 140  140 141  141 142  142 143  143 144  144 145  145 146  146 147  147 148  148 149  149 150  150 151  151 152  152 153  153 154  154 155  155 156  156 157  157 158  158 159  159 160  160 161  161 162  162 163  163 164  164 165  165 166  166 167  167 168  168 169  169 170  170 171  171 172  172 173  173 174  174 175  175 176  176 177  177 178  178 179  179 180  180 181  181 182  182 183  183 184  184 185  185 186  186 187  187 188  188 189  189 190  190 191  191 192  192 193  193 194  194 195  195 196  196 197  197 198  198 199  199 200  </DataArray>
<DataArray  type="UInt32"  Name="offsets"  format="ascii">2 4 6 8 10 12 14 16 18 20 22 24 26 28 30 32 34 36 38 40 42 44 46 48 50 52 54 56 58 60 62 64 66 68 70 72 74 76 78 80 82 84 86 88 90 92 94 96 98 100 102 104 106 108 110 112 114 116 118 120 122 124 126 128 130 132 134 136 138 140 142 144 146 148 150 152 154 156 158 160 162 164 166 168 170 172 174 176 178 180 182 184 186 188 190 192 194 196 198 200 202 204 206 208 210 212 214 216 218 220 222 224 226 228 230 232 234 236 238 240 242 244 246 248 250 252 254 256 258 260 262 264 266 268 270 272 274 276 278 280 282 284 286 288 290 292 294 296 298 300 302 304 306 308 310 312 314 316 318 320 322 324 326 328 330 332 334 336 338 340 342 344 346 348 350 352 354 356 358 360 362 364 366 368 370 372 374 376 378 380 382 384 386 388 390 392 394 396 398 400 </DataArray>
<DataArray  type="UInt8"  Name="types"  format="ascii">3 3 3 3 3 3 3 3 3 3 3 3 3 3 3 3 3 3 3 3 3 3 3 3 3 3 3 3 3 3 3 3 3 3 3 3 3 3 3 3 3 3 3 3 3 3 3 3 3 3 3 3 3 3 3 3 3 3 3 3 3 3 3 3 3 3 3 3 3 3 3 3 3 3 3 3 3 3 3 3 3 3 3 3 3 3 3 3 3 3 3 3 3 3 3 3 3 3 3 3 3 3 3 3 3 3 3 3 3 3 3 3 3 3 3 3 3 3 3 3 3 3 3 3 3 3 3 3 3 3 3 3 3 3 3 3 3 3 3 3 3 3 3 3 3 3 3 3 3 3 3 3 3 3 3 3 3 3 3 3 3 3 3 3 3 3 3 3 3 3 3 3 3 3 3 3 3 3 3 3 3 3 3 3 3 3 3 3 3 3 3 3 3 3 3 3 3 3 3 3 </DataArray>
</Cells>
<PointData  Vectors="(h, u)"> 
<DataArray  type="Float64"  Name="(h, u)"  NumberOfComponents="3" format="ascii">9.9999932512419876e-01 0.0000000000000000e+00 0.0000000000000000e+00  1.0000006735500409e+00 6.5192864525265608e-08 0.0000000000000000e+00  9.9999933042093192e-01 -1.2921539948845592e-07 0.0000000000000000e+00  1.0000006629826488e+00 1.9092294037330768e-07 0.0000000000000000e+00  9.9999934620596864e-01 -2.4922319210015306e-07 0.0000000000000000e+00  1.0000006420615635e+00 3.0309844006656039e-07 0.0000000000000000e+00  9.9999937215061430e-01 -3.5163074734903267e-07 0.0000000000000000e+00  1.0000006112394684e+00 3.9401858416761583e-07 0.0000000000000000e+00  9.9999940766746975e-01 -4.2959802953863067e-07 0.0000000000000000e+00  1.0000005712499613e+00 4.5785207054643411e-07 0.0000000000000000e+00  9.9999945186566919e-01 -4.7842576510579073e-07 0.0000000000000000e+00  1.0000005231507298e+00 4.9112662833230233e-07 0.0000000000000000e+00  9.9999950351414579e-01 -4.9593339944520689e-07 0.0000000000000000e+00  1.0000004683493611e+00 4.9298360107174549e-07 0.0000000000000000e+00  9.9999956103199616e-01 -4.8258472031092684e-07 0.0000000000000000e+00  1.0000004085948886e+00 4.6516371680571981e-07 0.0000000000000000e+00  9.9999962252340324e-01 -4.4134941088866509e-07 0.0000000000000000e+00  1.0000003459282569e+00 4.1170401086155337e-07 0.0000000000000000e+00  9.9999968587879484e-01 -3.7735606287981518e-07 0.0000000000000000e+00  1.0000002826241781e+00 3.3826389000531957e-07 0.0000000000000000e+00  9.9999974903073552e-01 -2.9766707965091796e-07 0.0000000000000000e+00  1.0000002213640335e+00 2.5041670626499066e-07 0.0000000000000000e+00  9.9999981093790413e-01 -2.1308956612984552e-07 0.0000000000000000e+00  1.0000001671352587e+00 1.4637051212862596e-07 0.0000000000000000e+00  9.9999987696885406e-01 -1.5368966957670494e-07 0.0000000000000000e+00  1.0000001400617529e+00 -2.4521858939880150e-08 0.0000000000000000e+00  9.9999999130989414e-01 -2.6905103462648434e-07 0.0000000000000000e+00  1.0000002547005664e+00 -6.1118759451541559e-07 0.0000000000000000e+00  1.0000004314117747e+00 -1.4362556857352930e-06 0.0000000000000000e+00  1.0000011919048877e+00 -3.7392508516862386e-06 0.0000000000000000e+00  1.0000028457811911e+00 -8.8223866208499736e-06 0.0000000000000000e+00  1.0000069205182807e+00 -2.1834530083704051e-05 0.0000000000000000e+00  1.0000167136965485e+00 -5.2113160349396657e-05 0.0000000000000000e+00  1.0000399032520699e+00 -1.2524082713745248e-04 0.0000000000000000e+00  1.0000948334165622e+00 -2.9664284253156980e-04 0.0000000000000000e+00  1.0002231657105924e+00 -6.9920840435080966e-04 0.0000000000000000e+00  1.0005211965434204e+00 -1.6316404648764025e-03 0.0000000000000000e+00  1.0012051762312684e+00 -3.7739500157244472e-03 0.0000000000000000e+00  1.0027561509382328e+00 -8.6275047258598195e-03 0.0000000000000000e+00  1.0062084193197489e+00 -1.9426963435082080e-02 0.0000000000000000e+00  1.0136725699084321e+00 -4.2739050752256549e-02 0.0000000000000000e+00  1.0290071381039363e+00 -9.0487616350372432e-02 0.0000000000000000e+00  1.0578499745453902e+00 -1.7973033892937237e-01 0.0000000000000000e+00  1.1050298009741457e+00 -3.2401363029927543e-01 0.0000000000000000e+00  1.1689839002819955e+00 -5.1578750603453549e-01 0.0000000000000000e+00  1.2393165287011814e+00 -7.2101212322110775e-01 0.0000000000000000e+00  1.3029778379285484e+00 -9.0130944302665073e-01 0.0000000000000000e+00  1.3519447468916186e+00 -1.0363810394495219e+00 0.0000000000000000e+00  1.3845518398419063e+00 -1.1245907432376696e+00 0.0000000000000000e+00  1.4028705934638188e+00 -1.1735883036695200e+00 0.0000000000000000e+00  1.4101496115589607e+00 -1.1930527491796437e+00 0.0000000000000000e+00  1.4094411082704927e+00 -1.1914348339429202e+00 0.0000000000000000e+00  1.4031535816933456e+00 -1.1751419654202087e+00 0.0000000000000000e+00  1.3930337208886534e+00 -1.1487230004046756e+00 0.0000000000000000e+00  1.3802998578154344e+00 -1.1153033662521632e+00 0.0000000000000000e+00  1.3657851819859150e+00 -1.0770091399256059e+00 0.0000000000000000e+00  1.3500593532148393e+00 -1.0352829979594722e+00 0.0000000000000000e+00  1.3335129827172216e+00 -9.9111741818737187e-01 0.0000000000000000e+00  1.3164192757599307e+00 -9.4520233598405989e-01 0.0000000000000000e+00  1.2989719453263722e+00 -8.9803294933597877e-01 0.0000000000000000e+00  1.2813135083562039e+00 -8.4997128992181825e-01 0.0000000000000000e+00  1.2635509745385076e+00 -8.0129623626423119e-01 0.0000000000000000e+00  1.2457692475623086e+00 -7.5222802271603884e-01 0.0000000000000000e+00  1.2280374101727425e+00 -7.0295368853986151e-01 0.0000000000000000e+00  1.2104158020415392e+00 -6.5363656209192500e-01 0.0000000000000000e+00  1.1929585302467405e+00 -6.0443149883372949e-01 0.0000000000000000e+00  1.1757179051423676e+00 -5.5548871321538085e-01 0.0000000000000000e+00  1.1587455694065247e+00 -5.0696498543376645e-01 0.0000000000000000e+00  1.1420958855894663e+00 -4.5902588511959663e-01 0.0000000000000000e+00  1.1258267008133451e+00 -4.1185566783696842e-01 0.0000000000000000e+00  1.1100023426406949e+00 -3.6565953468273721e-01 0.0000000000000000e+00  1.0946943276103818e+00 -3.2067303769152544e-01 0.0000000000000000e+00  1.0799839679027887e+00 -2.7716417221282963e-01 0.0000000000000000e+00  1.0659625963740234e+00 -2.3544085258239397e-01 0.0000000000000000e+00  1.0527328295244034e+00 -1.9584956368740114e-01 0.0000000000000000e+00  1.0404066046098239e+00 -1.5877523962144957e-01 0.0000000000000000e+00  1.0291025483587832e+00 -1.2462779955746614e-01 0.0000000000000000e+00  1.0189384479353871e+00 -9.3822979982211119e-02 0.0000000000000000e+00  1.0100211165869715e+00 -6.6744231113610220e-02 0.0000000000000000e+00  1.0024307995386836e+00 -4.3695590360031109e-02 0.0000000000000000e+00  9.9620455243781125e-01 -2.4841523557324888e-02 0.0000000000000000e+00  9.9131986154071738e-01 -1.0155463375199727e-02 0.0000000000000000e+00  9.8768659494547684e-01 6.1267016192258661e-04 0.0000000000000000e+00  9.8515022962540155e-01 7.9242918649559298e-03 0.0000000000000000e+00  9.8351037267540586e-01 1.2396691884421270e-02 0.0000000000000000e+00  9.8254853067240278e-01 1.4710060050706611e-02 0.0000000000000000e+00  9.8205849819288482e-01 1.5511922352245347e-02 0.0000000000000000e+00  9.8186833422794484e-01 1.5342566314699921e-02 0.0000000000000000e+00  9.8185076816835815e-01 1.4603425217209526e-02 0.0000000000000000e+00  9.8192105207658253e-01 1.3560592947033928e-02 0.0000000000000000e+00  9.8202854147521168e-01 1.2373558624846032e-02 0.0000000000000000e+00  9.8214556577192191e-01 1.1128057353984143e-02 0.0000000000000000e+00  9.8225856756783214e-01 9.8661707082765820e-03 0.0000000000000000e+00  9.8236130686298928e-01 8.6058369712540550e-03 0.0000000000000000e+00  9.8245135053411603e-01 7.3537845239836537e-03 0.0000000000000000e+00  9.8252770884430007e-01 6.1112890804053419e-03 0.0000000000000000e+00  9.8259019582600993e-01 4.8777841047259315e-03 0.0000000000000000e+00  9.8263870167115708e-01 3.6516836096803914e-03 0.0000000000000000e+00  9.8267333626672893e-01 2.4312919001986972e-03 0.0000000000000000e+00  9.8269406766697487e-01 1.2146862561169640e-03 0.0000000000000000e+00  9.8270099910444475e-01 -7.1267072984507351e-16 0.0000000000000000e+00  9.8269406766697476e-01 -1.2146862561174918e-03 0.0000000000000000e+00  9.8267333626672893e-01 -2.4312919001998946e-03 0.0000000000000000e+00  9.8263870167115686e-01 -3.6516836096811851e-03 0.0000000000000000e+00  9.8259019582601015e-01 -4.8777841047265135e-03 0.0000000000000000e+00  9.8252770884429974e-01 -6.1112890804058172e-03 0.0000000000000000e+00  9.8245135053411636e-01 -7.3537845239831368e-03 0.0000000000000000e+00  9.8236130686298873e-01 -8.6058369712537809e-03 0.0000000000000000e+00  9.8225856756783236e-01 -9.8661707082763998e-03 0.0000000000000000e+00  9.8214556577192136e-01 -1.1128057353984051e-02 0.0000000000000000e+00  9.8202854147521168e-01 -1.2373558624846483e-02 0.0000000000000000e+00  9.8192105207658187e-01 -1.3560592947034414e-02 0.0000000000000000e+00  9.8185076816835837e-01 -1.4603425217209925e-02 0.0000000000000000e+00  9.8186833422794439e-01 -1.5342566314701092e-02 0.0000000000000000e+00  9.8205849819288482e-01 -1.5511922352245786e-02 0.0000000000000000e+00  9.8254853067240222e-01 -1.4710060050708323e-02 0.0000000000000000e+00  9.8351037267540597e-01 -1.2396691884421841e-02 0.0000000000000000e+00  9.8515022962540111e-01 -7.9242918649571129e-03 0.0000000000000000e+00  9.8768659494547728e-01 -6.1267016192297346e-04 0.0000000000000000e+00  9.9131986154071716e-01 1.0155463375198905e-02 0.0000000000000000e+00  9.9620455243781170e-01 2.4841523557324864e-02 0.0000000000000000e+00  1.0024307995386834e+00 4.3695590360031421e-02 0.0000000000000000e+00  1.0100211165869717e+00 6.6744231113611788e-02 0.0000000000000000e+00  1.0189384479353871e+00 9.3822979982211896e-02 0.0000000000000000e+00  1.0291025483587837e+00 1.2462779955746732e-01 0.0000000000000000e+00  1.0404066046098241e+00 1.5877523962145154e-01 0.0000000000000000e+00  1.0527328295244034e+00 1.9584956368740153e-01 0.0000000000000000e+00  1.0659625963740236e+00 2.3544085258239447e-01 0.0000000000000000e+00  1.0799839679027889e+00 2.7716417221282985e-01 0.0000000000000000e+00  1.0946943276103818e+00 3.2067303769152644e-01 0.0000000000000000e+00  1.1100023426406946e+00 3.6565953468273710e-01 0.0000000000000000e+00  1.1258267008133451e+00 4.1185566783696942e-01 0.0000000000000000e+00  1.1420958855894656e+00 4.5902588511959491e-01 0.0000000000000000e+00  1.1587455694065250e+00 5.0696498543376778e-01 0.0000000000000000e+00  1.1757179051423672e+00 5.5548871321537974e-01 0.0000000000000000e+00  1.1929585302467407e+00 6.0443149883373082e-01 0.0000000000000000e+00  1.2104158020415390e+00 6.5363656209192367e-01 0.0000000000000000e+00  1.2280374101727423e+00 7.0295368853986273e-01 0.0000000000000000e+00  1.2457692475623086e+00 7.5222802271603806e-01 0.0000000000000000e+00  1.2635509745385076e+00 8.0129623626423241e-01 0.0000000000000000e+00  1.2813135083562039e+00 8.4997128992181759e-01 0.0000000000000000e+00  1.2989719453263722e+00 8.9803294933597910e-01 0.0000000000000000e+00  1.3164192757599305e+00 9.4520233598405945e-01 0.0000000000000000e+00  1.3335129827172223e+00 9.9111741818737198e-01 0.0000000000000000e+00  1.3500593532148393e+00 1.0352829979594729e+00 0.0000000000000000e+00  1.3657851819859153e+00 1.0770091399256054e+00 0.0000000000000000e+00  1.3802998578154337e+00 1.1153033662521665e+00 0.0000000000000000e+00  1.3930337208886534e+00 1.1487230004046738e+00 0.0000000000000000e+00  1.4031535816933454e+00 1.1751419654202109e+00 0.0000000000000000e+00  1.4094411082704930e+00 1.1914348339429184e+00 0.0000000000000000e+00  1.4101496115589607e+00 1.1930527491796454e+00 0.0000000000000000e+00  1.4028705934638184e+00 1.1735883036695189e+00 0.0000000000000000e+00  1.3845518398419072e+00 1.1245907432376707e+00 0.0000000000000000e+00  1.3519447468916181e+00 1.0363810394495221e+00 0.0000000000000000e+00  1.3029778379285488e+00 9.0130944302665261e-01 0.0000000000000000e+00  1.2393165287011818e+00 7.2101212322110875e-01 0.0000000000000000e+00  1.1689839002819964e+00 5.1578750603453749e-01 0.0000000000000000e+00  1.1050298009741466e+00 3.2401363029927666e-01 0.0000000000000000e+00  1.0578499745453902e+00 1.7973033892937340e-01 0.0000000000000000e+00  1.0290071381039365e+00 9.0487616350371350e-02 0.0000000000000000e+00  1.0136725699084317e+00 4.2739050752257444e-02 0.0000000000000000e+00  1.0062084193197487e+00 1.9426963435080422e-02 0.0000000000000000e+00  1.0027561509382321e+00 8.6275047258609853e-03 0.0000000000000000e+00  1.0012051762312681e+00 3.7739500157238054e-03 0.0000000000000000e+00  1.0005211965434200e+00 1.6316404648778733e-03 0.0000000000000000e+00  1.0002231657105927e+00 6.9920840435041274e-04 0.0000000000000000e+00  1.0000948334165620e+00 2.9664284253286309e-04 0.0000000000000000e+00  1.0000399032520704e+00 1.2524082713823812e-04 0.0000000000000000e+00  1.0000167136965481e+00 5.2113160351273784e-05 0.0000000000000000e+00  1.0000069205182807e+00 2.1834530084117546e-05 0.0000000000000000e+00  1.0000028457811905e+00 8.8223866208856930e-06 0.0000000000000000e+00  1.0000011919048875e+00 3.7392508521547635e-06 0.0000000000000000e+00  1.0000004314117741e+00 1.4362556857975658e-06 0.0000000000000000e+00  1.0000002547005664e+00 6.1118759448630117e-07 0.0000000000000000e+00  9.9999999130989359e-01 2.6905103442513948e-07 0.0000000000000000e+00  1.0000001400617529e+00 2.4521857864226320e-08 0.0000000000000000e+00  9.9999987696885351e-01 1.5368966894530434e-07 0.0000000000000000e+00  1.0000001671352583e+00 -1.4637051275374414e-07 0.0000000000000000e+00  9.9999981093790358e-01 2.1308956507238163e-07 0.0000000000000000e+00  1.0000002213640331e+00 -2.5041670594101205e-07 0.0000000000000000e+00  9.9999974903073507e-01 2.9766707865597416e-07 0.0000000000000000e+00  1.0000002826241778e+00 -3.3826388922797483e-07 0.0000000000000000e+00  9.9999968587879473e-01 3.7735606333902276e-07 0.0000000000000000e+00  1.0000003459282569e+00 -4.1170400986014507e-07 0.0000000000000000e+00  9.9999962252340335e-01 4.4134941040872823e-07 0.0000000000000000e+00  1.0000004085948884e+00 -4.6516371534543004e-07 0.0000000000000000e+00  9.9999956103199628e-01 4.8258471924529311e-07 0.0000000000000000e+00  1.0000004683493606e+00 -4.9298360022844033e-07 0.0000000000000000e+00  9.9999950351414568e-01 4.9593339726366347e-07 0.0000000000000000e+00  1.0000005231507294e+00 -4.9112662780230799e-07 0.0000000000000000e+00  9.9999945186566896e-01 4.7842576359151753e-07 0.0000000000000000e+00  1.0000005712499609e+00 -4.5785207033291474e-07 0.0000000000000000e+00  9.9999940766746964e-01 4.2959802672188528e-07 0.0000000000000000e+00  1.0000006112394679e+00 -3.9401858396267314e-07 0.0000000000000000e+00  9.9999937215061407e-01 3.5163074578738942e-07 0.0000000000000000e+00  1.0000006420615630e+00 -3.0309843935434052e-07 0.0000000000000000e+00  9.9999934620596842e-01 2.4922319129226468e-07 0.0000000000000000e+00  1.0000006629826483e+00 -1.9092293971529067e-07 0.0000000000000000e+00  9.9999933042093170e-01 1.2921539957804395e-07 0.0000000000000000e+00  1.0000006735500409e+00 -6.5192863865599816e-08 0.0000000000000000e+00  9.9999932512419842e-01 0.0000000000000000e+00 0.0000000000000000e+00  </DataArray> 
</PointData> 
</Piece>
</UnstructuredGrid>
</VTKFile>