<?xml version="1.0"?>
<VTKFile type="UnstructuredGrid"  version="0.1"  >
<UnstructuredGrid>
<Piece  NumberOfPoints="201" NumberOfCells="200">
<Points>
<DataArray  type="Float64"  NumberOfComponents="3"  format="ascii">-5 0 0  -4.95 0 0  -4.9 0 0  -4.85 0 0  -4.8 0 0  -4.75 0 0  -4.7 0 0  -4.65 0 0  -4.6 0 0  -4.55 0 0  -4.5 0 0  -4.45 0 0  -4.4 0 0  -4.35 0 0  -4.3 0 0  -4.25 0 0  -4.2 0 0  -4.15 0 0  -4.1 0 0  -4.05 0 0  -4 0 0  -3.95 0 0  -3.9 0 0  -3.85 0 0  -3.8 0 0  -3.75 0 0  -3.7 0 0  -3.65 0 0  -3.6 0 0  -3.55 0 0  -3.5 0 0  -3.45 0 0  -3.4 0 0  -3.35 0 0  -3.3 0 0  -3.25 0 0  -3.2 0 0  -3.15 0 0  -3.1 0 0  -3.05 0 0  -3 0 0  -2.95 0 0  -2.9 0 0  -2.85 0 0  -2.8 0 0  -2.75 0 0  -2.7 0 0  -2.65 0 0  -2.6 0 0  -2.55 0 0  -2.5 0 0  -2.45 0 0  -2.4 0 0  -2.35 0 0  -2.3 0 0  -2.25 0 0  -2.2 0 0  -2.15 0 0  -2.1 0 0  -2.05 0 0  -2 0 0  -1.95 0 0  -1.9 0 0  -1.85 0 0  -1.8 0 0  -1.75 0 0  -1.7 0 0  -1.65 0 0  -1.6 0 0  -1.55 0 0  -1.5 0 0  -1.45 0 0  -1.4 0 0  -1.35 0 0  -1.3 0 0  -1.25 0 0  -1.2 0 0  -1.15 0 0  -1.1 0 0  -1.05 0 0  -1 0 0  -0.9500000000000002 0 0  -0.9000000000000004 0 0  -0.8499999999999996 0 0  -0.7999999999999998 0 0  -0.75 0 0  -0.7000000000000002 0 0  -0.6500000000000004 0 0  -0.5999999999999996 0 0  -0.5499999999999998 0 0  -0.5 0 0  -0.4500000000000002 0 0  -0.4000000000000004 0 0  -0.3499999999999996 0 0  -0.2999999999999998 0 0  -0.25 0 0  -0.2000000000000002 0 0  -0.1500000000000004 0 0  -0.09999999999999964 0 0  -0.04999999999999982 0 0  0 0 0  0.04999999999999982 0 0  0.09999999999999964 0 0  0.1500000000000004 0 0  0.2000000000000002 0 0  0.25 0 0  0.2999999999999998 0 0  0.3499999999999996 0 0  0.4000000000000004 0 0  0.4500000000000002 0 0  0.5 0 0  0.5499999999999998 0 0  0.5999999999999996 0 0  0.6500000000000004 0 0  0.7000000000000002 0 0  0.75 0 0  0.7999999999999998 0 0  0.8499999999999996 0 0  0.9000000000000004 0 0  0.9500000000000002 0 0  1 0 0  1.05 0 0  1.1 0 0  1.15 0 0  1.2 0 0  1.25 0 0  1.3 0 0  1.35 0 0  1.4 0 0  1.45 0 0  1.5 0 0  1.55 0 0  1.6 0 0  1.65 0 0  1.7 0 0  1.75 0 0  1.8 0 0  1.85 0 0  1.9 0 0  1.95 0 0  2 0 0  2.05 0 0  2.1 0 0  2.15 0 0  2.2 0 0  2.25 0 0  2.3 0 0  2.35 0 0  2.4 0 0  2.45 0 0  2.5 0 0  2.55 0 0  2.6 0 0  2.65 0 0  2.7 0 0  2.75 0 0  2.8 0 0  2.85 0 0  2.9 0 0  2.95 0 0  3 0 0  3.050000000000001 0 0  3.1 0 0  3.15 0 0  3.199999999999999 0 0  3.25 0 0  3.300000000000001 0 0  3.35 0 0  3.4 0 0  3.449999999999999 0 0  3.5 0 0  3.550000000000001 0 0  3.6 0 0  3.65 0 0  3.699999999999999 0 0  3.75 0 0  3.800000000000001 0 0  3.85 0 0  3.9 0 0  3.949999999999999 0 0  4 0 0  4.050000000000001 0 0  4.1 0 0  4.15 0 0  4.199999999999999 0 0  4.25 0 0  4.300000000000001 0 0  4.35 0 0  4.4 0 0  4.449999999999999 0 0  4.5 0 0  4.550000000000001 0 0  4.6 0 0  4.65 0 0  4.699999999999999 0 0  4.75 0 0  4.800000000000001 0 0  4.85 0 0  4.9 0 0  4.949999999999999 0 0  5 0 0  </DataArray>
</Points>
<Cells>
<DataArray  type="UInt32"  Name="connectivity"  format="ascii">0 1  1 2  2 3  3 4  4 5  5 6  6 7  7 8  8 9  9 10  10 11  11 12  12 13  13 14  14 15  15 16  16 17  17 18  18 19  19 20  20 21  21 22  22 23  23 24  24 25  25 26  26 27  27 28  28 29  29 30  30 31  31 32  32 33  33 34  34 35  35 36  36 37  37 38  38 39  39 40  40 41  41 42  42 43  43 44  44 45  45 46  46 47  47 48  48 49  49 50  50 51  51 52  52 53  53 54  54 55  55 56  56 57  57 58  58 59  59 60  60 61  61 62  62 63  63 64  64 65  65 66  66 67  67 68  68 69  69 70  70 71  71 72  72 73  73 74  74 75  75 76  76 77  77 78  78 79  79 80  80 81  81 82  82 83  83 84  84 85  85 86  86 87  87 88  88 89  89 90  90 91  91 92  92 93  93 94  94 95  95 96  96 97  97 98  98 99  99 100  100 101  101 102  102 103  103 104  104 105  105 106  106 107  107 108  108 109  109 110  110 111  111 112  112 113  113 114  114 115  115 116  116 117  117 118  118 119  119 120  120 121  121 122  122 123  123 124  124 125  125 126  126 127  127 128  128 129  129 130  130 131  131 132  132 133  133 134  134 135  135 136  136 137  137 138  138 139  139 140  140 141  141 142  142 143  143 144  144 145  145 146  146 147  147 148  148 149  149 150  150 151  151 152  152 153  153 154  154 155  155 156  156 157  157 158  158 159  159 160  160 161  161 162  162 163  163 164  164 165  165 166  166 167  167 168  168 169  169 170  170 171  171 172  172 173  173 174  174 175  175 176  176 177  177 178  178 179  179 180  180 181  181 182  182 183  183 184  184 185  185 186  186 187  187 188  188 189  189 190  190 191  191 192  192 193  193 194  194 195  195 196  196 197  197 198  198 199  199 200  </DataArray>
<DataArray  type="UInt32"  Name="offsets"  format="ascii">2 4 6 8 10 12 14 16 18 20 22 24 26 28 30 32 34 36 38 40 42 44 46 48 50 52 54 56 58 60 62 64 66 68 70 72 74 76 78 80 82 84 86 88 90 92 94 96 98 100 102 104 106 108 110 112 114 116 118 120 122 124 126 128 130 132 134 136 138 140 142 144 146 148 150 152 154 156 158 160 162 164 166 168 170 172 174 176 178 180 182 184 186 188 190 192 194 196 198 200 202 204 206 208 210 212 214 216 218 220 222 224 226 228 230 232 234 236 238 240 242 244 246 248 250 252 254 256 258 260 262 264 266 268 270 272 274 276 278 280 282 284 286 288 290 292 294 296 298 300 302 304 306 308 310 312 314 316 318 320 322 324 326 328 330 332 334 336 338 340 342 344 346 348 350 352 354 356 358 360 362 364 366 368 370 372 374 376 378 380 382 384 386 388 390 392 394 396 398 400 </DataArray>
<DataArray  type="UInt8"  Name="types"  format="ascii">3 3 3 3 3 3 3 3 3 3 3 3 3 3 3 3 3 3 3 3 3 3 3 3 3 3 3 3 3 3 3 3 3 3 3 3 3 3 3 3 3 3 3 3 3 3 3 3 3 3 3 3 3 3 3 3 3 3 3 3 3 3 3 3 3 3 3 3 3 3 3 3 3 3 3 3 3 3 3 3 3 3 3 3 3 3 3 3 3 3 3 3 3 3 3 3 3 3 3 3 3 3 3 3 3 3 3 3 3 3 3 3 3 3 3 3 3 3 3 3 3 3 3 3 3 3 3 3 3 3 3 3 3 3 3 3 3 3 3 3 3 3 3 3 3 3 3 3 3 3 3 3 3 3 3 3 3 3 3 3 3 3 3 3 3 3 3 3 3 3 3 3 3 3 3 3 3 3 3 3 3 3 3 3 3 3 3 3 3 3 3 3 3 3 3 3 3 3 3 3 </DataArray>
</Cells>
<PointData  Vectors="(h, u)"> 
<DataArray  type="Float64"  Name="(h, u)"  NumberOfComponents="3" format="ascii">9.8795317415851169e-01 0.0000000000000000e+00 0.0000000000000000e+00  9.8795141301470135e-01 -5.4190841274342019e-04 0.0000000000000000e+00  9.8794392834775135e-01 -1.0843838631250560e-03 0.0000000000000000e+00  9.8793290094321340e-01 -1.6280209640496843e-03 0.0000000000000000e+00  9.8791611809535340e-01 -2.1733650259960499e-03 0.0000000000000000e+00  9.8789573122587127e-01 -2.7210448019143814e-03 0.0000000000000000e+00  9.8786952518615456e-01 -3.2715879591058939e-03 0.0000000000000000e+00  9.8783961360650485e-01 -3.8256633055544810e-03 0.0000000000000000e+00  9.8780378844933436e-01 -4.3837811548454461e-03 0.0000000000000000e+00  9.8776411871159175e-01 -4.9466524298680753e-03 0.0000000000000000e+00  9.8771841502731483e-01 -5.5147616132117981e-03 0.0000000000000000e+00  9.8766869903744170e-01 -6.0888522798214053e-03 0.0000000000000000e+00  9.8761281716804306e-01 -6.6693544246398890e-03 0.0000000000000000e+00  9.8755275048228752e-01 -7.2570066150622675e-03 0.0000000000000000e+00  9.8748641128636083e-01 -7.8521120175889907e-03 0.0000000000000000e+00  9.8741576666936193e-01 -8.4553060111875744e-03 0.0000000000000000e+00  9.8733885141935962e-01 -9.0666060981078531e-03 0.0000000000000000e+00  9.8725768254462898e-01 -9.6863308357415696e-03 0.0000000000000000e+00  9.8717052179304099e-01 -1.0313899301254592e-02 0.0000000000000000e+00  9.8707956240372341e-01 -1.0948904914625645e-02 0.0000000000000000e+00  9.8698347316967583e-01 -1.1589614124914915e-02 0.0000000000000000e+00  9.8688484070810434e-01 -1.2234202451948065e-02 0.0000000000000000e+00  9.8678302236547610e-01 -1.2878906574853615e-02 0.0000000000000000e+00  9.8668132484483029e-01 -1.3519447561388977e-02 0.0000000000000000e+00  9.8658018285604510e-01 -1.4148813688204878e-02 0.0000000000000000e+00  9.8648404589315575e-01 -1.4758933783453197e-02 0.0000000000000000e+00  9.8639488248276952e-01 -1.5338113096961616e-02 0.0000000000000000e+00  9.8631873213920396e-01 -1.5873075035479679e-02 0.0000000000000000e+00  9.8625951484387953e-01 -1.6346128600240387e-02 0.0000000000000000e+00  9.8622519116754814e-01 -1.6737749029688876e-02 0.0000000000000000e+00  9.8622184267221080e-01 -1.7023593098994143e-02 0.0000000000000000e+00  9.8625938159542392e-01 -1.7177800945020444e-02 0.0000000000000000e+00  9.8634587260409201e-01 -1.7169955521525008e-02 0.0000000000000000e+00  9.8649275513436185e-01 -1.6969224209213492e-02 0.0000000000000000e+00  9.8670940674422969e-01 -1.6541260118294376e-02 0.0000000000000000e+00  9.8700788571448439e-01 -1.5853163740375386e-02 0.0000000000000000e+00  9.8739778188768723e-01 -1.4870175365482453e-02 0.0000000000000000e+00  9.8789053665244309e-01 -1.3561280259654161e-02 0.0000000000000000e+00  9.8849466409577358e-01 -1.1895421223650376e-02 0.0000000000000000e+00  9.8921973307880939e-01 -9.8474819951647231e-03 0.0000000000000000e+00  9.9007204547236372e-01 -7.3937352459408044e-03 0.0000000000000000e+00  9.9105835437172440e-01 -4.5179715749072208e-03 0.0000000000000000e+00  9.9218205239249035e-01 -1.2060072449314025e-03 0.0000000000000000e+00  9.9344665910549945e-01 2.5481440249294561e-03 0.0000000000000000e+00  9.9485251977594447e-01 6.7487078875907549e-03 0.0000000000000000e+00  9.9640004935387760e-01 1.1391892300424280e-02 0.0000000000000000e+00  9.9808689775235582e-01 1.6473127163522828e-02 0.0000000000000000e+00  9.9991091036204593e-01 2.1980593841651339e-02 0.0000000000000000e+00  1.0018676961043134e+00 2.7903057997024236e-02 0.0000000000000000e+00  1.0039532623958300e+00 3.4223054373929702e-02 0.0000000000000000e+00  1.0061619257133181e+00 4.0925110678087961e-02 0.0000000000000000e+00  1.0084885944771431e+00 4.7988510505460810e-02 0.0000000000000000e+00  1.0109269776687606e+00 5.5395753180494126e-02 0.0000000000000000e+00  1.0134715099050651e+00 6.3124888835290341e-02 0.0000000000000000e+00  1.0161158307836697e+00 7.1158109742616063e-02 0.0000000000000000e+00  1.0188543637234921e+00 7.9473709994311345e-02 0.0000000000000000e+00  1.0216810514847148e+00 8.8054738154489637e-02 0.0000000000000000e+00  1.0245906113111962e+00 9.6880667653786237e-02 0.0000000000000000e+00  1.0275775201716439e+00 1.0593605315260865e-01 0.0000000000000000e+00  1.0306369752773330e+00 1.1520200484878471e-01 0.0000000000000000e+00  1.0337641296817353e+00 1.2466478024484284e-01 0.0000000000000000e+00  1.0369547952749771e+00 1.3430713164774094e-01 0.0000000000000000e+00  1.0402049438725369e+00 1.4411671828670633e-01 0.0000000000000000e+00  1.0435112124346122e+00 1.5407731494541019e-01 0.0000000000000000e+00  1.0468707269796280e+00 1.6417679515113071e-01 0.0000000000000000e+00  1.0502815405524997e+00 1.7439795896600815e-01 0.0000000000000000e+00  1.0537429624489065e+00 1.8472545683023081e-01 0.0000000000000000e+00  1.0572562712610274e+00 1.9513534470054883e-01 0.0000000000000000e+00  1.0608260955148145e+00 2.0559923083888415e-01 0.0000000000000000e+00  1.0644623569926357e+00 2.1606982951075165e-01 0.0000000000000000e+00  1.0681842802063937e+00 2.2647755446448434e-01 0.0000000000000000e+00  1.0720262281517121e+00 2.3670428504777655e-01 0.0000000000000000e+00  1.0760486868369084e+00 2.4655948431450914e-01 0.0000000000000000e+00  1.0803549608106089e+00 2.5572179597222888e-01 0.0000000000000000e+00  1.0851196523880098e+00 2.6366394155144268e-01 0.0000000000000000e+00  1.0906304991107483e+00 2.6952126209038868e-01 0.0000000000000000e+00  1.0973489492901007e+00 2.7192538680103190e-01 0.0000000000000000e+00  1.1059781967745412e+00 2.6880423071431520e-01 0.0000000000000000e+00  1.1175063248760546e+00 2.5728604983442821e-01 0.0000000000000000e+00  1.1331315078780415e+00 2.3395368515349541e-01 0.0000000000000000e+00  1.1539389901838024e+00 1.9586154062264194e-01 0.0000000000000000e+00  1.1802732270743466e+00 1.4239496462017842e-01 0.0000000000000000e+00  1.2110920637354468e+00 7.7063225299927957e-02 0.0000000000000000e+00  1.2439131329188007e+00 7.3743865075098910e-03 0.0000000000000000e+00  1.2756623732483565e+00 -5.7872332467657162e-02 0.0000000000000000e+00  1.3038461690049505e+00 -1.1195453072677392e-01 0.0000000000000000e+00  1.3271971293295033e+00 -1.5180340992683639e-01 0.0000000000000000e+00  1.3455825545272975e+00 -1.7749455306706033e-01 0.0000000000000000e+00  1.3595599568648118e+00 -1.9087657533024646e-01 0.0000000000000000e+00  1.3699488779611668e+00 -1.9438667822607597e-01 0.0000000000000000e+00  1.3775676381955297e+00 -1.9035840837877374e-01 0.0000000000000000e+00  1.3831136890174305e+00 -1.8074302263045236e-01 0.0000000000000000e+00  1.3871366487291148e+00 -1.6705771869033775e-01 0.0000000000000000e+00  1.3900487720069776e+00 -1.5043862735105390e-01 0.0000000000000000e+00  1.3921523849000390e+00 -1.3171785617698362e-01 0.0000000000000000e+00  1.3936639525261192e+00 -1.1150102088387998e-01 0.0000000000000000e+00  1.3947377323229482e+00 -9.0228171731274828e-02 0.0000000000000000e+00  1.3954804914428454e+00 -6.8223220941842619e-02 0.0000000000000000e+00  1.3959655282051071e+00 -4.5729061935153754e-02 0.0000000000000000e+00  1.3962390672142662e+00 -2.2935572774355383e-02 0.0000000000000000e+00  1.3963276274448224e+00 4.1101715031546926e-16 0.0000000000000000e+00  1.3962390672142659e+00 2.2935572774354974e-02 0.0000000000000000e+00  1.3959655282051069e+00 4.5729061935154455e-02 0.0000000000000000e+00  1.3954804914428449e+00 6.8223220941842203e-02 0.0000000000000000e+00  1.3947377323229477e+00 9.0228171731275314e-02 0.0000000000000000e+00  1.3936639525261187e+00 1.1150102088387791e-01 0.0000000000000000e+00  1.3921523849000390e+00 1.3171785617698406e-01 0.0000000000000000e+00  1.3900487720069770e+00 1.5043862735105204e-01 0.0000000000000000e+00  1.3871366487291146e+00 1.6705771869033836e-01 0.0000000000000000e+00  1.3831136890174298e+00 1.8074302263045014e-01 0.0000000000000000e+00  1.3775676381955297e+00 1.9035840837877396e-01 0.0000000000000000e+00  1.3699488779611666e+00 1.9438667822607408e-01 0.0000000000000000e+00  1.3595599568648120e+00 1.9087657533024677e-01 0.0000000000000000e+00  1.3455825545272979e+00 1.7749455306705975e-01 0.0000000000000000e+00  1.3271971293295040e+00 1.5180340992683844e-01 0.0000000000000000e+00  1.3038461690049510e+00 1.1195453072677398e-01 0.0000000000000000e+00  1.2756623732483576e+00 5.7872332467658966e-02 0.0000000000000000e+00  1.2439131329188011e+00 -7.3743865075093385e-03 0.0000000000000000e+00  1.2110920637354481e+00 -7.7063225299925708e-02 0.0000000000000000e+00  1.1802732270743472e+00 -1.4239496462017834e-01 0.0000000000000000e+00  1.1539389901838035e+00 -1.9586154062264116e-01 0.0000000000000000e+00  1.1331315078780420e+00 -2.3395368515349521e-01 0.0000000000000000e+00  1.1175063248760555e+00 -2.5728604983442915e-01 0.0000000000000000e+00  1.1059781967745412e+00 -2.6880423071431681e-01 0.0000000000000000e+00  1.0973489492901016e+00 -2.7192538680103406e-01 0.0000000000000000e+00  1.0906304991107487e+00 -2.6952126209038979e-01 0.0000000000000000e+00  1.0851196523880104e+00 -2.6366394155144413e-01 0.0000000000000000e+00  1.0803549608106087e+00 -2.5572179597222983e-01 0.0000000000000000e+00  1.0760486868369090e+00 -2.4655948431451008e-01 0.0000000000000000e+00  1.0720262281517117e+00 -2.3670428504777724e-01 0.0000000000000000e+00  1.0681842802063943e+00 -2.2647755446448553e-01 0.0000000000000000e+00  1.0644623569926350e+00 -2.1606982951075276e-01 0.0000000000000000e+00  1.0608260955148150e+00 -2.0559923083888548e-01 0.0000000000000000e+00  1.0572562712610269e+00 -1.9513534470055011e-01 0.0000000000000000e+00  1.0537429624489068e+00 -1.8472545683023245e-01 0.0000000000000000e+00  1.0502815405524990e+00 -1.7439795896600874e-01 0.0000000000000000e+00  1.0468707269796282e+00 -1.6417679515113165e-01 0.0000000000000000e+00  1.0435112124346118e+00 -1.5407731494541013e-01 0.0000000000000000e+00  1.0402049438725367e+00 -1.4411671828670847e-01 0.0000000000000000e+00  1.0369547952749769e+00 -1.3430713164774030e-01 0.0000000000000000e+00  1.0337641296817353e+00 -1.2466478024484386e-01 0.0000000000000000e+00  1.0306369752773328e+00 -1.1520200484878437e-01 0.0000000000000000e+00  1.0275775201716439e+00 -1.0593605315260933e-01 0.0000000000000000e+00  1.0245906113111960e+00 -9.6880667653786334e-02 0.0000000000000000e+00  1.0216810514847152e+00 -8.8054738154490303e-02 0.0000000000000000e+00  1.0188543637234928e+00 -7.9473709994311414e-02 0.0000000000000000e+00  1.0161158307836704e+00 -7.1158109742615466e-02 0.0000000000000000e+00  1.0134715099050655e+00 -6.3124888835290494e-02 0.0000000000000000e+00  1.0109269776687613e+00 -5.5395753180493300e-02 0.0000000000000000e+00  1.0084885944771438e+00 -4.7988510505461490e-02 0.0000000000000000e+00  1.0061619257133187e+00 -4.0925110678088177e-02 0.0000000000000000e+00  1.0039532623958305e+00 -3.4223054373931007e-02 0.0000000000000000e+00  1.0018676961043136e+00 -2.7903057997025783e-02 0.0000000000000000e+00  9.9991091036204616e-01 -2.1980593841652150e-02 0.0000000000000000e+00  9.9808689775235604e-01 -1.6473127163524059e-02 0.0000000000000000e+00  9.9640004935387771e-01 -1.1391892300424469e-02 0.0000000000000000e+00  9.9485251977594491e-01 -6.7487078875919414e-03 0.0000000000000000e+00  9.9344665910549945e-01 -2.5481440249285276e-03 0.0000000000000000e+00  9.9218205239249091e-01 1.2060072449307021e-03 0.0000000000000000e+00  9.9105835437172463e-01 4.5179715749083232e-03 0.0000000000000000e+00  9.9007204547236427e-01 7.3937352459400351e-03 0.0000000000000000e+00  9.8921973307880973e-01 9.8474819951656026e-03 0.0000000000000000e+00  9.8849466409577424e-01 1.1895421223648972e-02 0.0000000000000000e+00  9.8789053665244353e-01 1.3561280259655362e-02 0.0000000000000000e+00  9.8739778188768790e-01 1.4870175365481854e-02 0.0000000000000000e+00  9.8700788571448461e-01 1.5853163740377537e-02 0.0000000000000000e+00  9.8670940674423002e-01 1.6541260118295036e-02 0.0000000000000000e+00  9.8649275513436185e-01 1.6969224209216215e-02 0.0000000000000000e+00  9.8634587260409201e-01 1.7169955521525334e-02 0.0000000000000000e+00  9.8625938159542392e-01 1.7177800945023174e-02 0.0000000000000000e+00  9.8622184267221091e-01 1.7023593098994354e-02 0.0000000000000000e+00  9.8622519116754814e-01 1.6737749029691155e-02 0.0000000000000000e+00  9.8625951484387953e-01 1.6346128600240355e-02 0.0000000000000000e+00  9.8631873213920396e-01 1.5873075035481857e-02 0.0000000000000000e+00  9.8639488248276952e-01 1.5338113096961391e-02 0.0000000000000000e+00  9.8648404589315586e-01 1.4758933783454595e-02 0.0000000000000000e+00  9.8658018285604487e-01 1.4148813688204398e-02 0.0000000000000000e+00  9.8668132484483040e-01 1.3519447561389935e-02 0.0000000000000000e+00  9.8678302236547588e-01 1.2878906574852581e-02 0.0000000000000000e+00  9.8688484070810412e-01 1.2234202451949300e-02 0.0000000000000000e+00  9.8698347316967527e-01 1.1589614124913453e-02 0.0000000000000000e+00  9.8707956240372308e-01 1.0948904914626419e-02 0.0000000000000000e+00  9.8717052179304032e-01 1.0313899301252748e-02 0.0000000000000000e+00  9.8725768254462898e-01 9.6863308357418975e-03 0.0000000000000000e+00  9.8733885141935918e-01 9.0666060981058616e-03 0.0000000000000000e+00  9.8741576666936204e-01 8.4553060111878138e-03 0.0000000000000000e+00  9.8748641128636050e-01 7.8521120175870200e-03 0.0000000000000000e+00  9.8755275048228763e-01 7.2570066150626673e-03 0.0000000000000000e+00  9.8761281716804272e-01 6.6693544246375028e-03 0.0000000000000000e+00  9.8766869903744181e-01 6.0888522798214833e-03 0.0000000000000000e+00  9.8771841502731461e-01 5.5147616132101901e-03 0.0000000000000000e+00  9.8776411871159175e-01 4.9466524298687640e-03 0.0000000000000000e+00  9.8780378844933436e-01 4.3837811548448589e-03 0.0000000000000000e+00  9.8783961360650496e-01 3.8256633055553913e-03 0.0000000000000000e+00  9.8786952518615456e-01 3.2715879591057422e-03 0.0000000000000000e+00  9.8789573122587127e-01 2.7210448019154604e-03 0.0000000000000000e+00  9.8791611809535329e-01 2.1733650259966788e-03 0.0000000000000000e+00  9.8793290094321318e-01 1.6280209640512505e-03 0.0000000000000000e+00  9.8794392834775102e-01 1.0843838631259862e-03 0.0000000000000000e+00  9.8795141301470080e-01 5.4190841274371921e-04 0.0000000000000000e+00  9.8795317415851136e-01 0.0000000000000000e+00 0.0000000000000000e+00  </DataArray> 
</PointData> 
</Piece>
</UnstructuredGrid>
</VTKFile>