<?xml version="1.0"?>
<VTKFile type="UnstructuredGrid"  version="0.1"  >
<UnstructuredGrid>
<Piece  NumberOfPoints="201" NumberOfCells="200">
<Points>
<DataArray  type="Float64"  NumberOfComponents="3"  format="ascii">-5 0 0  -4.95 0 0  -4.9 0 0  -4.85 0 0  -4.8 0 0  -4.75 0 0  -4.7 0 0  -4.65 0 0  -4.6 0 0  -4.55 0 0  -4.5 0 0  -4.45 0 0  -4.4 0 0  -4.35 0 0  -4.3 0 0  -4.25 0 0  -4.2 0 0  -4.15 0 0  -4.1 0 0  -4.05 0 0  -4 0 0  -3.95 0 0  -3.9 0 0  -3.85 0 0  -3.8 0 0  -3.75 0 0  -3.7 0 0  -3.65 0 0  -3.6 0 0  -3.55 0 0  -3.5 0 0  -3.45 0 0  -3.4 0 0  -3.35 0 0  -3.3 0 0  -3.25 0 0  -3.2 0 0  -3.15 0 0  -3.1 0 0  -3.05 0 0  -3 0 0  -2.95 0 0  -2.9 0 0  -2.85 0 0  -2.8 0 0  -2.75 0 0  -2.7 0 0  -2.65 0 0  -2.6 0 0  -2.55 0 0  -2.5 0 0  -2.45 0 0  -2.4 0 0  -2.35 0 0  -2.3 0 0  -2.25 0 0  -2.2 0 0  -2.15 0 0  -2.1 0 0  -2.05 0 0  -2 0 0  -1.95 0 0  -1.9 0 0  -1.85 0 0  -1.8 0 0  -1.75 0 0  -1.7 0 0  -1.65 0 0  -1.6 0 0  -1.55 0 0  -1.5 0 0  -1.45 0 0  -1.4 0 0  -1.35 0 0  -1.3 0 0  -1.25 0 0  -1.2 0 0  -1.15 0 0  -1.1 0 0  -1.05 0 0  -1 0 0  -0.9500000000000002 0 0  -0.9000000000000004 0 0  -0.8499999999999996 0 0  -0.7999999999999998 0 0  -0.75 0 0  -0.7000000000000002 0 0  -0.6500000000000004 0 0  -0.5999999999999996 0 0  -0.5499999999999998 0 0  -0.5 0 0  -0.4500000000000002 0 0  -0.4000000000000004 0 0  -0.3499999999999996 0 0  -0.2999999999999998 0 0  -0.25 0 0  -0.2000000000000002 0 0  -0.1500000000000004 0 0  -0.09999999999999964 0 0  -0.04999999999999982 0 0  0 0 0  0.04999999999999982 0 0  0.09999999999999964 0 0  0.1500000000000004 0 0  0.2000000000000002 0 0  0.25 0 0  0.2999999999999998 0 0  0.3499999999999996 0 0  0.4000000000000004 0 0  0.4500000000000002 0 0  0.5 0 0  0.5499999999999998 0 0  0.5999999999999996 0 0  0.6500000000000004 0 0  0.7000000000000002 0 0  0.75 0 0  0.7999999999999998 0 0  0.8499999999999996 0 0  0.9000000000000004 0 0  0.9500000000000002 0 0  1 0 0  1.05 0 0  1.1 0 0  1.15 0 0  1.2 0 0  1.25 0 0  1.3 0 0  1.35 0 0  1.4 0 0  1.45 0 0  1.5 0 0  1.55 0 0  1.6 0 0  1.65 0 0  1.7 0 0  1.75 0 0  1.8 0 0  1.85 0 0  1.9 0 0  1.95 0 0  2 0 0  2.05 0 0  2.1 0 0  2.15 0 0  2.2 0 0  2.25 0 0  2.3 0 0  2.35 0 0  2.4 0 0  2.45 0 0  2.5 0 0  2.55 0 0  2.6 0 0  2.65 0 0  2.7 0 0  2.75 0 0  2.8 0 0  2.85 0 0  2.9 0 0  2.95 0 0  3 0 0  3.050000000000001 0 0  3.1 0 0  3.15 0 0  3.199999999999999 0 0  3.25 0 0  3.300000000000001 0 0  3.35 0 0  3.4 0 0  3.449999999999999 0 0  3.5 0 0  3.550000000000001 0 0  3.6 0 0  3.65 0 0  3.699999999999999 0 0  3.75 0 0  3.800000000000001 0 0  3.85 0 0  3.9 0 0  3.949999999999999 0 0  4 0 0  4.050000000000001 0 0  4.1 0 0  4.15 0 0  4.199999999999999 0 0  4.25 0 0  4.300000000000001 0 0  4.35 0 0  4.4 0 0  4.449999999999999 0 0  4.5 0 0  4.550000000000001 0 0  4.6 0 0  4.65 0 0  4.699999999999999 0 0  4.75 0 0  4.800000000000001 0 0  4.85 0 0  4.9 0 0  4.949999999999999 0 0  5 0 0  </DataArray>
</Points>
<Cells>
<DataArray  type="UInt32"  Name="connectivity"  format="ascii">0 1  1 2  2 3  3 4  4 5  5 6  6 7  7 8  8 9  9 10  10 11  11 12  12 13  13 14  14 15  15 16  16 17  17 18  18 19  19 20  20 21  21 22  22 23  23 24  24 25  25 26  26 27  27 28  28 29  29 30  30 31  31 32  32 33  33 34  34 35  35 36  36 37  37 38  38 39  39 40  40 41  41 42  42 43  43 44  44 45  45 46  46 47  47 48  48 49  49 50  50 51  51 52  52 53  53 54  54 55  55 56  56 57  57 58  58 59  59 60  60 61  61 62  62 63  63 64  64 65  65 66  66 67  67 68  68 69  69 70  70 71  71 72  72 73  73 74  74 75  75 76  76 77  77 78  78 79  79 80  80 81  81 82  82 83  83 84  84 85  85 86  86 87  87 88  88 89  89 90  90 91  91 92  92 93  93 94  94 95  95 96  96 97  97 98  98 99  99 100  100 101  101 102  102 103  103 104  104 105  105 106  106 107  107 108  108 109  109 110  110 111  111 112  112 113  113 114  114 115  115 116  116 117  117 118  118 119  119 120  120 121  121 122  122 123  123 124  124 125  125 126  126 127  127 128  128 129  129 130  130 131  131 132  132 133  133 134  134 135  135 136  136 137  137 138  138 139  139 140  140 141  141 142  142 143  143 144  144 145  145 146  146 147  147 148  148 149  149 150  150 151  151 152  152 153  153 154  154 155  155 156  156 157  157 158  158 159  159 160  160 161  161 162  162 163  163 164  164 165  165 166  166 167  167 168  168 169  169 170  170 171  171 172  172 173  173 174  174 175  175 176  176 177  177 178  178 179  179 180  180 181  181 182  182 183  183 184  184 185  185 186  186 187  187 188  188 189  189 190  190 191  191 192  192 193  193 194  194 195  195 196  196 197  197 198  198 199  199 200  </DataArray>
<DataArray  type="UInt32"  Name="offsets"  format="ascii">2 4 6 8 10 12 14 16 18 20 22 24 26 28 30 32 34 36 38 40 42 44 46 48 50 52 54 56 58 60 62 64 66 68 70 72 74 76 78 80 82 84 86 88 90 92 94 96 98 100 102 104 106 108 110 112 114 116 118 120 122 124 126 128 130 132 134 136 138 140 142 144 146 148 150 152 154 156 158 160 162 164 166 168 170 172 174 176 178 180 182 184 186 188 190 192 194 196 198 200 202 204 206 208 210 212 214 216 218 220 222 224 226 228 230 232 234 236 238 240 242 244 246 248 250 252 254 256 258 260 262 264 266 268 270 272 274 276 278 280 282 284 286 288 290 292 294 296 298 300 302 304 306 308 310 312 314 316 318 320 322 324 326 328 330 332 334 336 338 340 342 344 346 348 350 352 354 356 358 360 362 364 366 368 370 372 374 376 378 380 382 384 386 388 390 392 394 396 398 400 </DataArray>
<DataArray  type="UInt8"  Name="types"  format="ascii">3 3 3 3 3 3 3 3 3 3 3 3 3 3 3 3 3 3 3 3 3 3 3 3 3 3 3 3 3 3 3 3 3 3 3 3 3 3 3 3 3 3 3 3 3 3 3 3 3 3 3 3 3 3 3 3 3 3 3 3 3 3 3 3 3 3 3 3 3 3 3 3 3 3 3 3 3 3 3 3 3 3 3 3 3 3 3 3 3 3 3 3 3 3 3 3 3 3 3 3 3 3 3 3 3 3 3 3 3 3 3 3 3 3 3 3 3 3 3 3 3 3 3 3 3 3 3 3 3 3 3 3 3 3 3 3 3 3 3 3 3 3 3 3 3 3 3 3 3 3 3 3 3 3 3 3 3 3 3 3 3 3 3 3 3 3 3 3 3 3 3 3 3 3 3 3 3 3 3 3 3 3 3 3 3 3 3 3 3 3 3 3 3 3 3 3 3 3 3 3 </DataArray>
</Cells>
<PointData  Vectors="(h, u)"> 
<DataArray  type="Float64"  Name="(h, u)"  NumberOfComponents="3" format="ascii">1.0091104292428286e+00 0.0000000000000000e+00 0.0000000000000000e+00  1.0112529229384781e+00 -2.0951859501918489e-02 0.0000000000000000e+00  1.0184143506419840e+00 -5.0485901416980290e-02 0.0000000000000000e+00  1.0326909638926323e+00 -9.8435531160001977e-02 0.0000000000000000e+00  1.0569023935626831e+00 -1.7495054598319029e-01 0.0000000000000000e+00  1.0927671847646923e+00 -2.8536629469704644e-01 0.0000000000000000e+00  1.1384038995315149e+00 -4.2300021348757910e-01 0.0000000000000000e+00  1.1877494310891921e+00 -5.6861642065984763e-01 0.0000000000000000e+00  1.2334590300639745e+00 -7.0054774140605458e-01 0.0000000000000000e+00  1.2704871269699975e+00 -8.0532555086769930e-01 0.0000000000000000e+00  1.2971872768856008e+00 -8.7970975923742500e-01 0.0000000000000000e+00  1.3143137909495466e+00 -9.2691508372862452e-01 0.0000000000000000e+00  1.3236560978158651e+00 -9.5251456367056875e-01 0.0000000000000000e+00  1.3271263853300947e+00 -9.6203830054567707e-01 0.0000000000000000e+00  1.3263579802552288e+00 -9.6003462557210129e-01 0.0000000000000000e+00  1.3226040050814856e+00 -9.4992472998768962e-01 0.0000000000000000e+00  1.3167749832793660e+00 -9.3415941516478895e-01 0.0000000000000000e+00  1.3095112874200769e+00 -9.1445348456342190e-01 0.0000000000000000e+00  1.3012579865109923e+00 -8.9199011507493453e-01 0.0000000000000000e+00  1.2923215775296042e+00 -8.6758600708024358e-01 0.0000000000000000e+00  1.2829146222970791e+00 -8.4180381732640042e-01 0.0000000000000000e+00  1.2731844188898571e+00 -8.1503692000424921e-01 0.0000000000000000e+00  1.2632351008607896e+00 -7.8756063778935070e-01 0.0000000000000000e+00  1.2531403868265698e+00 -7.5957335176948959e-01 0.0000000000000000e+00  1.2429542237331230e+00 -7.3121780243474910e-01 0.0000000000000000e+00  1.2327161158428239e+00 -7.0260179903761000e-01 0.0000000000000000e+00  1.2224564479991440e+00 -6.7380611055757555e-01 0.0000000000000000e+00  1.2121985678277696e+00 -6.4489590754790460e-01 0.0000000000000000e+00  1.2019616622905211e+00 -6.1592287310654015e-01 0.0000000000000000e+00  1.1917614544152528e+00 -5.8693230525046702e-01 0.0000000000000000e+00  1.1816119333610315e+00 -5.5796288797688409e-01 0.0000000000000000e+00  1.1715254701903304e+00 -5.2905158698577837e-01 0.0000000000000000e+00  1.1615140031836952e+00 -5.0023267102212809e-01 0.0000000000000000e+00  1.1515889154881216e+00 -4.7154132113024172e-01 0.0000000000000000e+00  1.1417619713876879e+00 -4.4301268050024706e-01 0.0000000000000000e+00  1.1320450988728847e+00 -4.1468457727302632e-01 0.0000000000000000e+00  1.1224512346278051e+00 -3.8659701074342689e-01 0.0000000000000000e+00  1.1129940673755490e+00 -3.5879416464020791e-01 0.0000000000000000e+00  1.1036888800853519e+00 -3.3132454582080773e-01 0.0000000000000000e+00  1.0945522685615379e+00 -3.0424236001651855e-01 0.0000000000000000e+00  1.0856030223096573e+00 -2.7760838079927586e-01 0.0000000000000000e+00  1.0768618030431862e+00 -2.5149067765301586e-01 0.0000000000000000e+00  1.0683520534721285e+00 -2.2596612990710954e-01 0.0000000000000000e+00  1.0600995781383966e+00 -2.0112036481332593e-01 0.0000000000000000e+00  1.0521333896871254e+00 -1.7704957378986774e-01 0.0000000000000000e+00  1.0444850585712055e+00 -1.5385926731232480e-01 0.0000000000000000e+00  1.0371892824995230e+00 -1.3166564421239496e-01 0.0000000000000000e+00  1.0302827554707992e+00 -1.1059237664101773e-01 0.0000000000000000e+00  1.0238040941524451e+00 -9.0770277720648634e-02 0.0000000000000000e+00  1.0177918752510748e+00 -7.2330971813808514e-02 0.0000000000000000e+00  1.0122834902242421e+00 -5.5403388849218596e-02 0.0000000000000000e+00  1.0073121117399584e+00 -4.0103511103689628e-02 0.0000000000000000e+00  1.0029043618637423e+00 -2.6527248024842600e-02 0.0000000000000000e+00  9.9907662734418357e-01 -1.4737598458307974e-02 0.0000000000000000e+00  9.9583239550881908e-01 -4.7566670888531254e-03 0.0000000000000000e+00  9.9315957388278908e-01 3.4443467156130996e-03 0.0000000000000000e+00  9.9102951816495111e-01 9.9473368481737701e-03 0.0000000000000000e+00  9.8939770770537649e-01 1.4886760859347630e-02 0.0000000000000000e+00  9.8820616868689437e-01 1.8440396982718169e-02 0.0000000000000000e+00  9.8738823860434777e-01 2.0815873810794808e-02 0.0000000000000000e+00  9.8687330191460632e-01 2.2233459799543453e-02 0.0000000000000000e+00  9.8659315790624436e-01 2.2907769165462621e-02 0.0000000000000000e+00  9.8648542201890477e-01 2.3034349332037459e-02 0.0000000000000000e+00  9.8649807537284695e-01 2.2777686994423816e-02 0.0000000000000000e+00  9.8658895407900316e-01 2.2269820446649369e-02 0.0000000000000000e+00  9.8672766171912996e-01 2.1607343964721724e-02 0.0000000000000000e+00  9.8689171242651907e-01 2.0860122263197573e-02 0.0000000000000000e+00  9.8706756362333326e-01 2.0071760331528733e-02 0.0000000000000000e+00  9.8724536952626962e-01 1.9272058743275200e-02 0.0000000000000000e+00  9.8742097732474832e-01 1.8475194745324282e-02 0.0000000000000000e+00  9.8759045369615195e-01 1.7692092954660028e-02 0.0000000000000000e+00  9.8775369136032320e-01 1.6924399450937586e-02 0.0000000000000000e+00  9.8790878208437027e-01 1.6176387322982405e-02 0.0000000000000000e+00  9.8805707791654274e-01 1.5445368790897432e-02 0.0000000000000000e+00  9.8819708465778899e-01 1.4734002491254660e-02 0.0000000000000000e+00  9.8833068133112434e-01 1.4038250268547508e-02 0.0000000000000000e+00  9.8845628163831778e-01 1.3360704077768775e-02 0.0000000000000000e+00  9.8857602753277030e-01 1.2696854857649808e-02 0.0000000000000000e+00  9.8868812094179070e-01 1.2049553567200796e-02 0.0000000000000000e+00  9.8879490158940397e-01 1.1414075703740846e-02 0.0000000000000000e+00  9.8889434511904228e-01 1.0793522603115675e-02 0.0000000000000000e+00  9.8898896793785951e-01 1.0183072977635059e-02 0.0000000000000000e+00  9.8907652951358827e-01 9.5859905266935837e-03 0.0000000000000000e+00  9.8915970790520502e-01 8.9974576398721209e-03 0.0000000000000000e+00  9.8923606290840871e-01 8.4207917264792348e-03 0.0000000000000000e+00  9.8930841834865735e-01 7.8512813671096169e-03 0.0000000000000000e+00  9.8937415341811252e-01 7.2921820933351264e-03 0.0000000000000000e+00  9.8943622038695955e-01 6.7389932256235654e-03 0.0000000000000000e+00  9.8949183827521758e-01 6.1947916278372655e-03 0.0000000000000000e+00  9.8954406945336926e-01 5.6553904870469945e-03 0.0000000000000000e+00  9.8958999382702262e-01 5.1235745503002555e-03 0.0000000000000000e+00  9.8963276498517472e-01 4.5955686328357876e-03 0.0000000000000000e+00  9.8966934484186220e-01 4.0737594694387506e-03 0.0000000000000000e+00  9.8970295918484996e-01 3.5548720356121388e-03 0.0000000000000000e+00  9.8973047272198378e-01 3.0408005643982397e-03 0.0000000000000000e+00  9.8975516455500656e-01 2.5288459321882091e-03 0.0000000000000000e+00  9.8977382239337863e-01 2.0203301566334600e-03 0.0000000000000000e+00  9.8978976003698071e-01 1.5131898664326475e-03 0.0000000000000000e+00  9.8979970774213866e-01 1.0081127011222690e-03 0.0000000000000000e+00  9.8980699566079400e-01 5.0371249913405821e-04 0.0000000000000000e+00  9.8980831552808324e-01 5.6407969364800822e-16 0.0000000000000000e+00  9.8980699566079400e-01 -5.0371249913362518e-04 0.0000000000000000e+00  9.8979970774213877e-01 -1.0081127011216579e-03 0.0000000000000000e+00  9.8978976003698094e-01 -1.5131898664327527e-03 0.0000000000000000e+00  9.8977382239337852e-01 -2.0203301566333199e-03 0.0000000000000000e+00  9.8975516455500678e-01 -2.5288459321874584e-03 0.0000000000000000e+00  9.8973047272198356e-01 -3.0408005643979127e-03 0.0000000000000000e+00  9.8970295918485029e-01 -3.5548720356115304e-03 0.0000000000000000e+00  9.8966934484186175e-01 -4.0737594694378572e-03 0.0000000000000000e+00  9.8963276498517505e-01 -4.5955686328361719e-03 0.0000000000000000e+00  9.8958999382702229e-01 -5.1235745502996605e-03 0.0000000000000000e+00  9.8954406945336948e-01 -5.6553904870471445e-03 0.0000000000000000e+00  9.8949183827521703e-01 -6.1947916278362030e-03 0.0000000000000000e+00  9.8943622038695966e-01 -6.7389932256239739e-03 0.0000000000000000e+00  9.8937415341811230e-01 -7.2921820933349799e-03 0.0000000000000000e+00  9.8930841834865757e-01 -7.8512813671104114e-03 0.0000000000000000e+00  9.8923606290840838e-01 -8.4207917264788757e-03 0.0000000000000000e+00  9.8915970790520524e-01 -8.9974576398725789e-03 0.0000000000000000e+00  9.8907652951358827e-01 -9.5859905266935490e-03 0.0000000000000000e+00  9.8898896793785984e-01 -1.0183072977635701e-02 0.0000000000000000e+00  9.8889434511904239e-01 -1.0793522603115309e-02 0.0000000000000000e+00  9.8879490158940420e-01 -1.1414075703741059e-02 0.0000000000000000e+00  9.8868812094179082e-01 -1.2049553567200380e-02 0.0000000000000000e+00  9.8857602753277041e-01 -1.2696854857650425e-02 0.0000000000000000e+00  9.8845628163831800e-01 -1.3360704077768135e-02 0.0000000000000000e+00  9.8833068133112423e-01 -1.4038250268548141e-02 0.0000000000000000e+00  9.8819708465778933e-01 -1.4734002491254268e-02 0.0000000000000000e+00  9.8805707791654263e-01 -1.5445368790898603e-02 0.0000000000000000e+00  9.8790878208437038e-01 -1.6176387322982683e-02 0.0000000000000000e+00  9.8775369136032309e-01 -1.6924399450939279e-02 0.0000000000000000e+00  9.8759045369615195e-01 -1.7692092954660493e-02 0.0000000000000000e+00  9.8742097732474843e-01 -1.8475194745325531e-02 0.0000000000000000e+00  9.8724536952626962e-01 -1.9272058743275668e-02 0.0000000000000000e+00  9.8706756362333337e-01 -2.0071760331529073e-02 0.0000000000000000e+00  9.8689171242651885e-01 -2.0860122263197733e-02 0.0000000000000000e+00  9.8672766171913018e-01 -2.1607343964721373e-02 0.0000000000000000e+00  9.8658895407900271e-01 -2.2269820446649782e-02 0.0000000000000000e+00  9.8649807537284706e-01 -2.2777686994422980e-02 0.0000000000000000e+00  9.8648542201890421e-01 -2.3034349332037456e-02 0.0000000000000000e+00  9.8659315790624447e-01 -2.2907769165461053e-02 0.0000000000000000e+00  9.8687330191460543e-01 -2.2233459799543033e-02 0.0000000000000000e+00  9.8738823860434755e-01 -2.0815873810792779e-02 0.0000000000000000e+00  9.8820616868689326e-01 -1.8440396982717322e-02 0.0000000000000000e+00  9.8939770770537616e-01 -1.4886760859345491e-02 0.0000000000000000e+00  9.9102951816495033e-01 -9.9473368481729670e-03 0.0000000000000000e+00  9.9315957388278886e-01 -3.4443467156108072e-03 0.0000000000000000e+00  9.9583239550881864e-01 4.7566670888530812e-03 0.0000000000000000e+00  9.9907662734418357e-01 1.4737598458309971e-02 0.0000000000000000e+00  1.0029043618637423e+00 2.6527248024842180e-02 0.0000000000000000e+00  1.0073121117399586e+00 4.0103511103690571e-02 0.0000000000000000e+00  1.0122834902242421e+00 5.5403388849218402e-02 0.0000000000000000e+00  1.0177918752510748e+00 7.2330971813810499e-02 0.0000000000000000e+00  1.0238040941524453e+00 9.0770277720648565e-02 0.0000000000000000e+00  1.0302827554707992e+00 1.1059237664101880e-01 0.0000000000000000e+00  1.0371892824995228e+00 1.3166564421239396e-01 0.0000000000000000e+00  1.0444850585712049e+00 1.5385926731232599e-01 0.0000000000000000e+00  1.0521333896871252e+00 1.7704957378986783e-01 0.0000000000000000e+00  1.0600995781383957e+00 2.0112036481332649e-01 0.0000000000000000e+00  1.0683520534721287e+00 2.2596612990711093e-01 0.0000000000000000e+00  1.0768618030431854e+00 2.5149067765301730e-01 0.0000000000000000e+00  1.0856030223096580e+00 2.7760838079927630e-01 0.0000000000000000e+00  1.0945522685615379e+00 3.0424236001651983e-01 0.0000000000000000e+00  1.1036888800853524e+00 3.3132454582080678e-01 0.0000000000000000e+00  1.1129940673755490e+00 3.5879416464020814e-01 0.0000000000000000e+00  1.1224512346278053e+00 3.8659701074342628e-01 0.0000000000000000e+00  1.1320450988728847e+00 4.1468457727302627e-01 0.0000000000000000e+00  1.1417619713876883e+00 4.4301268050024795e-01 0.0000000000000000e+00  1.1515889154881218e+00 4.7154132113024144e-01 0.0000000000000000e+00  1.1615140031836957e+00 5.0023267102212854e-01 0.0000000000000000e+00  1.1715254701903306e+00 5.2905158698577825e-01 0.0000000000000000e+00  1.1816119333610318e+00 5.5796288797688476e-01 0.0000000000000000e+00  1.1917614544152535e+00 5.8693230525046791e-01 0.0000000000000000e+00  1.2019616622905209e+00 6.1592287310654004e-01 0.0000000000000000e+00  1.2121985678277698e+00 6.4489590754790560e-01 0.0000000000000000e+00  1.2224564479991433e+00 6.7380611055757533e-01 0.0000000000000000e+00  1.2327161158428235e+00 7.0260179903761011e-01 0.0000000000000000e+00  1.2429542237331228e+00 7.3121780243474888e-01 0.0000000000000000e+00  1.2531403868265700e+00 7.5957335176948881e-01 0.0000000000000000e+00  1.2632351008607894e+00 7.8756063778935093e-01 0.0000000000000000e+00  1.2731844188898569e+00 8.1503692000424899e-01 0.0000000000000000e+00  1.2829146222970786e+00 8.4180381732640008e-01 0.0000000000000000e+00  1.2923215775296040e+00 8.6758600708024425e-01 0.0000000000000000e+00  1.3012579865109919e+00 8.9199011507493509e-01 0.0000000000000000e+00  1.3095112874200767e+00 9.1445348456342213e-01 0.0000000000000000e+00  1.3167749832793656e+00 9.3415941516478873e-01 0.0000000000000000e+00  1.3226040050814858e+00 9.4992472998768918e-01 0.0000000000000000e+00  1.3263579802552286e+00 9.6003462557210106e-01 0.0000000000000000e+00  1.3271263853300947e+00 9.6203830054567696e-01 0.0000000000000000e+00  1.3236560978158651e+00 9.5251456367056841e-01 0.0000000000000000e+00  1.3143137909495466e+00 9.2691508372862552e-01 0.0000000000000000e+00  1.2971872768856008e+00 8.7970975923742523e-01 0.0000000000000000e+00  1.2704871269699969e+00 8.0532555086769753e-01 0.0000000000000000e+00  1.2334590300639747e+00 7.0054774140605369e-01 0.0000000000000000e+00  1.1877494310891921e+00 5.6861642065984874e-01 0.0000000000000000e+00  1.1384038995315160e+00 4.2300021348758227e-01 0.0000000000000000e+00  1.0927671847646918e+00 2.8536629469704788e-01 0.0000000000000000e+00  1.0569023935626822e+00 1.7495054598318935e-01 0.0000000000000000e+00  1.0326909638926316e+00 9.8435531160002268e-02 0.0000000000000000e+00  1.0184143506419840e+00 5.0485901416980034e-02 0.0000000000000000e+00  1.0112529229384781e+00 2.0951859501919138e-02 0.0000000000000000e+00  1.0091104292428288e+00 0.0000000000000000e+00 0.0000000000000000e+00  </DataArray> 
</PointData> 
</Piece>
</UnstructuredGrid>
</VTKFile>