<?xml version="1.0"?>
<VTKFile type="UnstructuredGrid"  version="0.1"  >
<UnstructuredGrid>
<Piece  NumberOfPoints="201" NumberOfCells="200">
<Points>
<DataArray  type="Float64"  NumberOfComponents="3"  format="ascii">-5 0 0  -4.95 0 0  -4.9 0 0  -4.85 0 0  -4.8 0 0  -4.75 0 0  -4.7 0 0  -4.65 0 0  -4.6 0 0  -4.55 0 0  -4.5 0 0  -4.45 0 0  -4.4 0 0  -4.35 0 0  -4.3 0 0  -4.25 0 0  -4.2 0 0  -4.15 0 0  -4.1 0 0  -4.05 0 0  -4 0 0  -3.95 0 0  -3.9 0 0  -3.85 0 0  -3.8 0 0  -3.75 0 0  -3.7 0 0  -3.65 0 0  -3.6 0 0  -3.55 0 0  -3.5 0 0  -3.45 0 0  -3.4 0 0  -3.35 0 0  -3.3 0 0  -3.25 0 0  -3.2 0 0  -3.15 0 0  -3.1 0 0  -3.05 0 0  -3 0 0  -2.95 0 0  -2.9 0 0  -2.85 0 0  -2.8 0 0  -2.75 0 0  -2.7 0 0  -2.65 0 0  -2.6 0 0  -2.55 0 0  -2.5 0 0  -2.45 0 0  -2.4 0 0  -2.35 0 0  -2.3 0 0  -2.25 0 0  -2.2 0 0  -2.15 0 0  -2.1 0 0  -2.05 0 0  -2 0 0  -1.95 0 0  -1.9 0 0  -1.85 0 0  -1.8 0 0  -1.75 0 0  -1.7 0 0  -1.65 0 0  -1.6 0 0  -1.55 0 0  -1.5 0 0  -1.45 0 0  -1.4 0 0  -1.35 0 0  -1.3 0 0  -1.25 0 0  -1.2 0 0  -1.15 0 0  -1.1 0 0  -1.05 0 0  -1 0 0  -0.9500000000000002 0 0  -0.9000000000000004 0 0  -0.8499999999999996 0 0  -0.7999999999999998 0 0  -0.75 0 0  -0.7000000000000002 0 0  -0.6500000000000004 0 0  -0.5999999999999996 0 0  -0.5499999999999998 0 0  -0.5 0 0  -0.4500000000000002 0 0  -0.4000000000000004 0 0  -0.3499999999999996 0 0  -0.2999999999999998 0 0  -0.25 0 0  -0.2000000000000002 0 0  -0.1500000000000004 0 0  -0.09999999999999964 0 0  -0.04999999999999982 0 0  0 0 0  0.04999999999999982 0 0  0.09999999999999964 0 0  0.1500000000000004 0 0  0.2000000000000002 0 0  0.25 0 0  0.2999999999999998 0 0  0.3499999999999996 0 0  0.4000000000000004 0 0  0.4500000000000002 0 0  0.5 0 0  0.5499999999999998 0 0  0.5999999999999996 0 0  0.6500000000000004 0 0  0.7000000000000002 0 0  0.75 0 0  0.7999999999999998 0 0  0.8499999999999996 0 0  0.9000000000000004 0 0  0.9500000000000002 0 0  1 0 0  1.05 0 0  1.1 0 0  1.15 0 0  1.2 0 0  1.25 0 0  1.3 0 0  1.35 0 0  1.4 0 0  1.45 0 0  1.5 0 0  1.55 0 0  1.6 0 0  1.65 0 0  1.7 0 0  1.75 0 0  1.8 0 0  1.85 0 0  1.9 0 0  1.95 0 0  2 0 0  2.05 0 0  2.1 0 0  2.15 0 0  2.2 0 0  2.25 0 0  2.3 0 0  2.35 0 0  2.4 0 0  2.45 0 0  2.5 0 0  2.55 0 0  2.6 0 0  2.65 0 0  2.7 0 0  2.75 0 0  2.8 0 0  2.85 0 0  2.9 0 0  2.95 0 0  3 0 0  3.050000000000001 0 0  3.1 0 0  3.15 0 0  3.199999999999999 0 0  3.25 0 0  3.300000000000001 0 0  3.35 0 0  3.4 0 0  3.449999999999999 0 0  3.5 0 0  3.550000000000001 0 0  3.6 0 0  3.65 0 0  3.699999999999999 0 0  3.75 0 0  3.800000000000001 0 0  3.85 0 0  3.9 0 0  3.949999999999999 0 0  4 0 0  4.050000000000001 0 0  4.1 0 0  4.15 0 0  4.199999999999999 0 0  4.25 0 0  4.300000000000001 0 0  4.35 0 0  4.4 0 0  4.449999999999999 0 0  4.5 0 0  4.550000000000001 0 0  4.6 0 0  4.65 0 0  4.699999999999999 0 0  4.75 0 0  4.800000000000001 0 0  4.85 0 0  4.9 0 0  4.949999999999999 0 0  5 0 0  </DataArray>
</Points>
<Cells>
<DataArray  type="UInt32"  Name="connectivity"  format="ascii">0 1  1 2  2 3  3 4  4 5  5 6  6 7  7 8  8 9  9 10  10 11  11 12  12 13  13 14  14 15  15 16  16 17  17 18  18 19  19 20  20 21  21 22  22 23  23 24  24 25  25 26  26 27  27 28  28 29  29 30  30 31  31 32  32 33  33 34  34 35  35 36  36 37  37 38  38 39  39 40  40 41  41 42  42 43  43 44  44 45  45 46  46 47  47 48  48 49  49 50  50 51  51 52  52 53  53 54  54 55  55 56  56 57  57 58  58 59  59 60  60 61  61 62  62 63  63 64  64 65  65 66  66 67  67 68  68 69  69 70  70 71  71 72  72 73  73 74  74 75  75 76  76 77  77 78  78 79  79 80  80 81  81 82  82 83  83 84  84 85  85 86  86 87  87 88  88 89  89 90  90 91  91 92  92 93  93 94  94 95  95 96  96 97  97 98  98 99  99 100  100 101  101 102  102 103  103 104  104 105  105 106  106 107  107 108  108 109  109 110  110 111  111 112  112 113  113 114  114 115  115 116  116 117  117 118  118 119  119 120  120 121  121 122  122 123  123 124  124 125  125 126  126 127  127 128  128 129  129 130  130 131  131 132  132 133  133 134  134 135  135 136  136 137  137 138  138 139  139 140  140 141  141 142  142 143  143 144  144 145  145 146  146 147  147 148  148 149  149 150  150 151  151 152  152 153  153 154  154 155  155 156  156 157  157 158  158 159  159 160  160 161  161 162  162 163  163 164  164 165  165 166  166 167  167 168  168 169  169 170  170 171  171 172  172 173  173 174  174 175  175 176  176 177  177 178  178 179  179 180  180 181  181 182  182 183  183 184  184 185  185 186  186 187  187 188  188 189  189 190  190 191  191 192  192 193  193 194  194 195  195 196  196 197  197 198  198 199  199 200  </DataArray>
<DataArray  type="UInt32"  Name="offsets"  format="ascii">2 4 6 8 10 12 14 16 18 20 22 24 26 28 30 32 34 36 38 40 42 44 46 48 50 52 54 56 58 60 62 64 66 68 70 72 74 76 78 80 82 84 86 88 90 92 94 96 98 100 102 104 106 108 110 112 114 116 118 120 122 124 126 128 130 132 134 136 138 140 142 144 146 148 150 152 154 156 158 160 162 164 166 168 170 172 174 176 178 180 182 184 186 188 190 192 194 196 198 200 202 204 206 208 210 212 214 216 218 220 222 224 226 228 230 232 234 236 238 240 242 244 246 248 250 252 254 256 258 260 262 264 266 268 270 272 274 276 278 280 282 284 286 288 290 292 294 296 298 300 302 304 306 308 310 312 314 316 318 320 322 324 326 328 330 332 334 336 338 340 342 344 346 348 350 352 354 356 358 360 362 364 366 368 370 372 374 376 378 380 382 384 386 388 390 392 394 396 398 400 </DataArray>
<DataArray  type="UInt8"  Name="types"  format="ascii">3 3 3 3 3 3 3 3 3 3 3 3 3 3 3 3 3 3 3 3 3 3 3 3 3 3 3 3 3 3 3 3 3 3 3 3 3 3 3 3 3 3 3 3 3 3 3 3 3 3 3 3 3 3 3 3 3 3 3 3 3 3 3 3 3 3 3 3 3 3 3 3 3 3 3 3 3 3 3 3 3 3 3 3 3 3 3 3 3 3 3 3 3 3 3 3 3 3 3 3 3 3 3 3 3 3 3 3 3 3 3 3 3 3 3 3 3 3 3 3 3 3 3 3 3 3 3 3 3 3 3 3 3 3 3 3 3 3 3 3 3 3 3 3 3 3 3 3 3 3 3 3 3 3 3 3 3 3 3 3 3 3 3 3 3 3 3 3 3 3 3 3 3 3 3 3 3 3 3 3 3 3 3 3 3 3 3 3 3 3 3 3 3 3 3 3 3 3 3 3 </DataArray>
</Cells>
<PointData  Vectors="(h, u)"> 
<DataArray  type="Float64"  Name="(h, u)"  NumberOfComponents="3" format="ascii">9.8281922782066444e-01 0.0000000000000000e+00 0.0000000000000000e+00  9.8281644495854148e-01 -1.0042607831846839e-03 0.0000000000000000e+00  9.8280777769923477e-01 -2.0029121766477354e-03 0.0000000000000000e+00  9.8279515335211676e-01 -2.9893953300355910e-03 0.0000000000000000e+00  9.8277995472597535e-01 -3.9560562375890434e-03 0.0000000000000000e+00  9.8276597575910507e-01 -4.8924092112649234e-03 0.0000000000000000e+00  9.8275670525977610e-01 -5.7858318837490305e-03 0.0000000000000000e+00  9.8275829570046014e-01 -6.6191230122577566e-03 0.0000000000000000e+00  9.8277686467086878e-01 -7.3721655190645084e-03 0.0000000000000000e+00  9.8282138498568816e-01 -8.0189656761380616e-03 0.0000000000000000e+00  9.8290092199863233e-01 -8.5305019743965108e-03 0.0000000000000000e+00  9.8302734395769631e-01 -8.8714888263513245e-03 0.0000000000000000e+00  9.8321242255130004e-01 -9.0046201761800684e-03 0.0000000000000000e+00  9.8347029830526222e-01 -8.8872157127817993e-03 0.0000000000000000e+00  9.8381443028679694e-01 -8.4768971998675537e-03 0.0000000000000000e+00  9.8425983319610255e-01 -7.7280358087418082e-03 0.0000000000000000e+00  9.8481995236356024e-01 -6.5986176113116465e-03 0.0000000000000000e+00  9.8550877975790074e-01 -5.0461344855511738e-03 0.0000000000000000e+00  9.8633780018704553e-01 -3.0351708739943363e-03 0.0000000000000000e+00  9.8731813555437664e-01 -5.3225382202025709e-04 0.0000000000000000e+00  9.8845770820816148e-01 2.4863117767366253e-03 0.0000000000000000e+00  9.8976352708030801e-01 6.0409972009263773e-03 0.0000000000000000e+00  9.9123914272409330e-01 1.0141214703776776e-02 0.0000000000000000e+00  9.9288710191537488e-01 1.4793351124997627e-02 0.0000000000000000e+00  9.9470667396523893e-01 1.9992880408362793e-02 0.0000000000000000e+00  9.9669641943036602e-01 2.5733683076833887e-02 0.0000000000000000e+00  9.9885210287920756e-01 3.1999851964699684e-02 0.0000000000000000e+00  1.0011692865571686e+00 3.8775983408689665e-02 0.0000000000000000e+00  1.0036413314596513e+00 4.6038385850850599e-02 0.0000000000000000e+00  1.0062619388802494e+00 5.3766060357304794e-02 0.0000000000000000e+00  1.0090231648891586e+00 6.1931105464309098e-02 0.0000000000000000e+00  1.0119178679974330e+00 7.0510211893924285e-02 0.0000000000000000e+00  1.0149376959933631e+00 7.9474175504167271e-02 0.0000000000000000e+00  1.0180754329210355e+00 8.8799837074131652e-02 0.0000000000000000e+00  1.0213229438584113e+00 9.8458709930441354e-02 0.0000000000000000e+00  1.0246734375506070e+00 1.0842936310187774e-01 0.0000000000000000e+00  1.0281193688006514e+00 1.1868522348446892e-01 0.0000000000000000e+00  1.0316546436298639e+00 1.2920742726623577e-01 0.0000000000000000e+00  1.0352724829154394e+00 1.3997187609571893e-01 0.0000000000000000e+00  1.0389675988316880e+00 1.5096258075800478e-01 0.0000000000000000e+00  1.0427340217647132e+00 1.6215805145458140e-01 0.0000000000000000e+00  1.0465672742978072e+00 1.7354514357322989e-01 0.0000000000000000e+00  1.0504621599483770e+00 1.8510485572179716e-01 0.0000000000000000e+00  1.0544149569804400e+00 1.9682666973082760e-01 0.0000000000000000e+00  1.0584211642450758e+00 2.0869382317128843e-01 0.0000000000000000e+00  1.0624777330698072e+00 2.2069811931799671e-01 0.0000000000000000e+00  1.0665807632986222e+00 2.3282473613486962e-01 0.0000000000000000e+00  1.0707277879150594e+00 2.4506746852221667e-01 0.0000000000000000e+00  1.0749154114167923e+00 2.5741313351294592e-01 0.0000000000000000e+00  1.0791416587040359e+00 2.6985719686453896e-01 0.0000000000000000e+00  1.0834035480170228e+00 2.8238783386005506e-01 0.0000000000000000e+00  1.0876995128272253e+00 2.9500188472653716e-01 0.0000000000000000e+00  1.0920269024464837e+00 3.0768863112878370e-01 0.0000000000000000e+00  1.0963844830398783e+00 3.2044601941130268e-01 0.0000000000000000e+00  1.1007698604086809e+00 3.3326421383741600e-01 0.0000000000000000e+00  1.1051820636741294e+00 3.4614202269569871e-01 0.0000000000000000e+00  1.1096188863795688e+00 3.5907028993823781e-01 0.0000000000000000e+00  1.1140795537713117e+00 3.7204845620562754e-01 0.0000000000000000e+00  1.1185619799830486e+00 3.8506785019577544e-01 0.0000000000000000e+00  1.1230655170445261e+00 3.9812831397594156e-01 0.0000000000000000e+00  1.1275881271601760e+00 4.1122145351419170e-01 0.0000000000000000e+00  1.1321292083944161e+00 4.2434725426530673e-01 0.0000000000000000e+00  1.1366866814207439e+00 4.3749734576955823e-01 0.0000000000000000e+00  1.1412598828082350e+00 4.5067152769377805e-01 0.0000000000000000e+00  1.1458465642122262e+00 4.6386109423164668e-01 0.0000000000000000e+00  1.1504458383425862e+00 4.7706517933056430e-01 0.0000000000000000e+00  1.1550550837539750e+00 4.9027416874805890e-01 0.0000000000000000e+00  1.1596729188625634e+00 5.0348574987895123e-01 0.0000000000000000e+00  1.1642959941072915e+00 5.1668840445284492e-01 0.0000000000000000e+00  1.1689219515605940e+00 5.2987700091489609e-01 0.0000000000000000e+00  1.1735460619904090e+00 5.4303629196965797e-01 0.0000000000000000e+00  1.1781640929620547e+00 5.5615579118368874e-01 0.0000000000000000e+00  1.1827686985457349e+00 5.6921306217469236e-01 0.0000000000000000e+00  1.1873520494230911e+00 5.8218742583172822e-01 0.0000000000000000e+00  1.1919017819292166e+00 5.9504255084288316e-01 0.0000000000000000e+00  1.1964031033287712e+00 6.0773814228217027e-01 0.0000000000000000e+00  1.2008339036741746e+00 6.2021078443881117e-01 0.0000000000000000e+00  1.2051657686505906e+00 6.3238196942799041e-01 0.0000000000000000e+00  1.2093574605265773e+00 6.4413504180896541e-01 0.0000000000000000e+00  1.2133537368441916e+00 6.5531640821000936e-01 0.0000000000000000e+00  1.2170756942625114e+00 6.6570442046223866e-01 0.0000000000000000e+00  1.2204154191329670e+00 6.7499805842204963e-01 0.0000000000000000e+00  1.2232207235863795e+00 6.8277069953852199e-01 0.0000000000000000e+00  1.2252829129052218e+00 6.8843800656633569e-01 0.0000000000000000e+00  1.2263136366982657e+00 6.9118915583784335e-01 0.0000000000000000e+00  1.2259258421309389e+00 6.8993159611253918e-01 0.0000000000000000e+00  1.2236090065446017e+00 6.8321307349006100e-01 0.0000000000000000e+00  1.2187233095445513e+00 6.6919196318788798e-01 0.0000000000000000e+00  1.2105189126448641e+00 6.4566880119827985e-01 0.0000000000000000e+00  1.1982292881234131e+00 6.1031646228311609e-01 0.0000000000000000e+00  1.1812649998089466e+00 5.6120102321379206e-01 0.0000000000000000e+00  1.1595427481350360e+00 4.9771968425826246e-01 0.0000000000000000e+00  1.1338620030978013e+00 4.2177458643546756e-01 0.0000000000000000e+00  1.1061147846083796e+00 3.3856950011718390e-01 0.0000000000000000e+00  1.0789908898996905e+00 2.5596159436799670e-01 0.0000000000000000e+00  1.0551353367767375e+00 1.8198023031836300e-01 0.0000000000000000e+00  1.0362285120933528e+00 1.2183527576921352e-01 0.0000000000000000e+00  1.0226616698459072e+00 7.6567105428468479e-02 0.0000000000000000e+00  1.0138941350577013e+00 4.3868283407943555e-02 0.0000000000000000e+00  1.0090827208661346e+00 1.9791783008105277e-02 0.0000000000000000e+00  1.0075598841003484e+00 -1.0182506313837635e-16 0.0000000000000000e+00  1.0090827208661344e+00 -1.9791783008103223e-02 0.0000000000000000e+00  1.0138941350577011e+00 -4.3868283407944977e-02 0.0000000000000000e+00  1.0226616698459070e+00 -7.6567105428466870e-02 0.0000000000000000e+00  1.0362285120933525e+00 -1.2183527576921326e-01 0.0000000000000000e+00  1.0551353367767367e+00 -1.8198023031836102e-01 0.0000000000000000e+00  1.0789908898996901e+00 -2.5596159436799515e-01 0.0000000000000000e+00  1.1061147846083783e+00 -3.3856950011718184e-01 0.0000000000000000e+00  1.1338620030978006e+00 -4.2177458643546556e-01 0.0000000000000000e+00  1.1595427481350347e+00 -4.9771968425826002e-01 0.0000000000000000e+00  1.1812649998089459e+00 -5.6120102321379206e-01 0.0000000000000000e+00  1.1982292881234125e+00 -6.1031646228311398e-01 0.0000000000000000e+00  1.2105189126448634e+00 -6.4566880119828129e-01 0.0000000000000000e+00  1.2187233095445511e+00 -6.6919196318788798e-01 0.0000000000000000e+00  1.2236090065446017e+00 -6.8321307349006311e-01 0.0000000000000000e+00  1.2259258421309391e+00 -6.8993159611253907e-01 0.0000000000000000e+00  1.2263136366982657e+00 -6.9118915583784524e-01 0.0000000000000000e+00  1.2252829129052221e+00 -6.8843800656633658e-01 0.0000000000000000e+00  1.2232207235863792e+00 -6.8277069953852443e-01 0.0000000000000000e+00  1.2204154191329679e+00 -6.7499805842204963e-01 0.0000000000000000e+00  1.2170756942625114e+00 -6.6570442046224010e-01 0.0000000000000000e+00  1.2133537368441922e+00 -6.5531640821000858e-01 0.0000000000000000e+00  1.2093574605265776e+00 -6.4413504180896708e-01 0.0000000000000000e+00  1.2051657686505910e+00 -6.3238196942798941e-01 0.0000000000000000e+00  1.2008339036741749e+00 -6.2021078443881217e-01 0.0000000000000000e+00  1.1964031033287719e+00 -6.0773814228216838e-01 0.0000000000000000e+00  1.1919017819292166e+00 -5.9504255084288338e-01 0.0000000000000000e+00  1.1873520494230916e+00 -5.8218742583172689e-01 0.0000000000000000e+00  1.1827686985457346e+00 -5.6921306217469225e-01 0.0000000000000000e+00  1.1781640929620549e+00 -5.5615579118368785e-01 0.0000000000000000e+00  1.1735460619904090e+00 -5.4303629196965775e-01 0.0000000000000000e+00  1.1689219515605942e+00 -5.2987700091489465e-01 0.0000000000000000e+00  1.1642959941072917e+00 -5.1668840445284514e-01 0.0000000000000000e+00  1.1596729188625636e+00 -5.0348574987895056e-01 0.0000000000000000e+00  1.1550550837539753e+00 -4.9027416874805990e-01 0.0000000000000000e+00  1.1504458383425864e+00 -4.7706517933056447e-01 0.0000000000000000e+00  1.1458465642122260e+00 -4.6386109423164645e-01 0.0000000000000000e+00  1.1412598828082356e+00 -4.5067152769377850e-01 0.0000000000000000e+00  1.1366866814207439e+00 -4.3749734576955746e-01 0.0000000000000000e+00  1.1321292083944168e+00 -4.2434725426530795e-01 0.0000000000000000e+00  1.1275881271601762e+00 -4.1122145351419004e-01 0.0000000000000000e+00  1.1230655170445265e+00 -3.9812831397594217e-01 0.0000000000000000e+00  1.1185619799830488e+00 -3.8506785019577450e-01 0.0000000000000000e+00  1.1140795537713120e+00 -3.7204845620562849e-01 0.0000000000000000e+00  1.1096188863795693e+00 -3.5907028993823770e-01 0.0000000000000000e+00  1.1051820636741301e+00 -3.4614202269570055e-01 0.0000000000000000e+00  1.1007698604086813e+00 -3.3326421383741517e-01 0.0000000000000000e+00  1.0963844830398790e+00 -3.2044601941130313e-01 0.0000000000000000e+00  1.0920269024464839e+00 -3.0768863112878220e-01 0.0000000000000000e+00  1.0876995128272258e+00 -2.9500188472653838e-01 0.0000000000000000e+00  1.0834035480170228e+00 -2.8238783386005406e-01 0.0000000000000000e+00  1.0791416587040361e+00 -2.6985719686454107e-01 0.0000000000000000e+00  1.0749154114167925e+00 -2.5741313351294559e-01 0.0000000000000000e+00  1.0707277879150598e+00 -2.4506746852221831e-01 0.0000000000000000e+00  1.0665807632986224e+00 -2.3282473613486862e-01 0.0000000000000000e+00  1.0624777330698076e+00 -2.2069811931799951e-01 0.0000000000000000e+00  1.0584211642450758e+00 -2.0869382317128821e-01 0.0000000000000000e+00  1.0544149569804406e+00 -1.9682666973083063e-01 0.0000000000000000e+00  1.0504621599483766e+00 -1.8510485572179627e-01 0.0000000000000000e+00  1.0465672742978072e+00 -1.7354514357323259e-01 0.0000000000000000e+00  1.0427340217647125e+00 -1.6215805145458156e-01 0.0000000000000000e+00  1.0389675988316880e+00 -1.5096258075800745e-01 0.0000000000000000e+00  1.0352724829154387e+00 -1.3997187609571954e-01 0.0000000000000000e+00  1.0316546436298639e+00 -1.2920742726623816e-01 0.0000000000000000e+00  1.0281193688006514e+00 -1.1868522348446855e-01 0.0000000000000000e+00  1.0246734375506072e+00 -1.0842936310187944e-01 0.0000000000000000e+00  1.0213229438584108e+00 -9.8458709930440327e-02 0.0000000000000000e+00  1.0180754329210355e+00 -8.8799837074134413e-02 0.0000000000000000e+00  1.0149376959933631e+00 -7.9474175504166716e-02 0.0000000000000000e+00  1.0119178679974334e+00 -7.0510211893926464e-02 0.0000000000000000e+00  1.0090231648891586e+00 -6.1931105464309515e-02 0.0000000000000000e+00  1.0062619388802496e+00 -5.3766060357307473e-02 0.0000000000000000e+00  1.0036413314596515e+00 -4.6038385850851175e-02 0.0000000000000000e+00  1.0011692865571691e+00 -3.8775983408691705e-02 0.0000000000000000e+00  9.9885210287920823e-01 -3.1999851964700073e-02 0.0000000000000000e+00  9.9669641943036635e-01 -2.5733683076835281e-02 0.0000000000000000e+00  9.9470667396523949e-01 -1.9992880408362435e-02 0.0000000000000000e+00  9.9288710191537499e-01 -1.4793351124998522e-02 0.0000000000000000e+00  9.9123914272409364e-01 -1.0141214703777083e-02 0.0000000000000000e+00  9.8976352708030779e-01 -6.0409972009276090e-03 0.0000000000000000e+00  9.8845770820816148e-01 -2.4863117767378331e-03 0.0000000000000000e+00  9.8731813555437631e-01 5.3225382201932208e-04 0.0000000000000000e+00  9.8633780018704553e-01 3.0351708739931385e-03 0.0000000000000000e+00  9.8550877975790063e-01 5.0461344855505337e-03 0.0000000000000000e+00  9.8481995236356035e-01 6.5986176113109864e-03 0.0000000000000000e+00  9.8425983319610255e-01 7.7280358087413493e-03 0.0000000000000000e+00  9.8381443028679705e-01 8.4768971998667314e-03 0.0000000000000000e+00  9.8347029830526211e-01 8.8872157127816969e-03 0.0000000000000000e+00  9.8321242255130037e-01 9.0046201761806877e-03 0.0000000000000000e+00  9.8302734395769609e-01 8.8714888263514077e-03 0.0000000000000000e+00  9.8290092199863244e-01 8.5305019743971734e-03 0.0000000000000000e+00  9.8282138498568761e-01 8.0189656761377424e-03 0.0000000000000000e+00  9.8277686467086867e-01 7.3721655190646506e-03 0.0000000000000000e+00  9.8275829570045925e-01 6.6191230122577219e-03 0.0000000000000000e+00  9.8275670525977610e-01 5.7858318837488753e-03 0.0000000000000000e+00  9.8276597575910429e-01 4.8924092112649815e-03 0.0000000000000000e+00  9.8277995472597557e-01 3.9560562375887979e-03 0.0000000000000000e+00  9.8279515335211620e-01 2.9893953300362524e-03 0.0000000000000000e+00  9.8280777769923522e-01 2.0029121766478230e-03 0.0000000000000000e+00  9.8281644495854092e-01 1.0042607831851468e-03 0.0000000000000000e+00  9.8281922782066489e-01 0.0000000000000000e+00 0.0000000000000000e+00  </DataArray> 
</PointData> 
</Piece>
</UnstructuredGrid>
</VTKFile>