<?xml version="1.0"?>
<VTKFile type="UnstructuredGrid"  version="0.1"  >
<UnstructuredGrid>
<Piece  NumberOfPoints="201" NumberOfCells="200">
<Points>
<DataArray  type="Float64"  NumberOfComponents="3"  format="ascii">-5 0 0  -4.95 0 0  -4.9 0 0  -4.85 0 0  -4.8 0 0  -4.75 0 0  -4.7 0 0  -4.65 0 0  -4.6 0 0  -4.55 0 0  -4.5 0 0  -4.45 0 0  -4.4 0 0  -4.35 0 0  -4.3 0 0  -4.25 0 0  -4.2 0 0  -4.15 0 0  -4.1 0 0  -4.05 0 0  -4 0 0  -3.95 0 0  -3.9 0 0  -3.85 0 0  -3.8 0 0  -3.75 0 0  -3.7 0 0  -3.65 0 0  -3.6 0 0  -3.55 0 0  -3.5 0 0  -3.45 0 0  -3.4 0 0  -3.35 0 0  -3.3 0 0  -3.25 0 0  -3.2 0 0  -3.15 0 0  -3.1 0 0  -3.05 0 0  -3 0 0  -2.95 0 0  -2.9 0 0  -2.85 0 0  -2.8 0 0  -2.75 0 0  -2.7 0 0  -2.65 0 0  -2.6 0 0  -2.55 0 0  -2.5 0 0  -2.45 0 0  -2.4 0 0  -2.35 0 0  -2.3 0 0  -2.25 0 0  -2.2 0 0  -2.15 0 0  -2.1 0 0  -2.05 0 0  -2 0 0  -1.95 0 0  -1.9 0 0  -1.85 0 0  -1.8 0 0  -1.75 0 0  -1.7 0 0  -1.65 0 0  -1.6 0 0  -1.55 0 0  -1.5 0 0  -1.45 0 0  -1.4 0 0  -1.35 0 0  -1.3 0 0  -1.25 0 0  -1.2 0 0  -1.15 0 0  -1.1 0 0  -1.05 0 0  -1 0 0  -0.9500000000000002 0 0  -0.9000000000000004 0 0  -0.8499999999999996 0 0  -0.7999999999999998 0 0  -0.75 0 0  -0.7000000000000002 0 0  -0.6500000000000004 0 0  -0.5999999999999996 0 0  -0.5499999999999998 0 0  -0.5 0 0  -0.4500000000000002 0 0  -0.4000000000000004 0 0  -0.3499999999999996 0 0  -0.2999999999999998 0 0  -0.25 0 0  -0.2000000000000002 0 0  -0.1500000000000004 0 0  -0.09999999999999964 0 0  -0.04999999999999982 0 0  0 0 0  0.04999999999999982 0 0  0.09999999999999964 0 0  0.1500000000000004 0 0  0.2000000000000002 0 0  0.25 0 0  0.2999999999999998 0 0  0.3499999999999996 0 0  0.4000000000000004 0 0  0.4500000000000002 0 0  0.5 0 0  0.5499999999999998 0 0  0.5999999999999996 0 0  0.6500000000000004 0 0  0.7000000000000002 0 0  0.75 0 0  0.7999999999999998 0 0  0.8499999999999996 0 0  0.9000000000000004 0 0  0.9500000000000002 0 0  1 0 0  1.05 0 0  1.1 0 0  1.15 0 0  1.2 0 0  1.25 0 0  1.3 0 0  1.35 0 0  1.4 0 0  1.45 0 0  1.5 0 0  1.55 0 0  1.6 0 0  1.65 0 0  1.7 0 0  1.75 0 0  1.8 0 0  1.85 0 0  1.9 0 0  1.95 0 0  2 0 0  2.05 0 0  2.1 0 0  2.15 0 0  2.2 0 0  2.25 0 0  2.3 0 0  2.35 0 0  2.4 0 0  2.45 0 0  2.5 0 0  2.55 0 0  2.6 0 0  2.65 0 0  2.7 0 0  2.75 0 0  2.8 0 0  2.85 0 0  2.9 0 0  2.95 0 0  3 0 0  3.050000000000001 0 0  3.1 0 0  3.15 0 0  3.199999999999999 0 0  3.25 0 0  3.300000000000001 0 0  3.35 0 0  3.4 0 0  3.449999999999999 0 0  3.5 0 0  3.550000000000001 0 0  3.6 0 0  3.65 0 0  3.699999999999999 0 0  3.75 0 0  3.800000000000001 0 0  3.85 0 0  3.9 0 0  3.949999999999999 0 0  4 0 0  4.050000000000001 0 0  4.1 0 0  4.15 0 0  4.199999999999999 0 0  4.25 0 0  4.300000000000001 0 0  4.35 0 0  4.4 0 0  4.449999999999999 0 0  4.5 0 0  4.550000000000001 0 0  4.6 0 0  4.65 0 0  4.699999999999999 0 0  4.75 0 0  4.800000000000001 0 0  4.85 0 0  4.9 0 0  4.949999999999999 0 0  5 0 0  </DataArray>
</Points>
<Cells>
<DataArray  type="UInt32"  Name="connectivity"  format="ascii">0 1  1 2  2 3  3 4  4 5  5 6  6 7  7 8  8 9  9 10  10 11  11 12  12 13  13 14  14 15  15 16  16 17  17 18  18 19  19 20  20 21  21 22  22 23  23 24  24 25  25 26  26 27  27 28  28 29  29 30  30 31  31 32  32 33  33 34  34 35  35 36  36 37  37 38  38 39  39 40  40 41  41 42  42 43  43 44  44 45  45 46  46 47  47 48  48 49  49 50  50 51  51 52  52 53  53 54  54 55  55 56  56 57  57 58  58 59  59 60  60 61  61 62  62 63  63 64  64 65  65 66  66 67  67 68  68 69  69 70  70 71  71 72  72 73  73 74  74 75  75 76  76 77  77 78  78 79  79 80  80 81  81 82  82 83  83 84  84 85  85 86  86 87  87 88  88 89  89 90  90 91  91 92  92 93  93 94  94 95  95 96  96 97  97 98  98 99  99 100  100 101  101 102  102 103  103 104  104 105  105 106  106 107  107 108  108 109  109 110  110 111  111 112  112 113  113 114  114 115  115 116  116 117  117 118  118 119  119 120  120 121  121 122  122 123  123 124  124 125  125 126  126 127  127 128  128 129  129 130  130 131  131 132  132 133  133 134  134 135  135 136  136 137  137 138  138 139  139 140  140 141  141 142  142 143  143 144  144 145  145 146  146 147  147 148  148 149  149 150  150 151  151 152  152 153  153 154  154 155  155 156  156 157  157 158  158 159  159 160  160 161  161 162  162 163  163 164  164 165  165 166  166 167  167 168  168 169  169 170  170 171  171 172  172 173  173 174  174 175  175 176  176 177  177 178  178 179  179 180  180 181  181 182  182 183  183 184  184 185  185 186  186 187  187 188  188 189  189 190  190 191  191 192  192 193  193 194  194 195  195 196  196 197  197 198  198 199  199 200  </DataArray>
<DataArray  type="UInt32"  Name="offsets"  format="ascii">2 4 6 8 10 12 14 16 18 20 22 24 26 28 30 32 34 36 38 40 42 44 46 48 50 52 54 56 58 60 62 64 66 68 70 72 74 76 78 80 82 84 86 88 90 92 94 96 98 100 102 104 106 108 110 112 114 116 118 120 122 124 126 128 130 132 134 136 138 140 142 144 146 148 150 152 154 156 158 160 162 164 166 168 170 172 174 176 178 180 182 184 186 188 190 192 194 196 198 200 202 204 206 208 210 212 214 216 218 220 222 224 226 228 230 232 234 236 238 240 242 244 246 248 250 252 254 256 258 260 262 264 266 268 270 272 274 276 278 280 282 284 286 288 290 292 294 296 298 300 302 304 306 308 310 312 314 316 318 320 322 324 326 328 330 332 334 336 338 340 342 344 346 348 350 352 354 356 358 360 362 364 366 368 370 372 374 376 378 380 382 384 386 388 390 392 394 396 398 400 </DataArray>
<DataArray  type="UInt8"  Name="types"  format="ascii">3 3 3 3 3 3 3 3 3 3 3 3 3 3 3 3 3 3 3 3 3 3 3 3 3 3 3 3 3 3 3 3 3 3 3 3 3 3 3 3 3 3 3 3 3 3 3 3 3 3 3 3 3 3 3 3 3 3 3 3 3 3 3 3 3 3 3 3 3 3 3 3 3 3 3 3 3 3 3 3 3 3 3 3 3 3 3 3 3 3 3 3 3 3 3 3 3 3 3 3 3 3 3 3 3 3 3 3 3 3 3 3 3 3 3 3 3 3 3 3 3 3 3 3 3 3 3 3 3 3 3 3 3 3 3 3 3 3 3 3 3 3 3 3 3 3 3 3 3 3 3 3 3 3 3 3 3 3 3 3 3 3 3 3 3 3 3 3 3 3 3 3 3 3 3 3 3 3 3 3 3 3 3 3 3 3 3 3 3 3 3 3 3 3 3 3 3 3 3 3 </DataArray>
</Cells>
<PointData  Vectors="(h, u)"> 
<DataArray  type="Float64"  Name="(h, u)"  NumberOfComponents="3" format="ascii">1.1076350031525122e+00 0.0000000000000000e+00 0.0000000000000000e+00  1.1076456690695364e+00 1.2583797700753210e-02 0.0000000000000000e+00  1.1076760869908151e+00 2.5163621096476178e-02 0.0000000000000000e+00  1.1077280159944143e+00 3.7735404687107475e-02 0.0000000000000000e+00  1.1078000612271508e+00 5.0295192362389440e-02 0.0000000000000000e+00  1.1078941579779873e+00 6.2838754778884134e-02 0.0000000000000000e+00  1.1080091046955605e+00 7.5362080747858426e-02 0.0000000000000000e+00  1.1081470124247874e+00 8.7860704929548047e-02 0.0000000000000000e+00  1.1083068835327878e+00 1.0033048779561908e-01 0.0000000000000000e+00  1.1084910066081033e+00 1.1276665683733487e-01 0.0000000000000000e+00  1.1086986002812311e+00 1.2516487171787424e-01 0.0000000000000000e+00  1.1089321340763121e+00 1.3751998369961091e-01 0.0000000000000000e+00  1.1091910560533487e+00 1.4982738156328426e-01 0.0000000000000000e+00  1.1094780206239487e+00 1.6208147552730340e-01 0.0000000000000000e+00  1.1097927178870266e+00 1.7427731861355730e-01 0.0000000000000000e+00  1.1101379900539801e+00 1.8640882295877217e-01 0.0000000000000000e+00  1.1105137792989088e+00 1.9847065056709925e-01 0.0000000000000000e+00  1.1109231151648256e+00 2.1045617158933261e-01 0.0000000000000000e+00  1.1113661965092700e+00 2.2235961781727215e-01 0.0000000000000000e+00  1.1118462330652470e+00 2.3417379419328388e-01 0.0000000000000000e+00  1.1123636756491997e+00 2.4589248792674284e-01 0.0000000000000000e+00  1.1129218959201457e+00 2.5750794610347533e-01 0.0000000000000000e+00  1.1135215774603415e+00 2.6901353282313961e-01 0.0000000000000000e+00  1.1141662187206787e+00 2.8040098712507738e-01 0.0000000000000000e+00  1.1148566959378394e+00 2.9166331982316118e-01 0.0000000000000000e+00  1.1155965753017616e+00 3.0279186673392489e-01 0.0000000000000000e+00  1.1163868570141171e+00 3.1377941552033506e-01 0.0000000000000000e+00  1.1172310839129000e+00 3.2461706889553538e-01 0.0000000000000000e+00  1.1181302743978347e+00 3.3529758916403102e-01 0.0000000000000000e+00  1.1190878161450084e+00 3.4581208395415142e-01 0.0000000000000000e+00  1.1201045941928434e+00 3.5615355141546035e-01 0.0000000000000000e+00  1.1211836599598948e+00 3.6631339615754699e-01 0.0000000000000000e+00  1.1223255594490036e+00 3.7628515016430880e-01 0.0000000000000000e+00  1.1235327693322466e+00 3.8606081785168617e-01 0.0000000000000000e+00  1.1248052286410426e+00 3.9563473544995026e-01 0.0000000000000000e+00  1.1261445345636090e+00 4.0499973010923140e-01 0.0000000000000000e+00  1.1275496782015975e+00 4.1415106224601128e-01 0.0000000000000000e+00  1.1290209915068627e+00 4.2308236258711335e-01 0.0000000000000000e+00  1.1305560817267359e+00 4.3178957530477785e-01 0.0000000000000000e+00  1.1321535148487778e+00 4.4026660529068395e-01 0.0000000000000000e+00  1.1338089306055719e+00 4.4850913951288540e-01 0.0000000000000000e+00  1.1355184321134746e+00 4.5650988661288167e-01 0.0000000000000000e+00  1.1372748376096662e+00 4.6426208764699478e-01 0.0000000000000000e+00  1.1390707127763455e+00 4.7175414342345523e-01 0.0000000000000000e+00  1.1408946668321465e+00 4.7897250817647413e-01 0.0000000000000000e+00  1.1427339010784319e+00 4.8589534217595792e-01 0.0000000000000000e+00  1.1445703709762542e+00 4.9249426801746782e-01 0.0000000000000000e+00  1.1463826154077408e+00 4.9872640299061083e-01 0.0000000000000000e+00  1.1481414670074221e+00 5.0453409020212847e-01 0.0000000000000000e+00  1.1498107611034025e+00 5.0983421037470900e-01 0.0000000000000000e+00  1.1513420899304561e+00 5.1451447373167802e-01 0.0000000000000000e+00  1.1526738123364666e+00 5.1841837987706052e-01 0.0000000000000000e+00  1.1537242357257622e+00 5.2133627850987840e-01 0.0000000000000000e+00  1.1543884281212988e+00 5.2298445273928384e-01 0.0000000000000000e+00  1.1545297113756414e+00 5.2299037707353890e-01 0.0000000000000000e+00  1.1539750986879551e+00 5.2086784334611502e-01 0.0000000000000000e+00  1.1525077626332403e+00 5.1600332949041816e-01 0.0000000000000000e+00  1.1498670692029132e+00 5.0764327073624926e-01 0.0000000000000000e+00  1.1457532159389399e+00 4.9491255425357383e-01 0.0000000000000000e+00  1.1398502420877914e+00 4.7686624485577628e-01 0.0000000000000000e+00  1.1318686541754122e+00 4.5261638892151296e-01 0.0000000000000000e+00  1.1216198080766717e+00 4.2153735020490329e-01 0.0000000000000000e+00  1.1091121906844787e+00 3.8356228518379520e-01 0.0000000000000000e+00  1.0946513937418225e+00 3.3949156815849552e-01 0.0000000000000000e+00  1.0788897932773263e+00 2.9118792321610848e-01 0.0000000000000000e+00  1.0627736074962186e+00 2.4145745149427603e-01 0.0000000000000000e+00  1.0473613438975153e+00 1.9353993456384377e-01 0.0000000000000000e+00  1.0335749116064328e+00 1.5033798895610401e-01 0.0000000000000000e+00  1.0219959932797187e+00 1.1375913222699413e-01 0.0000000000000000e+00  1.0128027899538030e+00 8.4464233279124515e-02 0.0000000000000000e+00  1.0058431034823436e+00 6.2067358612568770e-02 0.0000000000000000e+00  1.0007749712099601e+00 4.5556170951476037e-02 0.0000000000000000e+00  9.9719650620287348e-01 3.3707637016419566e-02 0.0000000000000000e+00  9.9473143895413541e-01 2.5358035493639915e-02 0.0000000000000000e+00  9.9306725259405193e-01 1.9536323507014314e-02 0.0000000000000000e+00  9.9196365022455368e-01 1.5489763318358316e-02 0.0000000000000000e+00  9.9124429906422784e-01 1.2666874699530310e-02 0.0000000000000000e+00  9.9078445679815019e-01 1.0674227359562529e-02 0.0000000000000000e+00  9.9049751714918943e-01 9.2406095474674294e-03 0.0000000000000000e+00  9.9032470208997325e-01 8.1793367091089874e-03 0.0000000000000000e+00  9.9022625798027852e-01 7.3662085912294646e-03 0.0000000000000000e+00  9.9017588015236635e-01 6.7166615860907502e-03 0.0000000000000000e+00  9.9015597367088448e-01 6.1761288213219084e-03 0.0000000000000000e+00  9.9015515217045702e-01 5.7070753510638011e-03 0.0000000000000000e+00  9.9016579123039727e-01 5.2862652676321795e-03 0.0000000000000000e+00  9.9018310365768480e-01 4.8970443849753395e-03 0.0000000000000000e+00  9.9020382202182244e-01 4.5298424962827277e-03 0.0000000000000000e+00  9.9022600721485587e-01 4.1770918698683076e-03 0.0000000000000000e+00  9.9024825756667534e-01 3.8350388439083710e-03 0.0000000000000000e+00  9.9026983923164735e-01 3.5000382553612664e-03 0.0000000000000000e+00  9.9029013628929208e-01 3.1707434328992609e-03 0.0000000000000000e+00  9.9030891499497387e-01 2.8452172846596640e-03 0.0000000000000000e+00  9.9032588483973871e-01 2.5230610969157953e-03 0.0000000000000000e+00  9.9034101436928190e-01 2.2031121530284598e-03 0.0000000000000000e+00  9.9035414490987106e-01 1.8853012640170118e-03 0.0000000000000000e+00  9.9036532344589445e-01 1.5688525175915121e-03 0.0000000000000000e+00  9.9037444265283558e-01 1.2537650527654686e-03 0.0000000000000000e+00  9.9038157739532273e-01 9.3949107495772414e-04 0.0000000000000000e+00  9.9038663858664167e-01 6.2598705336428819e-04 0.0000000000000000e+00  9.9038970903493351e-01 3.1286831504920520e-04 0.0000000000000000e+00  9.9039070458504119e-01 9.1237382089631044e-16 0.0000000000000000e+00  9.9038970903493362e-01 -3.1286831505245879e-04 0.0000000000000000e+00  9.9038663858664189e-01 -6.2598705336247887e-04 0.0000000000000000e+00  9.9038157739532307e-01 -9.3949107496023125e-04 0.0000000000000000e+00  9.9037444265283570e-01 -1.2537650527635284e-03 0.0000000000000000e+00  9.9036532344589479e-01 -1.5688525175940353e-03 0.0000000000000000e+00  9.9035414490987117e-01 -1.8853012640149319e-03 0.0000000000000000e+00  9.9034101436928235e-01 -2.2031121530303771e-03 0.0000000000000000e+00  9.9032588483973882e-01 -2.5230610969139296e-03 0.0000000000000000e+00  9.9030891499497442e-01 -2.8452172846606138e-03 0.0000000000000000e+00  9.9029013628929230e-01 -3.1707434328962750e-03 0.0000000000000000e+00  9.9026983923164780e-01 -3.5000382553615778e-03 0.0000000000000000e+00  9.9024825756667567e-01 -3.8350388439057164e-03 0.0000000000000000e+00  9.9022600721485643e-01 -4.1770918698693432e-03 0.0000000000000000e+00  9.9020382202182278e-01 -4.5298424962798801e-03 0.0000000000000000e+00  9.9018310365768536e-01 -4.8970443849755659e-03 0.0000000000000000e+00  9.9016579123039727e-01 -5.2862652676289850e-03 0.0000000000000000e+00  9.9015515217045724e-01 -5.7070753510646598e-03 0.0000000000000000e+00  9.9015597367088448e-01 -6.1761288213194564e-03 0.0000000000000000e+00  9.9017588015236679e-01 -6.7166615860911648e-03 0.0000000000000000e+00  9.9022625798027863e-01 -7.3662085912272572e-03 0.0000000000000000e+00  9.9032470208997370e-01 -8.1793367091096067e-03 0.0000000000000000e+00  9.9049751714918943e-01 -9.2406095474659600e-03 0.0000000000000000e+00  9.9078445679815053e-01 -1.0674227359563635e-02 0.0000000000000000e+00  9.9124429906422784e-01 -1.2666874699529179e-02 0.0000000000000000e+00  9.9196365022455402e-01 -1.5489763318360187e-02 0.0000000000000000e+00  9.9306725259405182e-01 -1.9536323507014380e-02 0.0000000000000000e+00  9.9473143895413585e-01 -2.5358035493641757e-02 0.0000000000000000e+00  9.9719650620287359e-01 -3.3707637016419691e-02 0.0000000000000000e+00  1.0007749712099605e+00 -4.5556170951477626e-02 0.0000000000000000e+00  1.0058431034823438e+00 -6.2067358612570303e-02 0.0000000000000000e+00  1.0128027899538037e+00 -8.4464233279126083e-02 0.0000000000000000e+00  1.0219959932797185e+00 -1.1375913222699556e-01 0.0000000000000000e+00  1.0335749116064332e+00 -1.5033798895610667e-01 0.0000000000000000e+00  1.0473613438975156e+00 -1.9353993456384455e-01 0.0000000000000000e+00  1.0627736074962189e+00 -2.4145745149427900e-01 0.0000000000000000e+00  1.0788897932773263e+00 -2.9118792321610953e-01 0.0000000000000000e+00  1.0946513937418227e+00 -3.3949156815849812e-01 0.0000000000000000e+00  1.1091121906844787e+00 -3.8356228518379715e-01 0.0000000000000000e+00  1.1216198080766719e+00 -4.2153735020490574e-01 0.0000000000000000e+00  1.1318686541754119e+00 -4.5261638892151429e-01 0.0000000000000000e+00  1.1398502420877921e+00 -4.7686624485577772e-01 0.0000000000000000e+00  1.1457532159389394e+00 -4.9491255425357450e-01 0.0000000000000000e+00  1.1498670692029138e+00 -5.0764327073625182e-01 0.0000000000000000e+00  1.1525077626332403e+00 -5.1600332949041794e-01 0.0000000000000000e+00  1.1539750986879556e+00 -5.2086784334611735e-01 0.0000000000000000e+00  1.1545297113756412e+00 -5.2299037707353802e-01 0.0000000000000000e+00  1.1543884281212993e+00 -5.2298445273928540e-01 0.0000000000000000e+00  1.1537242357257622e+00 -5.2133627850987718e-01 0.0000000000000000e+00  1.1526738123364670e+00 -5.1841837987706130e-01 0.0000000000000000e+00  1.1513420899304558e+00 -5.1451447373167647e-01 0.0000000000000000e+00  1.1498107611034032e+00 -5.0983421037470900e-01 0.0000000000000000e+00  1.1481414670074217e+00 -5.0453409020212792e-01 0.0000000000000000e+00  1.1463826154077414e+00 -4.9872640299061111e-01 0.0000000000000000e+00  1.1445703709762538e+00 -4.9249426801746732e-01 0.0000000000000000e+00  1.1427339010784321e+00 -4.8589534217595803e-01 0.0000000000000000e+00  1.1408946668321456e+00 -4.7897250817647358e-01 0.0000000000000000e+00  1.1390707127763453e+00 -4.7175414342345562e-01 0.0000000000000000e+00  1.1372748376096649e+00 -4.6426208764699417e-01 0.0000000000000000e+00  1.1355184321134741e+00 -4.5650988661288150e-01 0.0000000000000000e+00  1.1338089306055708e+00 -4.4850913951288435e-01 0.0000000000000000e+00  1.1321535148487771e+00 -4.4026660529068323e-01 0.0000000000000000e+00  1.1305560817267348e+00 -4.3178957530477763e-01 0.0000000000000000e+00  1.1290209915068625e+00 -4.2308236258711374e-01 0.0000000000000000e+00  1.1275496782015968e+00 -4.1415106224601028e-01 0.0000000000000000e+00  1.1261445345636085e+00 -4.0499973010923135e-01 0.0000000000000000e+00  1.1248052286410417e+00 -3.9563473544994904e-01 0.0000000000000000e+00  1.1235327693322463e+00 -3.8606081785168683e-01 0.0000000000000000e+00  1.1223255594490029e+00 -3.7628515016430764e-01 0.0000000000000000e+00  1.1211836599598946e+00 -3.6631339615754793e-01 0.0000000000000000e+00  1.1201045941928429e+00 -3.5615355141545912e-01 0.0000000000000000e+00  1.1190878161450084e+00 -3.4581208395415086e-01 0.0000000000000000e+00  1.1181302743978347e+00 -3.3529758916402896e-01 0.0000000000000000e+00  1.1172310839129000e+00 -3.2461706889553493e-01 0.0000000000000000e+00  1.1163868570141171e+00 -3.1377941552033234e-01 0.0000000000000000e+00  1.1155965753017612e+00 -3.0279186673392477e-01 0.0000000000000000e+00  1.1148566959378390e+00 -2.9166331982316041e-01 0.0000000000000000e+00  1.1141662187206782e+00 -2.8040098712507833e-01 0.0000000000000000e+00  1.1135215774603413e+00 -2.6901353282313878e-01 0.0000000000000000e+00  1.1129218959201455e+00 -2.5750794610347599e-01 0.0000000000000000e+00  1.1123636756491995e+00 -2.4589248792674190e-01 0.0000000000000000e+00  1.1118462330652470e+00 -2.3417379419328371e-01 0.0000000000000000e+00  1.1113661965092698e+00 -2.2235961781727148e-01 0.0000000000000000e+00  1.1109231151648251e+00 -2.1045617158933308e-01 0.0000000000000000e+00  1.1105137792989088e+00 -1.9847065056709898e-01 0.0000000000000000e+00  1.1101379900539801e+00 -1.8640882295877229e-01 0.0000000000000000e+00  1.1097927178870262e+00 -1.7427731861355680e-01 0.0000000000000000e+00  1.1094780206239483e+00 -1.6208147552730406e-01 0.0000000000000000e+00  1.1091910560533482e+00 -1.4982738156328346e-01 0.0000000000000000e+00  1.1089321340763119e+00 -1.3751998369961288e-01 0.0000000000000000e+00  1.1086986002812309e+00 -1.2516487171787458e-01 0.0000000000000000e+00  1.1084910066081031e+00 -1.1276665683733619e-01 0.0000000000000000e+00  1.1083068835327878e+00 -1.0033048779562034e-01 0.0000000000000000e+00  1.1081470124247867e+00 -8.7860704929550199e-02 0.0000000000000000e+00  1.1080091046955605e+00 -7.5362080747859675e-02 0.0000000000000000e+00  1.1078941579779866e+00 -6.2838754778885064e-02 0.0000000000000000e+00  1.1078000612271510e+00 -5.0295192362389406e-02 0.0000000000000000e+00  1.1077280159944134e+00 -3.7735404687106858e-02 0.0000000000000000e+00  1.1076760869908155e+00 -2.5163621096476182e-02 0.0000000000000000e+00  1.1076456690695358e+00 -1.2583797700753366e-02 0.0000000000000000e+00  1.1076350031525126e+00 0.0000000000000000e+00 0.0000000000000000e+00  </DataArray> 
</PointData> 
</Piece>
</UnstructuredGrid>
</VTKFile>