<?xml version="1.0"?>
<VTKFile type="UnstructuredGrid"  version="0.1"  >
<UnstructuredGrid>
<Piece  NumberOfPoints="201" NumberOfCells="200">
<Points>
<DataArray  type="Float64"  NumberOfComponents="3"  format="ascii">-5 0 0  -4.95 0 0  -4.9 0 0  -4.85 0 0  -4.8 0 0  -4.75 0 0  -4.7 0 0  -4.65 0 0  -4.6 0 0  -4.55 0 0  -4.5 0 0  -4.45 0 0  -4.4 0 0  -4.35 0 0  -4.3 0 0  -4.25 0 0  -4.2 0 0  -4.15 0 0  -4.1 0 0  -4.05 0 0  -4 0 0  -3.95 0 0  -3.9 0 0  -3.85 0 0  -3.8 0 0  -3.75 0 0  -3.7 0 0  -3.65 0 0  -3.6 0 0  -3.55 0 0  -3.5 0 0  -3.45 0 0  -3.4 0 0  -3.35 0 0  -3.3 0 0  -3.25 0 0  -3.2 0 0  -3.15 0 0  -3.1 0 0  -3.05 0 0  -3 0 0  -2.95 0 0  -2.9 0 0  -2.85 0 0  -2.8 0 0  -2.75 0 0  -2.7 0 0  -2.65 0 0  -2.6 0 0  -2.55 0 0  -2.5 0 0  -2.45 0 0  -2.4 0 0  -2.35 0 0  -2.3 0 0  -2.25 0 0  -2.2 0 0  -2.15 0 0  -2.1 0 0  -2.05 0 0  -2 0 0  -1.95 0 0  -1.9 0 0  -1.85 0 0  -1.8 0 0  -1.75 0 0  -1.7 0 0  -1.65 0 0  -1.6 0 0  -1.55 0 0  -1.5 0 0  -1.45 0 0  -1.4 0 0  -1.35 0 0  -1.3 0 0  -1.25 0 0  -1.2 0 0  -1.15 0 0  -1.1 0 0  -1.05 0 0  -1 0 0  -0.9500000000000002 0 0  -0.9000000000000004 0 0  -0.8499999999999996 0 0  -0.7999999999999998 0 0  -0.75 0 0  -0.7000000000000002 0 0  -0.6500000000000004 0 0  -0.5999999999999996 0 0  -0.5499999999999998 0 0  -0.5 0 0  -0.4500000000000002 0 0  -0.4000000000000004 0 0  -0.3499999999999996 0 0  -0.2999999999999998 0 0  -0.25 0 0  -0.2000000000000002 0 0  -0.1500000000000004 0 0  -0.09999999999999964 0 0  -0.04999999999999982 0 0  0 0 0  0.04999999999999982 0 0  0.09999999999999964 0 0  0.1500000000000004 0 0  0.2000000000000002 0 0  0.25 0 0  0.2999999999999998 0 0  0.3499999999999996 0 0  0.4000000000000004 0 0  0.4500000000000002 0 0  0.5 0 0  0.5499999999999998 0 0  0.5999999999999996 0 0  0.6500000000000004 0 0  0.7000000000000002 0 0  0.75 0 0  0.7999999999999998 0 0  0.8499999999999996 0 0  0.9000000000000004 0 0  0.9500000000000002 0 0  1 0 0  1.05 0 0  1.1 0 0  1.15 0 0  1.2 0 0  1.25 0 0  1.3 0 0  1.35 0 0  1.4 0 0  1.45 0 0  1.5 0 0  1.55 0 0  1.6 0 0  1.65 0 0  1.7 0 0  1.75 0 0  1.8 0 0  1.85 0 0  1.9 0 0  1.95 0 0  2 0 0  2.05 0 0  2.1 0 0  2.15 0 0  2.2 0 0  2.25 0 0  2.3 0 0  2.35 0 0  2.4 0 0  2.45 0 0  2.5 0 0  2.55 0 0  2.6 0 0  2.65 0 0  2.7 0 0  2.75 0 0  2.8 0 0  2.85 0 0  2.9 0 0  2.95 0 0  3 0 0  3.050000000000001 0 0  3.1 0 0  3.15 0 0  3.199999999999999 0 0  3.25 0 0  3.300000000000001 0 0  3.35 0 0  3.4 0 0  3.449999999999999 0 0  3.5 0 0  3.550000000000001 0 0  3.6 0 0  3.65 0 0  3.699999999999999 0 0  3.75 0 0  3.800000000000001 0 0  3.85 0 0  3.9 0 0  3.949999999999999 0 0  4 0 0  4.050000000000001 0 0  4.1 0 0  4.15 0 0  4.199999999999999 0 0  4.25 0 0  4.300000000000001 0 0  4.35 0 0  4.4 0 0  4.449999999999999 0 0  4.5 0 0  4.550000000000001 0 0  4.6 0 0  4.65 0 0  4.699999999999999 0 0  4.75 0 0  4.800000000000001 0 0  4.85 0 0  4.9 0 0  4.949999999999999 0 0  5 0 0  </DataArray>
</Points>
<Cells>
<DataArray  type="UInt32"  Name="connectivity"  format="ascii">0 1  1 2  2 3  3 4  4 5  5 6  6 7  7 8  8 9  9 10  10 11  11 12  12 13  13 14  14 15  15 16  16 17  17 18  18 19  19 20  20 21  21 22  22 23  23 24  24 25  25 26  26 27  27 28  28 29  29 30  30 31  31 32  32 33  33 34  34 35  35 36  36 37  37 38  38 39  39 40  40 41  41 42  42 43  43 44  44 45  45 46  46 47  47 48  48 49  49 50  50 51  51 52  52 53  53 54  54 55  55 56  56 57  57 58  58 59  59 60  60 61  61 62  62 63  63 64  64 65  65 66  66 67  67 68  68 69  69 70  70 71  71 72  72 73  73 74  74 75  75 76  76 77  77 78  78 79  79 80  80 81  81 82  82 83  83 84  84 85  85 86  86 87  87 88  88 89  89 90  90 91  91 92  92 93  93 94  94 95  95 96  96 97  97 98  98 99  99 100  100 101  101 102  102 103  103 104  104 105  105 106  106 107  107 108  108 109  109 110  110 111  111 112  112 113  113 114  114 115  115 116  116 117  117 118  118 119  119 120  120 121  121 122  122 123  123 124  124 125  125 126  126 127  127 128  128 129  129 130  130 131  131 132  132 133  133 134  134 135  135 136  136 137  137 138  138 139  139 140  140 141  141 142  142 143  143 144  144 145  145 146  146 147  147 148  148 149  149 150  150 151  151 152  152 153  153 154  154 155  155 156  156 157  157 158  158 159  159 160  160 161  161 162  162 163  163 164  164 165  165 166  166 167  167 168  168 169  169 170  170 171  171 172  172 173  173 174  174 175  175 176  176 177  177 178  178 179  179 180  180 181  181 182  182 183  183 184  184 185  185 186  186 187  187 188  188 189  189 190  190 191  191 192  192 193  193 194  194 195  195 196  196 197  197 198  198 199  199 200  </DataArray>
<DataArray  type="UInt32"  Name="offsets"  format="ascii">2 4 6 8 10 12 14 16 18 20 22 24 26 28 30 32 34 36 38 40 42 44 46 48 50 52 54 56 58 60 62 64 66 68 70 72 74 76 78 80 82 84 86 88 90 92 94 96 98 100 102 104 106 108 110 112 114 116 118 120 122 124 126 128 130 132 134 136 138 140 142 144 146 148 150 152 154 156 158 160 162 164 166 168 170 172 174 176 178 180 182 184 186 188 190 192 194 196 198 200 202 204 206 208 210 212 214 216 218 220 222 224 226 228 230 232 234 236 238 240 242 244 246 248 250 252 254 256 258 260 262 264 266 268 270 272 274 276 278 280 282 284 286 288 290 292 294 296 298 300 302 304 306 308 310 312 314 316 318 320 322 324 326 328 330 332 334 336 338 340 342 344 346 348 350 352 354 356 358 360 362 364 366 368 370 372 374 376 378 380 382 384 386 388 390 392 394 396 398 400 </DataArray>
<DataArray  type="UInt8"  Name="types"  format="ascii">3 3 3 3 3 3 3 3 3 3 3 3 3 3 3 3 3 3 3 3 3 3 3 3 3 3 3 3 3 3 3 3 3 3 3 3 3 3 3 3 3 3 3 3 3 3 3 3 3 3 3 3 3 3 3 3 3 3 3 3 3 3 3 3 3 3 3 3 3 3 3 3 3 3 3 3 3 3 3 3 3 3 3 3 3 3 3 3 3 3 3 3 3 3 3 3 3 3 3 3 3 3 3 3 3 3 3 3 3 3 3 3 3 3 3 3 3 3 3 3 3 3 3 3 3 3 3 3 3 3 3 3 3 3 3 3 3 3 3 3 3 3 3 3 3 3 3 3 3 3 3 3 3 3 3 3 3 3 3 3 3 3 3 3 3 3 3 3 3 3 3 3 3 3 3 3 3 3 3 3 3 3 3 3 3 3 3 3 3 3 3 3 3 3 3 3 3 3 3 3 </DataArray>
</Cells>
<PointData  Vectors="(h, u)"> 
<DataArray  type="Float64"  Name="(h, u)"  NumberOfComponents="3" format="ascii">9.8911393100472644e-01 0.0000000000000000e+00 0.0000000000000000e+00  9.8911255320434177e-01 -4.4866547741854350e-04 0.0000000000000000e+00  9.8910691169767784e-01 -8.9765375684783266e-04 0.0000000000000000e+00  9.8909850087706652e-01 -1.3476070686999895e-03 0.0000000000000000e+00  9.8908580520582845e-01 -1.7985336073844222e-03 0.0000000000000000e+00  9.8907029892849030e-01 -2.2513980429356962e-03 0.0000000000000000e+00  9.8905046514429795e-01 -2.7059006390077675e-03 0.0000000000000000e+00  9.8902775143460087e-01 -3.1633297308959157e-03 0.0000000000000000e+00  9.8900064533612642e-01 -3.6230862074652414e-03 0.0000000000000000e+00  9.8897056126764005e-01 -4.0867814526363106e-03 0.0000000000000000e+00  9.8893599672503629e-01 -4.5535273204703247e-03 0.0000000000000000e+00  9.8889832664960309e-01 -5.0252555023251296e-03 0.0000000000000000e+00  9.8885606383480518e-01 -5.5008004830908574e-03 0.0000000000000000e+00  9.8881053797558593e-01 -5.9824085125627473e-03 0.0000000000000000e+00  9.8876028271330529e-01 -6.4686482781960595e-03 0.0000000000000000e+00  9.8870657811037344e-01 -6.9620694634872108e-03 0.0000000000000000e+00  9.8864798552814692e-01 -7.4609827406984623e-03 0.0000000000000000e+00  9.8858573429106977e-01 -7.9682190295240294e-03 0.0000000000000000e+00  9.8851842430828030e-01 -8.4818264555710163e-03 0.0000000000000000e+00  9.8844724036198928e-01 -9.0048715339588279e-03 0.0000000000000000e+00  9.8837084119760477e-01 -9.5351053991358237e-03 0.0000000000000000e+00  9.8829038829812810e-01 -1.0075736973045004e-02 0.0000000000000000e+00  9.8820463917220702e-01 -1.0624123684630445e-02 0.0000000000000000e+00  9.8811478158428789e-01 -1.1183434538574602e-02 0.0000000000000000e+00  9.8801974779516921e-01 -1.1750422190543543e-02 0.0000000000000000e+00  9.8792084949129677e-01 -1.2327882368725951e-02 0.0000000000000000e+00  9.8781732805764166e-01 -1.2911566799760712e-02 0.0000000000000000e+00  9.8771078866367057e-01 -1.3503338520374632e-02 0.0000000000000000e+00  9.8760099781097299e-01 -1.4097293386602103e-02 0.0000000000000000e+00  9.8749011524923636e-01 -1.4693514544993940e-02 0.0000000000000000e+00  9.8737874211129706e-01 -1.5283490261653552e-02 0.0000000000000000e+00  9.8726994458712813e-01 -1.5864391370860841e-02 0.0000000000000000e+00  9.8716554269225698e-01 -1.6423909000276283e-02 0.0000000000000000e+00  9.8706990958820873e-01 -1.6955017214223388e-02 0.0000000000000000e+00  9.8698647387356253e-01 -1.7440401527149173e-02 0.0000000000000000e+00  9.8692126652448975e-01 -1.7867714376237773e-02 0.0000000000000000e+00  9.8687959444545559e-01 -1.8213805692971603e-02 0.0000000000000000e+00  9.8686930120392224e-01 -1.8460505862533848e-02 0.0000000000000000e+00  9.8689756598087297e-01 -1.8578872929290949e-02 0.0000000000000000e+00  9.8697385423098416e-01 -1.8545515397823946e-02 0.0000000000000000e+00  9.8710681210238593e-01 -1.8327011477438634e-02 0.0000000000000000e+00  9.8730691299707629e-01 -1.7896698678418539e-02 0.0000000000000000e+00  9.8758345142876136e-01 -1.7219303557550962e-02 0.0000000000000000e+00  9.8794693284202084e-01 -1.6268002475549773e-02 0.0000000000000000e+00  9.8840620784833977e-01 -1.5009173207030897e-02 0.0000000000000000e+00  9.8897068593063509e-01 -1.3419434216868011e-02 0.0000000000000000e+00  9.8964766988543318e-01 -1.1470361156922992e-02 0.0000000000000000e+00  9.9044448056762158e-01 -9.1452018382175183e-03 0.0000000000000000e+00  9.9136604007652374e-01 -6.4234333335045626e-03 0.0000000000000000e+00  9.9241697167373644e-01 -3.2969402679157434e-03 0.0000000000000000e+00  9.9359944630713748e-01 2.4559400026890910e-04 0.0000000000000000e+00  9.9491528597673240e-01 4.2031084106847749e-03 0.0000000000000000e+00  9.9636405498312630e-01 8.5777970336022736e-03 0.0000000000000000e+00  9.9794517317863896e-01 1.3360035175296683e-02 0.0000000000000000e+00  9.9965622889296568e-01 1.8543747300798077e-02 0.0000000000000000e+00  1.0014951295920789e+00 2.4111575091860637e-02 0.0000000000000000e+00  1.0034586705644124e+00 3.0049486299308481e-02 0.0000000000000000e+00  1.0055448585828477e+00 3.6331605268882114e-02 0.0000000000000000e+00  1.0077519576738765e+00 4.2933062139941906e-02 0.0000000000000000e+00  1.0100814306667376e+00 4.9813040490139425e-02 0.0000000000000000e+00  1.0125381930803774e+00 5.6923412526937070e-02 0.0000000000000000e+00  1.0151354461261615e+00 6.4186120534286933e-02 0.0000000000000000e+00  1.0178982107380572e+00 7.1491159372909271e-02 0.0000000000000000e+00  1.0208734436196560e+00 7.8658057103388884e-02 0.0000000000000000e+00  1.0241421488869304e+00 8.5407121755263063e-02 0.0000000000000000e+00  1.0278427015401501e+00 9.1281327941174897e-02 0.0000000000000000e+00  1.0322021878416532e+00 9.5559282257620892e-02 0.0000000000000000e+00  1.0375842161957223e+00 9.7105528371539504e-02 0.0000000000000000e+00  1.0445427366444073e+00 9.4220498204263592e-02 0.0000000000000000e+00  1.0538665534917595e+00 8.4514389948728494e-02 0.0000000000000000e+00  1.0665518820776705e+00 6.5026949316573102e-02 0.0000000000000000e+00  1.0836129278657509e+00 3.2841708425889460e-02 0.0000000000000000e+00  1.1056484149168386e+00 -1.3559582317963108e-02 0.0000000000000000e+00  1.1322781351474074e+00 -7.2640028737067333e-02 0.0000000000000000e+00  1.1618453636950210e+00 -1.3908555601872544e-01 0.0000000000000000e+00  1.1917971293327574e+00 -2.0519911992446568e-01 0.0000000000000000e+00  1.2195997902046143e+00 -2.6373079269111555e-01 0.0000000000000000e+00  1.2435447995986819e+00 -3.1012607799571890e-01 0.0000000000000000e+00  1.2629842083310567e+00 -3.4296573398738944e-01 0.0000000000000000e+00  1.2780944165203802e+00 -3.6311246460164276e-01 0.0000000000000000e+00  1.2894915066976151e+00 -3.7254729244448914e-01 0.0000000000000000e+00  1.2979230187133612e+00 -3.7351419515611761e-01 0.0000000000000000e+00  1.3040899334054001e+00 -3.6805075003835008e-01 0.0000000000000000e+00  1.3085755147536646e+00 -3.5782461941540900e-01 0.0000000000000000e+00  1.3118327102641820e+00 -3.4411604082358033e-01 0.0000000000000000e+00  1.3142005283184675e+00 -3.2787889365964779e-01 0.0000000000000000e+00  1.3159262700869816e+00 -3.0980597254043712e-01 0.0000000000000000e+00  1.3171889196771673e+00 -2.9039958405960764e-01 0.0000000000000000e+00  1.3181164939721530e+00 -2.7001894319390873e-01 0.0000000000000000e+00  1.3188011910618735e+00 -2.4892457197759396e-01 0.0000000000000000e+00  1.3193086396307439e+00 -2.2730278780047622e-01 0.0000000000000000e+00  1.3196864630194989e+00 -2.0529052685766974e-01 0.0000000000000000e+00  1.3199684525391828e+00 -1.8298634082194373e-01 0.0000000000000000e+00  1.3201794839147312e+00 -1.6046426386702664e-01 0.0000000000000000e+00  1.3203370145667896e+00 -1.3777819895838017e-01 0.0000000000000000e+00  1.3204541541786656e+00 -1.1496992875034477e-01 0.0000000000000000e+00  1.3205398012299128e+00 -9.2070588473473228e-02 0.0000000000000000e+00  1.3206007913543045e+00 -6.9105428590216136e-02 0.0000000000000000e+00  1.3206413325018722e+00 -4.6094235153214244e-02 0.0000000000000000e+00  1.3206646775107871e+00 -2.3054152077572727e-02 0.0000000000000000e+00  1.3206721770670653e+00 6.0415705663481915e-16 0.0000000000000000e+00  1.3206646775107871e+00 2.3054152077572439e-02 0.0000000000000000e+00  1.3206413325018722e+00 4.6094235153215653e-02 0.0000000000000000e+00  1.3206007913543043e+00 6.9105428590215873e-02 0.0000000000000000e+00  1.3205398012299130e+00 9.2070588473473408e-02 0.0000000000000000e+00  1.3204541541786659e+00 1.1496992875034383e-01 0.0000000000000000e+00  1.3203370145667901e+00 1.3777819895838042e-01 0.0000000000000000e+00  1.3201794839147314e+00 1.6046426386702600e-01 0.0000000000000000e+00  1.3199684525391833e+00 1.8298634082194254e-01 0.0000000000000000e+00  1.3196864630194993e+00 2.0529052685766797e-01 0.0000000000000000e+00  1.3193086396307441e+00 2.2730278780047475e-01 0.0000000000000000e+00  1.3188011910618742e+00 2.4892457197759163e-01 0.0000000000000000e+00  1.3181164939721532e+00 2.7001894319390712e-01 0.0000000000000000e+00  1.3171889196771676e+00 2.9039958405960503e-01 0.0000000000000000e+00  1.3159262700869814e+00 3.0980597254043596e-01 0.0000000000000000e+00  1.3142005283184679e+00 3.2787889365964529e-01 0.0000000000000000e+00  1.3118327102641816e+00 3.4411604082357938e-01 0.0000000000000000e+00  1.3085755147536651e+00 3.5782461941540600e-01 0.0000000000000000e+00  1.3040899334054001e+00 3.6805075003834892e-01 0.0000000000000000e+00  1.2979230187133624e+00 3.7351419515611500e-01 0.0000000000000000e+00  1.2894915066976151e+00 3.7254729244448986e-01 0.0000000000000000e+00  1.2780944165203814e+00 3.6311246460164165e-01 0.0000000000000000e+00  1.2629842083310570e+00 3.4296573398739205e-01 0.0000000000000000e+00  1.2435447995986832e+00 3.1012607799571734e-01 0.0000000000000000e+00  1.2195997902046145e+00 2.6373079269111782e-01 0.0000000000000000e+00  1.1917971293327585e+00 2.0519911992446588e-01 0.0000000000000000e+00  1.1618453636950210e+00 1.3908555601872785e-01 0.0000000000000000e+00  1.1322781351474085e+00 7.2640028737069554e-02 0.0000000000000000e+00  1.1056484149168382e+00 1.3559582317964428e-02 0.0000000000000000e+00  1.0836129278657516e+00 -3.2841708425888030e-02 0.0000000000000000e+00  1.0665518820776700e+00 -6.5026949316572574e-02 0.0000000000000000e+00  1.0538665534917602e+00 -8.4514389948728605e-02 0.0000000000000000e+00  1.0445427366444067e+00 -9.4220498204262551e-02 0.0000000000000000e+00  1.0375842161957227e+00 -9.7105528371539657e-02 0.0000000000000000e+00  1.0322021878416525e+00 -9.5559282257620892e-02 0.0000000000000000e+00  1.0278427015401503e+00 -9.1281327941175439e-02 0.0000000000000000e+00  1.0241421488869298e+00 -8.5407121755263909e-02 0.0000000000000000e+00  1.0208734436196563e+00 -7.8658057103389342e-02 0.0000000000000000e+00  1.0178982107380565e+00 -7.1491159372909382e-02 0.0000000000000000e+00  1.0151354461261617e+00 -6.4186120534288141e-02 0.0000000000000000e+00  1.0125381930803774e+00 -5.6923412526938055e-02 0.0000000000000000e+00  1.0100814306667376e+00 -4.9813040490140452e-02 0.0000000000000000e+00  1.0077519576738767e+00 -4.2933062139944508e-02 0.0000000000000000e+00  1.0055448585828475e+00 -3.6331605268883946e-02 0.0000000000000000e+00  1.0034586705644124e+00 -3.0049486299311517e-02 0.0000000000000000e+00  1.0014951295920789e+00 -2.4111575091862510e-02 0.0000000000000000e+00  9.9965622889296557e-01 -1.8543747300800835e-02 0.0000000000000000e+00  9.9794517317863884e-01 -1.3360035175296556e-02 0.0000000000000000e+00  9.9636405498312630e-01 -8.5777970336041193e-03 0.0000000000000000e+00  9.9491528597673262e-01 -4.2031084106842432e-03 0.0000000000000000e+00  9.9359944630713759e-01 -2.4559400027078418e-04 0.0000000000000000e+00  9.9241697167373666e-01 3.2969402679160716e-03 0.0000000000000000e+00  9.9136604007652396e-01 6.4234333335031497e-03 0.0000000000000000e+00  9.9044448056762213e-01 9.1452018382187465e-03 0.0000000000000000e+00  9.8964766988543362e-01 1.1470361156921608e-02 0.0000000000000000e+00  9.8897068593063586e-01 1.3419434216869407e-02 0.0000000000000000e+00  9.8840620784834021e-01 1.5009173207029630e-02 0.0000000000000000e+00  9.8794693284202140e-01 1.6268002475551043e-02 0.0000000000000000e+00  9.8758345142876147e-01 1.7219303557549484e-02 0.0000000000000000e+00  9.8730691299707640e-01 1.7896698678419910e-02 0.0000000000000000e+00  9.8710681210238560e-01 1.8327011477438423e-02 0.0000000000000000e+00  9.8697385423098405e-01 1.8545515397826194e-02 0.0000000000000000e+00  9.8689756598087264e-01 1.8578872929290585e-02 0.0000000000000000e+00  9.8686930120392236e-01 1.8460505862535576e-02 0.0000000000000000e+00  9.8687959444545514e-01 1.8213805692971496e-02 0.0000000000000000e+00  9.8692126652448997e-01 1.7867714376239328e-02 0.0000000000000000e+00  9.8698647387356242e-01 1.7440401527148854e-02 0.0000000000000000e+00  9.8706990958820895e-01 1.6955017214224818e-02 0.0000000000000000e+00  9.8716554269225709e-01 1.6423909000276571e-02 0.0000000000000000e+00  9.8726994458712858e-01 1.5864391370862523e-02 0.0000000000000000e+00  9.8737874211129728e-01 1.5283490261654169e-02 0.0000000000000000e+00  9.8749011524923669e-01 1.4693514544995786e-02 0.0000000000000000e+00  9.8760099781097310e-01 1.4097293386603484e-02 0.0000000000000000e+00  9.8771078866367068e-01 1.3503338520376247e-02 0.0000000000000000e+00  9.8781732805764200e-01 1.2911566799761173e-02 0.0000000000000000e+00  9.8792084949129688e-01 1.2327882368727080e-02 0.0000000000000000e+00  9.8801974779516955e-01 1.1750422190543777e-02 0.0000000000000000e+00  9.8811478158428800e-01 1.1183434538575752e-02 0.0000000000000000e+00  9.8820463917220747e-01 1.0624123684630385e-02 0.0000000000000000e+00  9.8829038829812832e-01 1.0075736973046484e-02 0.0000000000000000e+00  9.8837084119760499e-01 9.5351053991357109e-03 0.0000000000000000e+00  9.8844724036198950e-01 9.0048715339594819e-03 0.0000000000000000e+00  9.8851842430828085e-01 8.4818264555699633e-03 0.0000000000000000e+00  9.8858573429107011e-01 7.9682190295242098e-03 0.0000000000000000e+00  9.8864798552814737e-01 7.4609827406980052e-03 0.0000000000000000e+00  9.8870657811037332e-01 6.9620694634873331e-03 0.0000000000000000e+00  9.8876028271330541e-01 6.4686482781956814e-03 0.0000000000000000e+00  9.8881053797558549e-01 5.9824085125629598e-03 0.0000000000000000e+00  9.8885606383480495e-01 5.5008004830904593e-03 0.0000000000000000e+00  9.8889832664960242e-01 5.0252555023256691e-03 0.0000000000000000e+00  9.8893599672503607e-01 4.5535273204704496e-03 0.0000000000000000e+00  9.8897056126763949e-01 4.0867814526367981e-03 0.0000000000000000e+00  9.8900064533612642e-01 3.6230862074649235e-03 0.0000000000000000e+00  9.8902775143460031e-01 3.1633297308957847e-03 0.0000000000000000e+00  9.8905046514429773e-01 2.7059006390071551e-03 0.0000000000000000e+00  9.8907029892848985e-01 2.2513980429359451e-03 0.0000000000000000e+00  9.8908580520582834e-01 1.7985336073835104e-03 0.0000000000000000e+00  9.8909850087706619e-01 1.3476070687000415e-03 0.0000000000000000e+00  9.8910691169767806e-01 8.9765375684765984e-04 0.0000000000000000e+00  9.8911255320434177e-01 4.4866547741841546e-04 0.0000000000000000e+00  9.8911393100472655e-01 0.0000000000000000e+00 0.0000000000000000e+00  </DataArray> 
</PointData> 
</Piece>
</UnstructuredGrid>
</VTKFile>