<?xml version="1.0"?>
<VTKFile type="UnstructuredGrid"  version="0.1"  >
<UnstructuredGrid>
<Piece  NumberOfPoints="201" NumberOfCells="200">
<Points>
<DataArray  type="Float64"  NumberOfComponents="3"  format="ascii">-5 0 0  -4.95 0 0  -4.9 0 0  -4.85 0 0  -4.8 0 0  -4.75 0 0  -4.7 0 0  -4.65 0 0  -4.6 0 0  -4.55 0 0  -4.5 0 0  -4.45 0 0  -4.4 0 0  -4.35 0 0  -4.3 0 0  -4.25 0 0  -4.2 0 0  -4.15 0 0  -4.1 0 0  -4.05 0 0  -4 0 0  -3.95 0 0  -3.9 0 0  -3.85 0 0  -3.8 0 0  -3.75 0 0  -3.7 0 0  -3.65 0 0  -3.6 0 0  -3.55 0 0  -3.5 0 0  -3.45 0 0  -3.4 0 0  -3.35 0 0  -3.3 0 0  -3.25 0 0  -3.2 0 0  -3.15 0 0  -3.1 0 0  -3.05 0 0  -3 0 0  -2.95 0 0  -2.9 0 0  -2.85 0 0  -2.8 0 0  -2.75 0 0  -2.7 0 0  -2.65 0 0  -2.6 0 0  -2.55 0 0  -2.5 0 0  -2.45 0 0  -2.4 0 0  -2.35 0 0  -2.3 0 0  -2.25 0 0  -2.2 0 0  -2.15 0 0  -2.1 0 0  -2.05 0 0  -2 0 0  -1.95 0 0  -1.9 0 0  -1.85 0 0  -1.8 0 0  -1.75 0 0  -1.7 0 0  -1.65 0 0  -1.6 0 0  -1.55 0 0  -1.5 0 0  -1.45 0 0  -1.4 0 0  -1.35 0 0  -1.3 0 0  -1.25 0 0  -1.2 0 0  -1.15 0 0  -1.1 0 0  -1.05 0 0  -1 0 0  -0.9500000000000002 0 0  -0.9000000000000004 0 0  -0.8499999999999996 0 0  -0.7999999999999998 0 0  -0.75 0 0  -0.7000000000000002 0 0  -0.6500000000000004 0 0  -0.5999999999999996 0 0  -0.5499999999999998 0 0  -0.5 0 0  -0.4500000000000002 0 0  -0.4000000000000004 0 0  -0.3499999999999996 0 0  -0.2999999999999998 0 0  -0.25 0 0  -0.2000000000000002 0 0  -0.1500000000000004 0 0  -0.09999999999999964 0 0  -0.04999999999999982 0 0  0 0 0  0.04999999999999982 0 0  0.09999999999999964 0 0  0.1500000000000004 0 0  0.2000000000000002 0 0  0.25 0 0  0.2999999999999998 0 0  0.3499999999999996 0 0  0.4000000000000004 0 0  0.4500000000000002 0 0  0.5 0 0  0.5499999999999998 0 0  0.5999999999999996 0 0  0.6500000000000004 0 0  0.7000000000000002 0 0  0.75 0 0  0.7999999999999998 0 0  0.8499999999999996 0 0  0.9000000000000004 0 0  0.9500000000000002 0 0  1 0 0  1.05 0 0  1.1 0 0  1.15 0 0  1.2 0 0  1.25 0 0  1.3 0 0  1.35 0 0  1.4 0 0  1.45 0 0  1.5 0 0  1.55 0 0  1.6 0 0  1.65 0 0  1.7 0 0  1.75 0 0  1.8 0 0  1.85 0 0  1.9 0 0  1.95 0 0  2 0 0  2.05 0 0  2.1 0 0  2.15 0 0  2.2 0 0  2.25 0 0  2.3 0 0  2.35 0 0  2.4 0 0  2.45 0 0  2.5 0 0  2.55 0 0  2.6 0 0  2.65 0 0  2.7 0 0  2.75 0 0  2.8 0 0  2.85 0 0  2.9 0 0  2.95 0 0  3 0 0  3.050000000000001 0 0  3.1 0 0  3.15 0 0  3.199999999999999 0 0  3.25 0 0  3.300000000000001 0 0  3.35 0 0  3.4 0 0  3.449999999999999 0 0  3.5 0 0  3.550000000000001 0 0  3.6 0 0  3.65 0 0  3.699999999999999 0 0  3.75 0 0  3.800000000000001 0 0  3.85 0 0  3.9 0 0  3.949999999999999 0 0  4 0 0  4.050000000000001 0 0  4.1 0 0  4.15 0 0  4.199999999999999 0 0  4.25 0 0  4.300000000000001 0 0  4.35 0 0  4.4 0 0  4.449999999999999 0 0  4.5 0 0  4.550000000000001 0 0  4.6 0 0  4.65 0 0  4.699999999999999 0 0  4.75 0 0  4.800000000000001 0 0  4.85 0 0  4.9 0 0  4.949999999999999 0 0  5 0 0  </DataArray>
</Points>
<Cells>
<DataArray  type="UInt32"  Name="connectivity"  format="ascii">0 1  1 2  2 3  3 4  4 5  5 6  6 7  7 8  8 9  9 10  10 11  11 12  12 13  13 14  14 15  15 16  16 17  17 18  18 19  19 20  20 21  21 22  22 23  23 24  24 25  25 26  26 27  27 28  28 29  29 30  30 31  31 32  32 33  33 34  34 35  35 36  36 37  37 38  38 39  39 40  40 41  41 42  42 43  43 44  44 45  45 46  46 47  47 48  48 49  49 50  50 51  51 52  52 53  53 54  54 55  55 56  56 57  57 58  58 59  59 60  60 61  61 62  62 63  63 64  64 65  65 66  66 67  67 68  68 69  69 70  70 71  71 72  72 73  73 74  74 75  75 76  76 77  77 78  78 79  79 80  80 81  81 82  82 83  83 84  84 85  85 86  86 87  87 88  88 89  89 90  90 91  91 92  92 93  93 94  94 95  95 96  96 97  97 98  98 99  99 100  100 101  101 102  102 103  103 104  104 105  105 106  106 107  107 108  108 109  109 110  110 111  111 112  112 113  113 114  114 115  115 116  116 117  117 118  118 119  119 120  120 121  121 122  122 123  123 124  124 125  125 126  126 127  127 128  128 129  129 130  130 131  131 132  132 133  133 134  134 135  135 136  136 137  137 138  138 139  139 140  140 141  141 142  142 143  143 144  144 145  145 146  146 147  147 148  148 149  149 150  150 151  151 152  152 153  153 154  154 155  155 156  156 157  157 158  158 159  159 160  160 161  161 162  162 163  163 164  164 165  165 166  166 167  167 168  168 169  169 170  170 171  171 172  172 173  173 174  174 175  175 176  176 177  177 178  178 179  179 180  180 181  181 182  182 183  183 184  184 185  185 186  186 187  187 188  188 189  189 190  190 191  191 192  192 193  193 194  194 195  195 196  196 197  197 198  198 199  199 200  </DataArray>
<DataArray  type="UInt32"  Name="offsets"  format="ascii">2 4 6 8 10 12 14 16 18 20 22 24 26 28 30 32 34 36 38 40 42 44 46 48 50 52 54 56 58 60 62 64 66 68 70 72 74 76 78 80 82 84 86 88 90 92 94 96 98 100 102 104 106 108 110 112 114 116 118 120 122 124 126 128 130 132 134 136 138 140 142 144 146 148 150 152 154 156 158 160 162 164 166 168 170 172 174 176 178 180 182 184 186 188 190 192 194 196 198 200 202 204 206 208 210 212 214 216 218 220 222 224 226 228 230 232 234 236 238 240 242 244 246 248 250 252 254 256 258 260 262 264 266 268 270 272 274 276 278 280 282 284 286 288 290 292 294 296 298 300 302 304 306 308 310 312 314 316 318 320 322 324 326 328 330 332 334 336 338 340 342 344 346 348 350 352 354 356 358 360 362 364 366 368 370 372 374 376 378 380 382 384 386 388 390 392 394 396 398 400 </DataArray>
<DataArray  type="UInt8"  Name="types"  format="ascii">3 3 3 3 3 3 3 3 3 3 3 3 3 3 3 3 3 3 3 3 3 3 3 3 3 3 3 3 3 3 3 3 3 3 3 3 3 3 3 3 3 3 3 3 3 3 3 3 3 3 3 3 3 3 3 3 3 3 3 3 3 3 3 3 3 3 3 3 3 3 3 3 3 3 3 3 3 3 3 3 3 3 3 3 3 3 3 3 3 3 3 3 3 3 3 3 3 3 3 3 3 3 3 3 3 3 3 3 3 3 3 3 3 3 3 3 3 3 3 3 3 3 3 3 3 3 3 3 3 3 3 3 3 3 3 3 3 3 3 3 3 3 3 3 3 3 3 3 3 3 3 3 3 3 3 3 3 3 3 3 3 3 3 3 3 3 3 3 3 3 3 3 3 3 3 3 3 3 3 3 3 3 3 3 3 3 3 3 3 3 3 3 3 3 3 3 3 3 3 3 </DataArray>
</Cells>
<PointData  Vectors="(h, u)"> 
<DataArray  type="Float64"  Name="(h, u)"  NumberOfComponents="3" format="ascii">1.0817155845370940e+00 0.0000000000000000e+00 0.0000000000000000e+00  1.0818415086803033e+00 2.8507755197102028e-02 0.0000000000000000e+00  1.0822196305327971e+00 5.6937854261388025e-02 0.0000000000000000e+00  1.0828540229449366e+00 8.5212309725362881e-02 0.0000000000000000e+00  1.0837492791238483e+00 1.1325432105648470e-01 0.0000000000000000e+00  1.0849134067245463e+00 1.4098642557819044e-01 0.0000000000000000e+00  1.0863543598197685e+00 1.6833418268986464e-01 0.0000000000000000e+00  1.0880828160709011e+00 1.9522312361950039e-01 0.0000000000000000e+00  1.0901083423438500e+00 2.2158485129905947e-01 0.0000000000000000e+00  1.0924420682529357e+00 2.4735300514972391e-01 0.0000000000000000e+00  1.0950924260019923e+00 2.7247182262260961e-01 0.0000000000000000e+00  1.0980678024157857e+00 2.9689105129411714e-01 0.0000000000000000e+00  1.1013719218722458e+00 3.2057658924765497e-01 0.0000000000000000e+00  1.1050067098714584e+00 3.4350377460543730e-01 0.0000000000000000e+00  1.1089675820035918e+00 3.6566913507723614e-01 0.0000000000000000e+00  1.1132469162766359e+00 3.8708098264984231e-01 0.0000000000000000e+00  1.1178296427727563e+00 4.0777094981680145e-01 0.0000000000000000e+00  1.1226977221509935e+00 4.2778084724097432e-01 0.0000000000000000e+00  1.1278263046716046e+00 4.4717311258188586e-01 0.0000000000000000e+00  1.1331892969213928e+00 4.6601386602109468e-01 0.0000000000000000e+00  1.1387559351540577e+00 4.8438270367156011e-01 0.0000000000000000e+00  1.1444970199768381e+00 5.0235335224930000e-01 0.0000000000000000e+00  1.1503813269420615e+00 5.2000444322738826e-01 0.0000000000000000e+00  1.1563818089063440e+00 5.3739986872990386e-01 0.0000000000000000e+00  1.1624712419556884e+00 5.5460210518213937e-01 0.0000000000000000e+00  1.1686278852637879e+00 5.7165361591252362e-01 0.0000000000000000e+00  1.1748301405626536e+00 5.8859298933817372e-01 0.0000000000000000e+00  1.1810615830301199e+00 6.0543725536910908e-01 0.0000000000000000e+00  1.1873047986831766e+00 6.2219971764821635e-01 0.0000000000000000e+00  1.1935459261781318e+00 6.3887200877208006e-01 0.0000000000000000e+00  1.1997678850057729e+00 6.5544182107354831e-01 0.0000000000000000e+00  1.2059544041960375e+00 6.7187314677692000e-01 0.0000000000000000e+00  1.2120825157049329e+00 6.8812181006567630e-01 0.0000000000000000e+00  1.2181255269897844e+00 7.0411186286067495e-01 0.0000000000000000e+00  1.2240439678464485e+00 7.1974589761254748e-01 0.0000000000000000e+00  1.2297860658926305e+00 7.3487392272195318e-01 0.0000000000000000e+00  1.2352751801866673e+00 7.4929283566409599e-01 0.0000000000000000e+00  1.2404048621567048e+00 7.6270032927243847e-01 0.0000000000000000e+00  1.2450190083066401e+00 7.7467294898707728e-01 0.0000000000000000e+00  1.2488966349313995e+00 7.8459178479916647e-01 0.0000000000000000e+00  1.2517194974475094e+00 7.9158341471814631e-01 0.0000000000000000e+00  1.2530423566103739e+00 7.9440365008931146e-01 0.0000000000000000e+00  1.2522493961722692e+00 7.9133938242593560e-01 0.0000000000000000e+00  1.2485260858669400e+00 7.8008476987117203e-01 0.0000000000000000e+00  1.2408536501034904e+00 7.5772277432855295e-01 0.0000000000000000e+00  1.2280932626869401e+00 7.2088052315883488e-01 0.0000000000000000e+00  1.2092195144128559e+00 6.6634629745402785e-01 0.0000000000000000e+00  1.1837898591885012e+00 5.9233951319720735e-01 0.0000000000000000e+00  1.1525890338940206e+00 5.0048093986287634e-01 0.0000000000000000e+00  1.1181198899260885e+00 3.9752994006272108e-01 0.0000000000000000e+00  1.0842877939833757e+00 2.9494853843523006e-01 0.0000000000000000e+00  1.0549937337622108e+00 2.0487880365579103e-01 0.0000000000000000e+00  1.0325021746512102e+00 1.3490145677569304e-01 0.0000000000000000e+00  1.0169292498340903e+00 8.5948259085983095e-02 0.0000000000000000e+00  1.0069798660762637e+00 5.4351416005943821e-02 0.0000000000000000e+00  1.0009846095400785e+00 3.5062513855666659e-02 0.0000000000000000e+00  9.9751963324668935e-01 2.3695290421224875e-02 0.0000000000000000e+00  9.9557991301307303e-01 1.7117579963668576e-02 0.0000000000000000e+00  9.9452446443499609e-01 1.3328967889449192e-02 0.0000000000000000e+00  9.9396909578258619e-01 1.1120873556118930e-02 0.0000000000000000e+00  9.9369099831058083e-01 9.7975925350550705e-03 0.0000000000000000e+00  9.9356465984099329e-01 8.9606442393759828e-03 0.0000000000000000e+00  9.9351985039511226e-01 8.3928715319913170e-03 0.0000000000000000e+00  9.9351838220946664e-01 7.9700550080682078e-03 0.0000000000000000e+00  9.9353910529009715e-01 7.6291887934026442e-03 0.0000000000000000e+00  9.9357099071250854e-01 7.3314457735517502e-03 0.0000000000000000e+00  9.9360779166659485e-01 7.0606592053098251e-03 0.0000000000000000e+00  9.9364655433408322e-01 6.8034188864725875e-03 0.0000000000000000e+00  9.9368539203625550e-01 6.5572804840595307e-03 0.0000000000000000e+00  9.9372367299931752e-01 6.3161638824225297e-03 0.0000000000000000e+00  9.9376074653835478e-01 6.0815273035218871e-03 0.0000000000000000e+00  9.9379662944273706e-01 5.8493657263088451e-03 0.0000000000000000e+00  9.9383100930760182e-01 5.6222044184818000e-03 0.0000000000000000e+00  9.9386407917707031e-01 5.3966443184373094e-03 0.0000000000000000e+00  9.9389561388681380e-01 5.1754645315903267e-03 0.0000000000000000e+00  9.9392585282217372e-01 4.9554876598015144e-03 0.0000000000000000e+00  9.9395459000300379e-01 4.7395013567398045e-03 0.0000000000000000e+00  9.9398207586601450e-01 4.5244689621366588e-03 0.0000000000000000e+00  9.9400810631246472e-01 4.3130967577392921e-03 0.0000000000000000e+00  9.9403293285476679e-01 4.1024905021435189e-03 0.0000000000000000e+00  9.9405634984161351e-01 3.8952275092634884e-03 0.0000000000000000e+00  9.9407860644701829e-01 3.6885785796879288e-03 0.0000000000000000e+00  9.9409949571776302e-01 3.4849572769864779e-03 0.0000000000000000e+00  9.9411926279610030e-01 3.2818255201195572e-03 0.0000000000000000e+00  9.9413770051118122e-01 3.0814041487038785e-03 0.0000000000000000e+00  9.9415504886016726e-01 2.8813704561767555e-03 0.0000000000000000e+00  9.9417110152988475e-01 2.6837280847637314e-03 0.0000000000000000e+00  9.9418609262555113e-01 2.4863904062359145e-03 0.0000000000000000e+00  9.9419981748780406e-01 2.2911237655880282e-03 0.0000000000000000e+00  9.9421250393287652e-01 2.0960942488823537e-03 0.0000000000000000e+00  9.9422394938765180e-01 1.9028150763097805e-03 0.0000000000000000e+00  9.9423437533148251e-01 1.7097176667872705e-03 0.0000000000000000e+00  9.9424358133744328e-01 1.5180502392149044e-03 0.0000000000000000e+00  9.9425178282815430e-01 1.3265185332036941e-03 0.0000000000000000e+00  9.9425878123985822e-01 1.1360973085085364e-03 0.0000000000000000e+00  9.9426478650479444e-01 9.4577257022884168e-04 0.0000000000000000e+00  9.9426960134688358e-01 7.5623991952805485e-04 0.0000000000000000e+00  9.9427343100487808e-01 5.6676919987915832e-04 0.0000000000000000e+00  9.9427607868372636e-01 3.7777322964910450e-04 0.0000000000000000e+00  9.9427774589319928e-01 1.8880753487692436e-04 0.0000000000000000e+00  9.9427823534732818e-01 1.7669421097113740e-16 0.0000000000000000e+00  9.9427774589319928e-01 -1.8880753487353908e-04 0.0000000000000000e+00  9.9427607868372647e-01 -3.7777322964850489e-04 0.0000000000000000e+00  9.9427343100487808e-01 -5.6676919987587210e-04 0.0000000000000000e+00  9.9426960134688358e-01 -7.5623991952784939e-04 0.0000000000000000e+00  9.9426478650479433e-01 -9.4577257022606059e-04 0.0000000000000000e+00  9.9425878123985822e-01 -1.1360973085085401e-03 0.0000000000000000e+00  9.9425178282815430e-01 -1.3265185332014663e-03 0.0000000000000000e+00  9.9424358133744328e-01 -1.5180502392147014e-03 0.0000000000000000e+00  9.9423437533148262e-01 -1.7097176667855111e-03 0.0000000000000000e+00  9.9422394938765180e-01 -1.9028150763099603e-03 0.0000000000000000e+00  9.9421250393287630e-01 -2.0960942488802829e-03 0.0000000000000000e+00  9.9419981748780395e-01 -2.2911237655885062e-03 0.0000000000000000e+00  9.9418609262555113e-01 -2.4863904062338974e-03 0.0000000000000000e+00  9.9417110152988464e-01 -2.6837280847638802e-03 0.0000000000000000e+00  9.9415504886016726e-01 -2.8813704561743651e-03 0.0000000000000000e+00  9.9413770051118111e-01 -3.0814041487050234e-03 0.0000000000000000e+00  9.9411926279610041e-01 -3.2818255201175722e-03 0.0000000000000000e+00  9.9409949571776324e-01 -3.4849572769875790e-03 0.0000000000000000e+00  9.9407860644701862e-01 -3.6885785796863021e-03 0.0000000000000000e+00  9.9405634984161340e-01 -3.8952275092652734e-03 0.0000000000000000e+00  9.9403293285476702e-01 -4.1024905021427782e-03 0.0000000000000000e+00  9.9400810631246483e-01 -4.3130967577416730e-03 0.0000000000000000e+00  9.9398207586601484e-01 -4.5244689621360117e-03 0.0000000000000000e+00  9.9395459000300379e-01 -4.7395013567424777e-03 0.0000000000000000e+00  9.9392585282217427e-01 -4.9554876598009879e-03 0.0000000000000000e+00  9.9389561388681380e-01 -5.1754645315927571e-03 0.0000000000000000e+00  9.9386407917707087e-01 -5.3966443184374742e-03 0.0000000000000000e+00  9.9383100930760160e-01 -5.6222044184838053e-03 0.0000000000000000e+00  9.9379662944273739e-01 -5.8493657263089058e-03 0.0000000000000000e+00  9.9376074653835456e-01 -6.0815273035231057e-03 0.0000000000000000e+00  9.9372367299931785e-01 -6.3161638824220006e-03 0.0000000000000000e+00  9.9368539203625528e-01 -6.5572804840597380e-03 0.0000000000000000e+00  9.9364655433408344e-01 -6.8034188864717149e-03 0.0000000000000000e+00  9.9360779166659441e-01 -7.0606592053106768e-03 0.0000000000000000e+00  9.9357099071250876e-01 -7.3314457735514380e-03 0.0000000000000000e+00  9.9353910529009692e-01 -7.6291887934034717e-03 0.0000000000000000e+00  9.9351838220946675e-01 -7.9700550080671478e-03 0.0000000000000000e+00  9.9351985039511193e-01 -8.3928715319920421e-03 0.0000000000000000e+00  9.9356465984099329e-01 -8.9606442393745517e-03 0.0000000000000000e+00  9.9369099831058061e-01 -9.7975925350562865e-03 0.0000000000000000e+00  9.9396909578258630e-01 -1.1120873556117648e-02 0.0000000000000000e+00  9.9452446443499598e-01 -1.3328967889450529e-02 0.0000000000000000e+00  9.9557991301307314e-01 -1.7117579963667015e-02 0.0000000000000000e+00  9.9751963324668891e-01 -2.3695290421225517e-02 0.0000000000000000e+00  1.0009846095400787e+00 -3.5062513855665813e-02 0.0000000000000000e+00  1.0069798660762637e+00 -5.4351416005944952e-02 0.0000000000000000e+00  1.0169292498340905e+00 -8.5948259085982484e-02 0.0000000000000000e+00  1.0325021746512102e+00 -1.3490145677569390e-01 0.0000000000000000e+00  1.0549937337622108e+00 -2.0487880365579061e-01 0.0000000000000000e+00  1.0842877939833755e+00 -2.9494853843523033e-01 0.0000000000000000e+00  1.1181198899260887e+00 -3.9752994006272119e-01 0.0000000000000000e+00  1.1525890338940199e+00 -5.0048093986287567e-01 0.0000000000000000e+00  1.1837898591885017e+00 -5.9233951319720757e-01 0.0000000000000000e+00  1.2092195144128555e+00 -6.6634629745402663e-01 0.0000000000000000e+00  1.2280932626869396e+00 -7.2088052315883511e-01 0.0000000000000000e+00  1.2408536501034897e+00 -7.5772277432855251e-01 0.0000000000000000e+00  1.2485260858669396e+00 -7.8008476987117215e-01 0.0000000000000000e+00  1.2522493961722689e+00 -7.9133938242593482e-01 0.0000000000000000e+00  1.2530423566103739e+00 -7.9440365008931157e-01 0.0000000000000000e+00  1.2517194974475094e+00 -7.9158341471814520e-01 0.0000000000000000e+00  1.2488966349313992e+00 -7.8459178479916603e-01 0.0000000000000000e+00  1.2450190083066404e+00 -7.7467294898707717e-01 0.0000000000000000e+00  1.2404048621567045e+00 -7.6270032927243891e-01 0.0000000000000000e+00  1.2352751801866673e+00 -7.4929283566409555e-01 0.0000000000000000e+00  1.2297860658926301e+00 -7.3487392272195462e-01 0.0000000000000000e+00  1.2240439678464485e+00 -7.1974589761254792e-01 0.0000000000000000e+00  1.2181255269897844e+00 -7.0411186286067573e-01 0.0000000000000000e+00  1.2120825157049331e+00 -6.8812181006567763e-01 0.0000000000000000e+00  1.2059544041960379e+00 -6.7187314677692156e-01 0.0000000000000000e+00  1.1997678850057729e+00 -6.5544182107354954e-01 0.0000000000000000e+00  1.1935459261781320e+00 -6.3887200877208172e-01 0.0000000000000000e+00  1.1873047986831768e+00 -6.2219971764821747e-01 0.0000000000000000e+00  1.1810615830301201e+00 -6.0543725536911097e-01 0.0000000000000000e+00  1.1748301405626538e+00 -5.8859298933817616e-01 0.0000000000000000e+00  1.1686278852637886e+00 -5.7165361591252484e-01 0.0000000000000000e+00  1.1624712419556882e+00 -5.5460210518214037e-01 0.0000000000000000e+00  1.1563818089063445e+00 -5.3739986872990553e-01 0.0000000000000000e+00  1.1503813269420615e+00 -5.2000444322738859e-01 0.0000000000000000e+00  1.1444970199768385e+00 -5.0235335224930322e-01 0.0000000000000000e+00  1.1387559351540575e+00 -4.8438270367156150e-01 0.0000000000000000e+00  1.1331892969213933e+00 -4.6601386602109651e-01 0.0000000000000000e+00  1.1278263046716048e+00 -4.4717311258188558e-01 0.0000000000000000e+00  1.1226977221509942e+00 -4.2778084724097376e-01 0.0000000000000000e+00  1.1178296427727568e+00 -4.0777094981680118e-01 0.0000000000000000e+00  1.1132469162766365e+00 -3.8708098264984242e-01 0.0000000000000000e+00  1.1089675820035922e+00 -3.6566913507723581e-01 0.0000000000000000e+00  1.1050067098714589e+00 -3.4350377460543696e-01 0.0000000000000000e+00  1.1013719218722462e+00 -3.2057658924765470e-01 0.0000000000000000e+00  1.0980678024157859e+00 -2.9689105129411913e-01 0.0000000000000000e+00  1.0950924260019932e+00 -2.7247182262261072e-01 0.0000000000000000e+00  1.0924420682529359e+00 -2.4735300514972433e-01 0.0000000000000000e+00  1.0901083423438509e+00 -2.2158485129906000e-01 0.0000000000000000e+00  1.0880828160709013e+00 -1.9522312361950145e-01 0.0000000000000000e+00  1.0863543598197694e+00 -1.6833418268986586e-01 0.0000000000000000e+00  1.0849134067245463e+00 -1.4098642557819160e-01 0.0000000000000000e+00  1.0837492791238492e+00 -1.1325432105648452e-01 0.0000000000000000e+00  1.0828540229449366e+00 -8.5212309725362645e-02 0.0000000000000000e+00  1.0822196305327978e+00 -5.6937854261388199e-02 0.0000000000000000e+00  1.0818415086803033e+00 -2.8507755197102809e-02 0.0000000000000000e+00  1.0817155845370945e+00 0.0000000000000000e+00 0.0000000000000000e+00  </DataArray> 
</PointData> 
</Piece>
</UnstructuredGrid>
</VTKFile>