<?xml version="1.0"?>
<VTKFile type="UnstructuredGrid"  version="0.1"  >
<UnstructuredGrid>
<Piece  NumberOfPoints="201" NumberOfCells="200">
<Points>
<DataArray  type="Float64"  NumberOfComponents="3"  format="ascii">-5 0 0  -4.95 0 0  -4.9 0 0  -4.85 0 0  -4.8 0 0  -4.75 0 0  -4.7 0 0  -4.65 0 0  -4.6 0 0  -4.55 0 0  -4.5 0 0  -4.45 0 0  -4.4 0 0  -4.35 0 0  -4.3 0 0  -4.25 0 0  -4.2 0 0  -4.15 0 0  -4.1 0 0  -4.05 0 0  -4 0 0  -3.95 0 0  -3.9 0 0  -3.85 0 0  -3.8 0 0  -3.75 0 0  -3.7 0 0  -3.65 0 0  -3.6 0 0  -3.55 0 0  -3.5 0 0  -3.45 0 0  -3.4 0 0  -3.35 0 0  -3.3 0 0  -3.25 0 0  -3.2 0 0  -3.15 0 0  -3.1 0 0  -3.05 0 0  -3 0 0  -2.95 0 0  -2.9 0 0  -2.85 0 0  -2.8 0 0  -2.75 0 0  -2.7 0 0  -2.65 0 0  -2.6 0 0  -2.55 0 0  -2.5 0 0  -2.45 0 0  -2.4 0 0  -2.35 0 0  -2.3 0 0  -2.25 0 0  -2.2 0 0  -2.15 0 0  -2.1 0 0  -2.05 0 0  -2 0 0  -1.95 0 0  -1.9 0 0  -1.85 0 0  -1.8 0 0  -1.75 0 0  -1.7 0 0  -1.65 0 0  -1.6 0 0  -1.55 0 0  -1.5 0 0  -1.45 0 0  -1.4 0 0  -1.35 0 0  -1.3 0 0  -1.25 0 0  -1.2 0 0  -1.15 0 0  -1.1 0 0  -1.05 0 0  -1 0 0  -0.9500000000000002 0 0  -0.9000000000000004 0 0  -0.8499999999999996 0 0  -0.7999999999999998 0 0  -0.75 0 0  -0.7000000000000002 0 0  -0.6500000000000004 0 0  -0.5999999999999996 0 0  -0.5499999999999998 0 0  -0.5 0 0  -0.4500000000000002 0 0  -0.4000000000000004 0 0  -0.3499999999999996 0 0  -0.2999999999999998 0 0  -0.25 0 0  -0.2000000000000002 0 0  -0.1500000000000004 0 0  -0.09999999999999964 0 0  -0.04999999999999982 0 0  0 0 0  0.04999999999999982 0 0  0.09999999999999964 0 0  0.1500000000000004 0 0  0.2000000000000002 0 0  0.25 0 0  0.2999999999999998 0 0  0.3499999999999996 0 0  0.4000000000000004 0 0  0.4500000000000002 0 0  0.5 0 0  0.5499999999999998 0 0  0.5999999999999996 0 0  0.6500000000000004 0 0  0.7000000000000002 0 0  0.75 0 0  0.7999999999999998 0 0  0.8499999999999996 0 0  0.9000000000000004 0 0  0.9500000000000002 0 0  1 0 0  1.05 0 0  1.1 0 0  1.15 0 0  1.2 0 0  1.25 0 0  1.3 0 0  1.35 0 0  1.4 0 0  1.45 0 0  1.5 0 0  1.55 0 0  1.6 0 0  1.65 0 0  1.7 0 0  1.75 0 0  1.8 0 0  1.85 0 0  1.9 0 0  1.95 0 0  2 0 0  2.05 0 0  2.1 0 0  2.15 0 0  2.2 0 0  2.25 0 0  2.3 0 0  2.35 0 0  2.4 0 0  2.45 0 0  2.5 0 0  2.55 0 0  2.6 0 0  2.65 0 0  2.7 0 0  2.75 0 0  2.8 0 0  2.85 0 0  2.9 0 0  2.95 0 0  3 0 0  3.050000000000001 0 0  3.1 0 0  3.15 0 0  3.199999999999999 0 0  3.25 0 0  3.300000000000001 0 0  3.35 0 0  3.4 0 0  3.449999999999999 0 0  3.5 0 0  3.550000000000001 0 0  3.6 0 0  3.65 0 0  3.699999999999999 0 0  3.75 0 0  3.800000000000001 0 0  3.85 0 0  3.9 0 0  3.949999999999999 0 0  4 0 0  4.050000000000001 0 0  4.1 0 0  4.15 0 0  4.199999999999999 0 0  4.25 0 0  4.300000000000001 0 0  4.35 0 0  4.4 0 0  4.449999999999999 0 0  4.5 0 0  4.550000000000001 0 0  4.6 0 0  4.65 0 0  4.699999999999999 0 0  4.75 0 0  4.800000000000001 0 0  4.85 0 0  4.9 0 0  4.949999999999999 0 0  5 0 0  </DataArray>
</Points>
<Cells>
<DataArray  type="UInt32"  Name="connectivity"  format="ascii">0 1  1 2  2 3  3 4  4 5  5 6  6 7  7 8  8 9  9 10  10 11  11 12  12 13  13 14  14 15  15 16  16 17  17 18  18 19  19 20  20 21  21 22  22 23  23 24  24 25  25 26  26 27  27 28  28 29  29 30  30 31  31 32  32 33  33 34  34 35  35 36  36 37  37 38  38 39  39 40  40 41  41 42  42 43  43 44  44 45  45 46  46 47  47 48  48 49  49 50  50 51  51 52  52 53  53 54  54 55  55 56  56 57  57 58  58 59  59 60  60 61  61 62  62 63  63 64  64 65  65 66  66 67  67 68  68 69  69 70  70 71  71 72  72 73  73 74  74 75  75 76  76 77  77 78  78 79  79 80  80 81  81 82  82 83  83 84  84 85  85 86  86 87  87 88  88 89  89 90  90 91  91 92  92 93  93 94  94 95  95 96  96 97  97 98  98 99  99 100  100 101  101 102  102 103  103 104  104 105  105 106  106 107  107 108  108 109  109 110  110 111  111 112  112 113  113 114  114 115  115 116  116 117  117 118  118 119  119 120  120 121  121 122  122 123  123 124  124 125  125 126  126 127  127 128  128 129  129 130  130 131  131 132  132 133  133 134  134 135  135 136  136 137  137 138  138 139  139 140  140 141  141 142  142 143  143 144  144 145  145 146  146 147  147 148  148 149  149 150  150 151  151 152  152 153  153 154  154 155  155 156  156 157  157 158  158 159  159 160  160 161  161 162  162 163  163 164  164 165  165 166  166 167  167 168  168 169  169 170  170 171  171 172  172 173  173 174  174 175  175 176  176 177  177 178  178 179  179 180  180 181  181 182  182 183  183 184  184 185  185 186  186 187  187 188  188 189  189 190  190 191  191 192  192 193  193 194  194 195  195 196  196 197  197 198  198 199  199 200  </DataArray>
<DataArray  type="UInt32"  Name="offsets"  format="ascii">2 4 6 8 10 12 14 16 18 20 22 24 26 28 30 32 34 36 38 40 42 44 46 48 50 52 54 56 58 60 62 64 66 68 70 72 74 76 78 80 82 84 86 88 90 92 94 96 98 100 102 104 106 108 110 112 114 116 118 120 122 124 126 128 130 132 134 136 138 140 142 144 146 148 150 152 154 156 158 160 162 164 166 168 170 172 174 176 178 180 182 184 186 188 190 192 194 196 198 200 202 204 206 208 210 212 214 216 218 220 222 224 226 228 230 232 234 236 238 240 242 244 246 248 250 252 254 256 258 260 262 264 266 268 270 272 274 276 278 280 282 284 286 288 290 292 294 296 298 300 302 304 306 308 310 312 314 316 318 320 322 324 326 328 330 332 334 336 338 340 342 344 346 348 350 352 354 356 358 360 362 364 366 368 370 372 374 376 378 380 382 384 386 388 390 392 394 396 398 400 </DataArray>
<DataArray  type="UInt8"  Name="types"  format="ascii">3 3 3 3 3 3 3 3 3 3 3 3 3 3 3 3 3 3 3 3 3 3 3 3 3 3 3 3 3 3 3 3 3 3 3 3 3 3 3 3 3 3 3 3 3 3 3 3 3 3 3 3 3 3 3 3 3 3 3 3 3 3 3 3 3 3 3 3 3 3 3 3 3 3 3 3 3 3 3 3 3 3 3 3 3 3 3 3 3 3 3 3 3 3 3 3 3 3 3 3 3 3 3 3 3 3 3 3 3 3 3 3 3 3 3 3 3 3 3 3 3 3 3 3 3 3 3 3 3 3 3 3 3 3 3 3 3 3 3 3 3 3 3 3 3 3 3 3 3 3 3 3 3 3 3 3 3 3 3 3 3 3 3 3 3 3 3 3 3 3 3 3 3 3 3 3 3 3 3 3 3 3 3 3 3 3 3 3 3 3 3 3 3 3 3 3 3 3 3 3 </DataArray>
</Cells>
<PointData  Vectors="(h, u)"> 
<DataArray  type="Float64"  Name="(h, u)"  NumberOfComponents="3" format="ascii">1.2863249293872212e+00 0.0000000000000000e+00 0.0000000000000000e+00  1.2863172653661488e+00 1.5401787505723534e-02 0.0000000000000000e+00  1.2862939842153533e+00 3.0791831921643868e-02 0.0000000000000000e+00  1.2862532898253844e+00 4.6157672359254324e-02 0.0000000000000000e+00  1.2861926288486700e+00 6.1484919980358980e-02 0.0000000000000000e+00  1.2861075736934602e+00 7.6756727560254076e-02 0.0000000000000000e+00  1.2859923335234371e+00 9.1951756678051250e-02 0.0000000000000000e+00  1.2858383645596807e+00 1.0704343332757403e-01 0.0000000000000000e+00  1.2856344930584191e+00 1.2199660357327945e-01 0.0000000000000000e+00  1.2853650569599773e+00 1.3676592077017347e-01 0.0000000000000000e+00  1.2850093481847453e+00 1.5129034900277510e-01 0.0000000000000000e+00  1.2845389043642264e+00 1.6548953285999579e-01 0.0000000000000000e+00  1.2839157394832410e+00 1.7925465827569534e-01 0.0000000000000000e+00  1.2830881087940218e+00 1.9244081463520499e-01 0.0000000000000000e+00  1.2819866529405002e+00 2.0485172327014925e-01 0.0000000000000000e+00  1.2805176189397052e+00 2.1622504614888621e-01 0.0000000000000000e+00  1.2785558447422707e+00 2.2620774525899942e-01 0.0000000000000000e+00  1.2759346887259000e+00 2.3433167414568351e-01 0.0000000000000000e+00  1.2724361816266565e+00 2.3997961372581997e-01 0.0000000000000000e+00  1.2677806830605955e+00 2.4235798970004260e-01 0.0000000000000000e+00  1.2616226697540918e+00 2.4047499644376982e-01 0.0000000000000000e+00  1.2535583474191827e+00 2.3315844000644551e-01 0.0000000000000000e+00  1.2431599366790478e+00 2.1913581634557208e-01 0.0000000000000000e+00  1.2300506877721173e+00 1.9723818348529659e-01 0.0000000000000000e+00  1.2140334778774384e+00 1.6675338139459273e-01 0.0000000000000000e+00  1.1952590553492008e+00 1.2792353696818448e-01 0.0000000000000000e+00  1.1743750458425422e+00 8.2416058857908078e-02 0.0000000000000000e+00  1.1525448736305441e+00 3.3464894548842945e-02 0.0000000000000000e+00  1.1312418858524438e+00 -1.4652867795701307e-02 0.0000000000000000e+00  1.1118542519364716e+00 -5.7748641437823989e-02 0.0000000000000000e+00  1.0953026421342322e+00 -9.2911663782882667e-02 0.0000000000000000e+00  1.0818839351801213e+00 -1.1906242900466765e-01 0.0000000000000000e+00  1.0713770758504297e+00 -1.3671054236172217e-01 0.0000000000000000e+00  1.0632786838454888e+00 -1.4726905582270383e-01 0.0000000000000000e+00  1.0570174129857015e+00 -1.5240658878349930e-01 0.0000000000000000e+00  1.0520821190253880e+00 -1.5364098458129885e-01 0.0000000000000000e+00  1.0480691887213902e+00 -1.5218527555512551e-01 0.0000000000000000e+00  1.0446836983832184e+00 -1.4893178488528569e-01 0.0000000000000000e+00  1.0417198083662671e+00 -1.4450924031905513e-01 0.0000000000000000e+00  1.0390389147104966e+00 -1.3934363460010218e-01 0.0000000000000000e+00  1.0365491292880595e+00 -1.3372170789475951e-01 0.0000000000000000e+00  1.0341911898504619e+00 -1.2783085710933187e-01 0.0000000000000000e+00  1.0319267333223172e+00 -1.2179652676012481e-01 0.0000000000000000e+00  1.0297320690214715e+00 -1.1569928059236996e-01 0.0000000000000000e+00  1.0275920759389683e+00 -1.0959479595212293e-01 0.0000000000000000e+00  1.0254982728800790e+00 -1.0351858624880668e-01 0.0000000000000000e+00  1.0234453242559951e+00 -9.7497473741508786e-02 0.0000000000000000e+00  1.0214311768981528e+00 -9.1548720674453438e-02 0.0000000000000000e+00  1.0194545870519129e+00 -8.5687674817638268e-02 0.0000000000000000e+00  1.0175162662030868e+00 -7.9924579577098406e-02 0.0000000000000000e+00  1.0156167052161627e+00 -7.4270499752429914e-02 0.0000000000000000e+00  1.0137578738100765e+00 -6.8733264033093544e-02 0.0000000000000000e+00  1.0119410246839593e+00 -6.3322550427133389e-02 0.0000000000000000e+00  1.0101687610320560e+00 -5.8045592778223354e-02 0.0000000000000000e+00  1.0084426806027447e+00 -5.2911770590609863e-02 0.0000000000000000e+00  1.0067657402972903e+00 -4.7928356786662900e-02 0.0000000000000000e+00  1.0051396750609169e+00 -4.3104733168408772e-02 0.0000000000000000e+00  1.0035676360102155e+00 -3.8448305943604918e-02 0.0000000000000000e+00  1.0020513508534843e+00 -3.3968378613699002e-02 0.0000000000000000e+00  1.0005940311660881e+00 -2.9672297805980009e-02 0.0000000000000000e+00  9.9919725531897119e-01 -2.5568983387098104e-02 0.0000000000000000e+00  9.9786414820752267e-01 -2.1665340277007377e-02 0.0000000000000000e+00  9.9659597534517885e-01 -1.7969438998430644e-02 0.0000000000000000e+00  9.9539560162740237e-01 -1.4487218902320473e-02 0.0000000000000000e+00  9.9426379087207595e-01 -1.1225317833052693e-02 0.0000000000000000e+00  9.9320295193935348e-01 -8.1880899099032525e-03 0.0000000000000000e+00  9.9221314325960730e-01 -5.3800944085500438e-03 0.0000000000000000e+00  9.9129611572342347e-01 -2.8034524570007603e-03 0.0000000000000000e+00  9.9045102684878250e-01 -4.6001860156922805e-04 0.0000000000000000e+00  9.8967879010022441e-01 1.6508981499330393e-03 0.0000000000000000e+00  9.8897750765606596e-01 3.5306452892950729e-03 0.0000000000000000e+00  9.8834713438710842e-01 5.1831189241348047e-03 0.0000000000000000e+00  9.8778464062632421e-01 6.6131173640920585e-03 0.0000000000000000e+00  9.8728899500257439e-01 7.8278343605886411e-03 0.0000000000000000e+00  9.8685606831572792e-01 8.8354195569504759e-03 0.0000000000000000e+00  9.8648393240793497e-01 9.6460801862255467e-03 0.0000000000000000e+00  9.8616751321679830e-01 1.0270826003836612e-02 0.0000000000000000e+00  9.8590419366502458e-01 1.0722212593151386e-02 0.0000000000000000e+00  9.8568821951109620e-01 1.1013266745504091e-02 0.0000000000000000e+00  9.8551658488847882e-01 1.1157930260588552e-02 0.0000000000000000e+00  9.8538319101679483e-01 1.1170177536287438e-02 0.0000000000000000e+00  9.8528498611091164e-01 1.1064236172395320e-02 0.0000000000000000e+00  9.8521587664858423e-01 1.0853914416899634e-02 0.0000000000000000e+00  9.8517309078181459e-01 1.0552678068926432e-02 0.0000000000000000e+00  9.8515084570689815e-01 1.0173198158255693e-02 0.0000000000000000e+00  9.8514690560823215e-01 9.7273522368774238e-03 0.0000000000000000e+00  9.8515601590658430e-01 9.2259849962827798e-03 0.0000000000000000e+00  9.8517663152387780e-01 8.6788813878429950e-03 0.0000000000000000e+00  9.8520413717025457e-01 8.0947119638614378e-03 0.0000000000000000e+00  9.8523772685633260e-01 7.4810034138472550e-03 0.0000000000000000e+00  9.8527343650725130e-01 6.8442239497334368e-03 0.0000000000000000e+00  9.8531115909371825e-01 6.1897604844993867e-03 0.0000000000000000e+00  9.8534752023718963e-01 5.5220921119694321e-03 0.0000000000000000e+00  9.8538301421790364e-01 4.8447751267280837e-03 0.0000000000000000e+00  9.8541475468169593e-01 4.1606551226621132e-03 0.0000000000000000e+00  9.8544371546423903e-01 3.4718603329519197e-03 0.0000000000000000e+00  9.8546738783744658e-01 2.7800124776229534e-03 0.0000000000000000e+00  9.8548710758624192e-01 2.0862322953250191e-03 0.0000000000000000e+00  9.8550064858566766e-01 1.3913222413678465e-03 0.0000000000000000e+00  9.8550961492720812e-01 6.9579216336017530e-04 0.0000000000000000e+00  9.8551199891647945e-01 -9.0725865642143478e-16 0.0000000000000000e+00  9.8550961492720801e-01 -6.9579216336021314e-04 0.0000000000000000e+00  9.8550064858566733e-01 -1.3913222413698071e-03 0.0000000000000000e+00  9.8548710758624158e-01 -2.0862322953256506e-03 0.0000000000000000e+00  9.8546738783744614e-01 -2.7800124776239566e-03 0.0000000000000000e+00  9.8544371546423859e-01 -3.4718603329529159e-03 0.0000000000000000e+00  9.8541475468169548e-01 -4.1606551226629658e-03 0.0000000000000000e+00  9.8538301421790342e-01 -4.8447751267289060e-03 0.0000000000000000e+00  9.8534752023718930e-01 -5.5220921119700670e-03 0.0000000000000000e+00  9.8531115909371847e-01 -6.1897604844998134e-03 0.0000000000000000e+00  9.8527343650725108e-01 -6.8442239497333327e-03 0.0000000000000000e+00  9.8523772685633249e-01 -7.4810034138480044e-03 0.0000000000000000e+00  9.8520413717025412e-01 -8.0947119638611533e-03 0.0000000000000000e+00  9.8517663152387769e-01 -8.6788813878428770e-03 0.0000000000000000e+00  9.8515601590658386e-01 -9.2259849962822958e-03 0.0000000000000000e+00  9.8514690560823204e-01 -9.7273522368762147e-03 0.0000000000000000e+00  9.8515084570689782e-01 -1.0173198158254793e-02 0.0000000000000000e+00  9.8517309078181448e-01 -1.0552678068925367e-02 0.0000000000000000e+00  9.8521587664858379e-01 -1.0853914416898983e-02 0.0000000000000000e+00  9.8528498611091164e-01 -1.1064236172393941e-02 0.0000000000000000e+00  9.8538319101679461e-01 -1.1170177536286711e-02 0.0000000000000000e+00  9.8551658488847871e-01 -1.1157930260587366e-02 0.0000000000000000e+00  9.8568821951109575e-01 -1.1013266745502823e-02 0.0000000000000000e+00  9.8590419366502402e-01 -1.0722212593150662e-02 0.0000000000000000e+00  9.8616751321679774e-01 -1.0270826003836284e-02 0.0000000000000000e+00  9.8648393240793419e-01 -9.6460801862252726e-03 0.0000000000000000e+00  9.8685606831572736e-01 -8.8354195569503684e-03 0.0000000000000000e+00  9.8728899500257361e-01 -7.8278343605890487e-03 0.0000000000000000e+00  9.8778464062632376e-01 -6.6131173640920611e-03 0.0000000000000000e+00  9.8834713438710786e-01 -5.1831189241356582e-03 0.0000000000000000e+00  9.8897750765606574e-01 -3.5306452892956085e-03 0.0000000000000000e+00  9.8967879010022408e-01 -1.6508981499344553e-03 0.0000000000000000e+00  9.9045102684878239e-01 4.6001860156854408e-04 0.0000000000000000e+00  9.9129611572342335e-01 2.8034524569982349e-03 0.0000000000000000e+00  9.9221314325960741e-01 5.3800944085503422e-03 0.0000000000000000e+00  9.9320295193935315e-01 8.1880899099003902e-03 0.0000000000000000e+00  9.9426379087207639e-01 1.1225317833052384e-02 0.0000000000000000e+00  9.9539560162740215e-01 1.4487218902318492e-02 0.0000000000000000e+00  9.9659597534517952e-01 1.7969438998430523e-02 0.0000000000000000e+00  9.9786414820752234e-01 2.1665340277003932e-02 0.0000000000000000e+00  9.9919725531897163e-01 2.5568983387098006e-02 0.0000000000000000e+00  1.0005940311660877e+00 2.9672297805978971e-02 0.0000000000000000e+00  1.0020513508534850e+00 3.3968378613700341e-02 0.0000000000000000e+00  1.0035676360102153e+00 3.8448305943604238e-02 0.0000000000000000e+00  1.0051396750609169e+00 4.3104733168410091e-02 0.0000000000000000e+00  1.0067657402972900e+00 4.7928356786662914e-02 0.0000000000000000e+00  1.0084426806027453e+00 5.2911770590610196e-02 0.0000000000000000e+00  1.0101687610320556e+00 5.8045592778222986e-02 0.0000000000000000e+00  1.0119410246839593e+00 6.3322550427133431e-02 0.0000000000000000e+00  1.0137578738100761e+00 6.8733264033092531e-02 0.0000000000000000e+00  1.0156167052161627e+00 7.4270499752429608e-02 0.0000000000000000e+00  1.0175162662030863e+00 7.9924579577096616e-02 0.0000000000000000e+00  1.0194545870519129e+00 8.5687674817637699e-02 0.0000000000000000e+00  1.0214311768981525e+00 9.1548720674452341e-02 0.0000000000000000e+00  1.0234453242559949e+00 9.7497473741507440e-02 0.0000000000000000e+00  1.0254982728800786e+00 1.0351858624880463e-01 0.0000000000000000e+00  1.0275920759389681e+00 1.0959479595212186e-01 0.0000000000000000e+00  1.0297320690214713e+00 1.1569928059236800e-01 0.0000000000000000e+00  1.0319267333223177e+00 1.2179652676012405e-01 0.0000000000000000e+00  1.0341911898504621e+00 1.2783085710933054e-01 0.0000000000000000e+00  1.0365491292880595e+00 1.3372170789475712e-01 0.0000000000000000e+00  1.0390389147104970e+00 1.3934363460010005e-01 0.0000000000000000e+00  1.0417198083662673e+00 1.4450924031905268e-01 0.0000000000000000e+00  1.0446836983832186e+00 1.4893178488528366e-01 0.0000000000000000e+00  1.0480691887213902e+00 1.5218527555512401e-01 0.0000000000000000e+00  1.0520821190253880e+00 1.5364098458129788e-01 0.0000000000000000e+00  1.0570174129857017e+00 1.5240658878349986e-01 0.0000000000000000e+00  1.0632786838454888e+00 1.4726905582270333e-01 0.0000000000000000e+00  1.0713770758504300e+00 1.3671054236172395e-01 0.0000000000000000e+00  1.0818839351801208e+00 1.1906242900466825e-01 0.0000000000000000e+00  1.0953026421342325e+00 9.2911663782883874e-02 0.0000000000000000e+00  1.1118542519364720e+00 5.7748641437822990e-02 0.0000000000000000e+00  1.1312418858524445e+00 1.4652867795702544e-02 0.0000000000000000e+00  1.1525448736305439e+00 -3.3464894548844985e-02 0.0000000000000000e+00  1.1743750458425422e+00 -8.2416058857908078e-02 0.0000000000000000e+00  1.1952590553492004e+00 -1.2792353696818595e-01 0.0000000000000000e+00  1.2140334778774391e+00 -1.6675338139459453e-01 0.0000000000000000e+00  1.2300506877721171e+00 -1.9723818348529695e-01 0.0000000000000000e+00  1.2431599366790482e+00 -2.1913581634557341e-01 0.0000000000000000e+00  1.2535583474191823e+00 -2.3315844000644609e-01 0.0000000000000000e+00  1.2616226697540922e+00 -2.4047499644377188e-01 0.0000000000000000e+00  1.2677806830605951e+00 -2.4235798970004310e-01 0.0000000000000000e+00  1.2724361816266567e+00 -2.3997961372582163e-01 0.0000000000000000e+00  1.2759346887258991e+00 -2.3433167414568393e-01 0.0000000000000000e+00  1.2785558447422707e+00 -2.2620774525899981e-01 0.0000000000000000e+00  1.2805176189397041e+00 -2.1622504614888619e-01 0.0000000000000000e+00  1.2819866529405004e+00 -2.0485172327014903e-01 0.0000000000000000e+00  1.2830881087940214e+00 -1.9244081463520549e-01 0.0000000000000000e+00  1.2839157394832414e+00 -1.7925465827569467e-01 0.0000000000000000e+00  1.2845389043642257e+00 -1.6548953285999668e-01 0.0000000000000000e+00  1.2850093481847460e+00 -1.5129034900277469e-01 0.0000000000000000e+00  1.2853650569599764e+00 -1.3676592077017505e-01 0.0000000000000000e+00  1.2856344930584200e+00 -1.2199660357327993e-01 0.0000000000000000e+00  1.2858383645596796e+00 -1.0704343332757509e-01 0.0000000000000000e+00  1.2859923335234378e+00 -9.1951756678051541e-02 0.0000000000000000e+00  1.2861075736934586e+00 -7.6756727560254479e-02 0.0000000000000000e+00  1.2861926288486711e+00 -6.1484919980359029e-02 0.0000000000000000e+00  1.2862532898253831e+00 -4.6157672359255261e-02 0.0000000000000000e+00  1.2862939842153542e+00 -3.0791831921644253e-02 0.0000000000000000e+00  1.2863172653661474e+00 -1.5401787505724143e-02 0.0000000000000000e+00  1.2863249293872221e+00 0.0000000000000000e+00 0.0000000000000000e+00  </DataArray> 
</PointData> 
</Piece>
</UnstructuredGrid>
</VTKFile>