<?xml version="1.0"?>
<VTKFile type="UnstructuredGrid"  version="0.1"  >
<UnstructuredGrid>
<Piece  NumberOfPoints="201" NumberOfCells="200">
<Points>
<DataArray  type="Float64"  NumberOfComponents="3"  format="ascii">-5 0 0  -4.95 0 0  -4.9 0 0  -4.85 0 0  -4.8 0 0  -4.75 0 0  -4.7 0 0  -4.65 0 0  -4.6 0 0  -4.55 0 0  -4.5 0 0  -4.45 0 0  -4.4 0 0  -4.35 0 0  -4.3 0 0  -4.25 0 0  -4.2 0 0  -4.15 0 0  -4.1 0 0  -4.05 0 0  -4 0 0  -3.95 0 0  -3.9 0 0  -3.85 0 0  -3.8 0 0  -3.75 0 0  -3.7 0 0  -3.65 0 0  -3.6 0 0  -3.55 0 0  -3.5 0 0  -3.45 0 0  -3.4 0 0  -3.35 0 0  -3.3 0 0  -3.25 0 0  -3.2 0 0  -3.15 0 0  -3.1 0 0  -3.05 0 0  -3 0 0  -2.95 0 0  -2.9 0 0  -2.85 0 0  -2.8 0 0  -2.75 0 0  -2.7 0 0  -2.65 0 0  -2.6 0 0  -2.55 0 0  -2.5 0 0  -2.45 0 0  -2.4 0 0  -2.35 0 0  -2.3 0 0  -2.25 0 0  -2.2 0 0  -2.15 0 0  -2.1 0 0  -2.05 0 0  -2 0 0  -1.95 0 0  -1.9 0 0  -1.85 0 0  -1.8 0 0  -1.75 0 0  -1.7 0 0  -1.65 0 0  -1.6 0 0  -1.55 0 0  -1.5 0 0  -1.45 0 0  -1.4 0 0  -1.35 0 0  -1.3 0 0  -1.25 0 0  -1.2 0 0  -1.15 0 0  -1.1 0 0  -1.05 0 0  -1 0 0  -0.9500000000000002 0 0  -0.9000000000000004 0 0  -0.8499999999999996 0 0  -0.7999999999999998 0 0  -0.75 0 0  -0.7000000000000002 0 0  -0.6500000000000004 0 0  -0.5999999999999996 0 0  -0.5499999999999998 0 0  -0.5 0 0  -0.4500000000000002 0 0  -0.4000000000000004 0 0  -0.3499999999999996 0 0  -0.2999999999999998 0 0  -0.25 0 0  -0.2000000000000002 0 0  -0.1500000000000004 0 0  -0.09999999999999964 0 0  -0.04999999999999982 0 0  0 0 0  0.04999999999999982 0 0  0.09999999999999964 0 0  0.1500000000000004 0 0  0.2000000000000002 0 0  0.25 0 0  0.2999999999999998 0 0  0.3499999999999996 0 0  0.4000000000000004 0 0  0.4500000000000002 0 0  0.5 0 0  0.5499999999999998 0 0  0.5999999999999996 0 0  0.6500000000000004 0 0  0.7000000000000002 0 0  0.75 0 0  0.7999999999999998 0 0  0.8499999999999996 0 0  0.9000000000000004 0 0  0.9500000000000002 0 0  1 0 0  1.05 0 0  1.1 0 0  1.15 0 0  1.2 0 0  1.25 0 0  1.3 0 0  1.35 0 0  1.4 0 0  1.45 0 0  1.5 0 0  1.55 0 0  1.6 0 0  1.65 0 0  1.7 0 0  1.75 0 0  1.8 0 0  1.85 0 0  1.9 0 0  1.95 0 0  2 0 0  2.05 0 0  2.1 0 0  2.15 0 0  2.2 0 0  2.25 0 0  2.3 0 0  2.35 0 0  2.4 0 0  2.45 0 0  2.5 0 0  2.55 0 0  2.6 0 0  2.65 0 0  2.7 0 0  2.75 0 0  2.8 0 0  2.85 0 0  2.9 0 0  2.95 0 0  3 0 0  3.050000000000001 0 0  3.1 0 0  3.15 0 0  3.199999999999999 0 0  3.25 0 0  3.300000000000001 0 0  3.35 0 0  3.4 0 0  3.449999999999999 0 0  3.5 0 0  3.550000000000001 0 0  3.6 0 0  3.65 0 0  3.699999999999999 0 0  3.75 0 0  3.800000000000001 0 0  3.85 0 0  3.9 0 0  3.949999999999999 0 0  4 0 0  4.050000000000001 0 0  4.1 0 0  4.15 0 0  4.199999999999999 0 0  4.25 0 0  4.300000000000001 0 0  4.35 0 0  4.4 0 0  4.449999999999999 0 0  4.5 0 0  4.550000000000001 0 0  4.6 0 0  4.65 0 0  4.699999999999999 0 0  4.75 0 0  4.800000000000001 0 0  4.85 0 0  4.9 0 0  4.949999999999999 0 0  5 0 0  </DataArray>
</Points>
<Cells>
<DataArray  type="UInt32"  Name="connectivity"  format="ascii">0 1  1 2  2 3  3 4  4 5  5 6  6 7  7 8  8 9  9 10  10 11  11 12  12 13  13 14  14 15  15 16  16 17  17 18  18 19  19 20  20 21  21 22  22 23  23 24  24 25  25 26  26 27  27 28  28 29  29 30  30 31  31 32  32 33  33 34  34 35  35 36  36 37  37 38  38 39  39 40  40 41  41 42  42 43  43 44  44 45  45 46  46 47  47 48  48 49  49 50  50 51  51 52  52 53  53 54  54 55  55 56  56 57  57 58  58 59  59 60  60 61  61 62  62 63  63 64  64 65  65 66  66 67  67 68  68 69  69 70  70 71  71 72  72 73  73 74  74 75  75 76  76 77  77 78  78 79  79 80  80 81  81 82  82 83  83 84  84 85  85 86  86 87  87 88  88 89  89 90  90 91  91 92  92 93  93 94  94 95  95 96  96 97  97 98  98 99  99 100  100 101  101 102  102 103  103 104  104 105  105 106  106 107  107 108  108 109  109 110  110 111  111 112  112 113  113 114  114 115  115 116  116 117  117 118  118 119  119 120  120 121  121 122  122 123  123 124  124 125  125 126  126 127  127 128  128 129  129 130  130 131  131 132  132 133  133 134  134 135  135 136  136 137  137 138  138 139  139 140  140 141  141 142  142 143  143 144  144 145  145 146  146 147  147 148  148 149  149 150  150 151  151 152  152 153  153 154  154 155  155 156  156 157  157 158  158 159  159 160  160 161  161 162  162 163  163 164  164 165  165 166  166 167  167 168  168 169  169 170  170 171  171 172  172 173  173 174  174 175  175 176  176 177  177 178  178 179  179 180  180 181  181 182  182 183  183 184  184 185  185 186  186 187  187 188  188 189  189 190  190 191  191 192  192 193  193 194  194 195  195 196  196 197  197 198  198 199  199 200  </DataArray>
<DataArray  type="UInt32"  Name="offsets"  format="ascii">2 4 6 8 10 12 14 16 18 20 22 24 26 28 30 32 34 36 38 40 42 44 46 48 50 52 54 56 58 60 62 64 66 68 70 72 74 76 78 80 82 84 86 88 90 92 94 96 98 100 102 104 106 108 110 112 114 116 118 120 122 124 126 128 130 132 134 136 138 140 142 144 146 148 150 152 154 156 158 160 162 164 166 168 170 172 174 176 178 180 182 184 186 188 190 192 194 196 198 200 202 204 206 208 210 212 214 216 218 220 222 224 226 228 230 232 234 236 238 240 242 244 246 248 250 252 254 256 258 260 262 264 266 268 270 272 274 276 278 280 282 284 286 288 290 292 294 296 298 300 302 304 306 308 310 312 314 316 318 320 322 324 326 328 330 332 334 336 338 340 342 344 346 348 350 352 354 356 358 360 362 364 366 368 370 372 374 376 378 380 382 384 386 388 390 392 394 396 398 400 </DataArray>
<DataArray  type="UInt8"  Name="types"  format="ascii">3 3 3 3 3 3 3 3 3 3 3 3 3 3 3 3 3 3 3 3 3 3 3 3 3 3 3 3 3 3 3 3 3 3 3 3 3 3 3 3 3 3 3 3 3 3 3 3 3 3 3 3 3 3 3 3 3 3 3 3 3 3 3 3 3 3 3 3 3 3 3 3 3 3 3 3 3 3 3 3 3 3 3 3 3 3 3 3 3 3 3 3 3 3 3 3 3 3 3 3 3 3 3 3 3 3 3 3 3 3 3 3 3 3 3 3 3 3 3 3 3 3 3 3 3 3 3 3 3 3 3 3 3 3 3 3 3 3 3 3 3 3 3 3 3 3 3 3 3 3 3 3 3 3 3 3 3 3 3 3 3 3 3 3 3 3 3 3 3 3 3 3 3 3 3 3 3 3 3 3 3 3 3 3 3 3 3 3 3 3 3 3 3 3 3 3 3 3 3 3 </DataArray>
</Cells>
<PointData  Vectors="(h, u)"> 
<DataArray  type="Float64"  Name="(h, u)"  NumberOfComponents="3" format="ascii">9.8679774709504697e-01 0.0000000000000000e+00 0.0000000000000000e+00  9.8679528758807322e-01 -6.4257938212843415e-04 0.0000000000000000e+00  9.8678593322867647e-01 -1.2859736881095003e-03 0.0000000000000000e+00  9.8677163731541917e-01 -1.9308256694343551e-03 0.0000000000000000e+00  9.8675040525807634e-01 -2.5781160864164808e-03 0.0000000000000000e+00  9.8672416891662873e-01 -3.2283080680000900e-03 0.0000000000000000e+00  9.8669092476810594e-01 -3.8825268468512847e-03 0.0000000000000000e+00  9.8665259255569182e-01 -4.5410286111024264e-03 0.0000000000000000e+00  9.8660718171365291e-01 -5.2050229404962695e-03 0.0000000000000000e+00  9.8655662645746001e-01 -5.8744801382472761e-03 0.0000000000000000e+00  9.8649899598106883e-01 -6.5505533439128147e-03 0.0000000000000000e+00  9.8643629988002646e-01 -7.2327413295968559e-03 0.0000000000000000e+00  9.8636676067277029e-01 -7.9218502488684218e-03 0.0000000000000000e+00  9.8629258507243722e-01 -8.6165307000155480e-03 0.0000000000000000e+00  9.8621231988482183e-01 -9.3167051046036068e-03 0.0000000000000000e+00  9.8612858444838103e-01 -1.0019503786298942e-02 0.0000000000000000e+00  9.8604053054083884e-01 -1.0723080765145165e-02 0.0000000000000000e+00  9.8595152642625095e-01 -1.1421992704198965e-02 0.0000000000000000e+00  9.8586173486407114e-01 -1.2111343653813063e-02 0.0000000000000000e+00  9.8577572673392200e-01 -1.2781692201170305e-02 0.0000000000000000e+00  9.8569517657691041e-01 -1.3423510848713132e-02 0.0000000000000000e+00  9.8562636361560951e-01 -1.4021771022351847e-02 0.0000000000000000e+00  9.8557296412184592e-01 -1.4560767041647387e-02 0.0000000000000000e+00  9.8554337607446785e-01 -1.5018596197725300e-02 0.0000000000000000e+00  9.8554357211793453e-01 -1.5372448802749876e-02 0.0000000000000000e+00  9.8558417455871605e-01 -1.5593228813675203e-02 0.0000000000000000e+00  9.8567333697669524e-01 -1.5651401685786638e-02 0.0000000000000000e+00  9.8582351320107375e-01 -1.5511943886177600e-02 0.0000000000000000e+00  9.8604436996531264e-01 -1.5140735990888299e-02 0.0000000000000000e+00  9.8634923948262176e-01 -1.4499878145477691e-02 0.0000000000000000e+00  9.8674812202553874e-01 -1.3554440957681706e-02 0.0000000000000000e+00  9.8725386784437374e-01 -1.2267998299438280e-02 0.0000000000000000e+00  9.8787537893262034e-01 -1.0609392594821531e-02 0.0000000000000000e+00  9.8862359944059319e-01 -8.5482218540369158e-03 0.0000000000000000e+00  9.8950503888421426e-01 -6.0612393796020360e-03 0.0000000000000000e+00  9.9052763829081802e-01 -3.1275626500924633e-03 0.0000000000000000e+00  9.9169470372449864e-01 2.6555982949222681e-04 0.0000000000000000e+00  9.9301066519649528e-01 4.1278950890741642e-03 0.0000000000000000e+00  9.9447545080886779e-01 8.4611645842978221e-03 0.0000000000000000e+00  9.9609009761423362e-01 1.3264442035081670e-02 0.0000000000000000e+00  9.9785154618775695e-01 1.8529702589067519e-02 0.0000000000000000e+00  9.9975802646860534e-01 2.4247254988244236e-02 0.0000000000000000e+00  1.0018042307048756e+00 3.0401730572355228e-02 0.0000000000000000e+00  1.0039863923368697e+00 3.6977320013734674e-02 0.0000000000000000e+00  1.0062978010302730e+00 4.3954047601018641e-02 0.0000000000000000e+00  1.0087335097329240e+00 5.1312640587151841e-02 0.0000000000000000e+00  1.0112861752061377e+00 5.9030996551495553e-02 0.0000000000000000e+00  1.0139503524477991e+00 6.7088592880175782e-02 0.0000000000000000e+00  1.0167186641171571e+00 7.5463119426994199e-02 0.0000000000000000e+00  1.0195856618664305e+00 8.4134401870291683e-02 0.0000000000000000e+00  1.0225443412033948e+00 9.3081215088648792e-02 0.0000000000000000e+00  1.0255895621719244e+00 1.0228473490861913e-01 0.0000000000000000e+00  1.0287149314837631e+00 1.1172556623149446e-01 0.0000000000000000e+00  1.0319157813805344e+00 1.2138675612084759e-01 0.0000000000000000e+00  1.0351864403119864e+00 1.3125107138183942e-01 0.0000000000000000e+00  1.0385227712765315e+00 1.4130361049057916e-01 0.0000000000000000e+00  1.0419198484617482e+00 1.5152935631013389e-01 0.0000000000000000e+00  1.0453740572472616e+00 1.6191542270334028e-01 0.0000000000000000e+00  1.0488811889482679e+00 1.7244889547605066e-01 0.0000000000000000e+00  1.0524381054901837e+00 1.8311874649129739e-01 0.0000000000000000e+00  1.0560412588029262e+00 1.9391396307167025e-01 0.0000000000000000e+00  1.0596879247180768e+00 2.0482516020164421e-01 0.0000000000000000e+00  1.0633751482341698e+00 2.1584298660292361e-01 0.0000000000000000e+00  1.0671005538399139e+00 2.2695946420139540e-01 0.0000000000000000e+00  1.0708617133421920e+00 2.3816664721961711e-01 0.0000000000000000e+00  1.0746565441390410e+00 2.4945771523836990e-01 0.0000000000000000e+00  1.0784830938094856e+00 2.6082584650576046e-01 0.0000000000000000e+00  1.0823395456630780e+00 2.7226507978745251e-01 0.0000000000000000e+00  1.0862244175422580e+00 2.8376933403448157e-01 0.0000000000000000e+00  1.0901362112797632e+00 2.9533301526095346e-01 0.0000000000000000e+00  1.0940740432957752e+00 3.0695003966651840e-01 0.0000000000000000e+00  1.0980370201077854e+00 3.1861403846390879e-01 0.0000000000000000e+00  1.1020253882463873e+00 3.3031702521260331e-01 0.0000000000000000e+00  1.1060398475894246e+00 3.4204867968338409e-01 0.0000000000000000e+00  1.1100835239242179e+00 3.5379366435957088e-01 0.0000000000000000e+00  1.1141618084143547e+00 3.6552837602933858e-01 0.0000000000000000e+00  1.1182860929194154e+00 3.7721406705255939e-01 0.0000000000000000e+00  1.1224758069236482e+00 3.8878631844630207e-01 0.0000000000000000e+00  1.1267666670372509e+00 4.0013589930027216e-01 0.0000000000000000e+00  1.1312195648271008e+00 4.1107764555560333e-01 0.0000000000000000e+00  1.1359408173047736e+00 4.2129747649692939e-01 0.0000000000000000e+00  1.1411095775443090e+00 4.3026753592746020e-01 0.0000000000000000e+00  1.1470264343014316e+00 4.3711337028522196e-01 0.0000000000000000e+00  1.1541774989229772e+00 4.4042637022787773e-01 0.0000000000000000e+00  1.1633166981782408e+00 4.3804349835679041e-01 0.0000000000000000e+00  1.1755174952981553e+00 4.2691493101600997e-01 0.0000000000000000e+00  1.1921023114623823e+00 4.0335971106643070e-01 0.0000000000000000e+00  1.2142766154977891e+00 3.6417095397222388e-01 0.0000000000000000e+00  1.2424091993935242e+00 3.0870870238795739e-01 0.0000000000000000e+00  1.2752864629875065e+00 2.4089564029999261e-01 0.0000000000000000e+00  1.3100961262112423e+00 1.6896163253377466e-01 0.0000000000000000e+00  1.3434546186744272e+00 1.0226185030526456e-01 0.0000000000000000e+00  1.3727371465421003e+00 4.7596815814749262e-02 0.0000000000000000e+00  1.3967064774178772e+00 7.7455695478976724e-03 0.0000000000000000e+00  1.4153218797753639e+00 -1.7744148045737110e-02 0.0000000000000000e+00  1.4292120427736568e+00 -3.1031549025676484e-02 0.0000000000000000e+00  1.4392256245018729e+00 -3.4785105824742077e-02 0.0000000000000000e+00  1.4461643158862927e+00 -3.1544198663074320e-02 0.0000000000000000e+00  1.4506717748476048e+00 -2.3493339812775089e-02 0.0000000000000000e+00  1.4531997287048073e+00 -1.2458378704605868e-02 0.0000000000000000e+00  1.4540136818953568e+00 -6.2049307316484664e-16 0.0000000000000000e+00  1.4531997287048071e+00 1.2458378704603035e-02 0.0000000000000000e+00  1.4506717748476046e+00 2.3493339812774711e-02 0.0000000000000000e+00  1.4461643158862922e+00 3.1544198663072315e-02 0.0000000000000000e+00  1.4392256245018731e+00 3.4785105824741584e-02 0.0000000000000000e+00  1.4292120427736563e+00 3.1031549025675714e-02 0.0000000000000000e+00  1.4153218797753646e+00 1.7744148045737571e-02 0.0000000000000000e+00  1.3967064774178770e+00 -7.7455695478967201e-03 0.0000000000000000e+00  1.3727371465421014e+00 -4.7596815814747867e-02 0.0000000000000000e+00  1.3434546186744278e+00 -1.0226185030526205e-01 0.0000000000000000e+00  1.3100961262112434e+00 -1.6896163253377330e-01 0.0000000000000000e+00  1.2752864629875069e+00 -2.4089564029998967e-01 0.0000000000000000e+00  1.2424091993935251e+00 -3.0870870238795611e-01 0.0000000000000000e+00  1.2142766154977891e+00 -3.6417095397222149e-01 0.0000000000000000e+00  1.1921023114623830e+00 -4.0335971106642932e-01 0.0000000000000000e+00  1.1755174952981553e+00 -4.2691493101600825e-01 0.0000000000000000e+00  1.1633166981782410e+00 -4.3804349835679018e-01 0.0000000000000000e+00  1.1541774989229767e+00 -4.4042637022787762e-01 0.0000000000000000e+00  1.1470264343014314e+00 -4.3711337028522318e-01 0.0000000000000000e+00  1.1411095775443092e+00 -4.3026753592746048e-01 0.0000000000000000e+00  1.1359408173047738e+00 -4.2129747649692983e-01 0.0000000000000000e+00  1.1312195648271008e+00 -4.1107764555560389e-01 0.0000000000000000e+00  1.1267666670372509e+00 -4.0013589930027288e-01 0.0000000000000000e+00  1.1224758069236480e+00 -3.8878631844630279e-01 0.0000000000000000e+00  1.1182860929194154e+00 -3.7721406705256083e-01 0.0000000000000000e+00  1.1141618084143545e+00 -3.6552837602933996e-01 0.0000000000000000e+00  1.1100835239242184e+00 -3.5379366435957171e-01 0.0000000000000000e+00  1.1060398475894244e+00 -3.4204867968338698e-01 0.0000000000000000e+00  1.1020253882463877e+00 -3.3031702521260503e-01 0.0000000000000000e+00  1.0980370201077851e+00 -3.1861403846391184e-01 0.0000000000000000e+00  1.0940740432957756e+00 -3.0695003966651996e-01 0.0000000000000000e+00  1.0901362112797628e+00 -2.9533301526095534e-01 0.0000000000000000e+00  1.0862244175422580e+00 -2.8376933403448357e-01 0.0000000000000000e+00  1.0823395456630776e+00 -2.7226507978745357e-01 0.0000000000000000e+00  1.0784830938094858e+00 -2.6082584650576085e-01 0.0000000000000000e+00  1.0746565441390410e+00 -2.4945771523837124e-01 0.0000000000000000e+00  1.0708617133421927e+00 -2.3816664721961806e-01 0.0000000000000000e+00  1.0671005538399139e+00 -2.2695946420139648e-01 0.0000000000000000e+00  1.0633751482341707e+00 -2.1584298660292389e-01 0.0000000000000000e+00  1.0596879247180768e+00 -2.0482516020164435e-01 0.0000000000000000e+00  1.0560412588029273e+00 -1.9391396307166911e-01 0.0000000000000000e+00  1.0524381054901837e+00 -1.8311874649129667e-01 0.0000000000000000e+00  1.0488811889482690e+00 -1.7244889547604958e-01 0.0000000000000000e+00  1.0453740572472614e+00 -1.6191542270333922e-01 0.0000000000000000e+00  1.0419198484617487e+00 -1.5152935631013334e-01 0.0000000000000000e+00  1.0385227712765310e+00 -1.4130361049057885e-01 0.0000000000000000e+00  1.0351864403119866e+00 -1.3125107138183911e-01 0.0000000000000000e+00  1.0319157813805340e+00 -1.2138675612084793e-01 0.0000000000000000e+00  1.0287149314837634e+00 -1.1172556623149578e-01 0.0000000000000000e+00  1.0255895621719242e+00 -1.0228473490861958e-01 0.0000000000000000e+00  1.0225443412033954e+00 -9.3081215088649277e-02 0.0000000000000000e+00  1.0195856618664305e+00 -8.4134401870291281e-02 0.0000000000000000e+00  1.0167186641171577e+00 -7.5463119426994615e-02 0.0000000000000000e+00  1.0139503524477995e+00 -6.7088592880175615e-02 0.0000000000000000e+00  1.0112861752061382e+00 -5.9030996551496059e-02 0.0000000000000000e+00  1.0087335097329246e+00 -5.1312640587151799e-02 0.0000000000000000e+00  1.0062978010302734e+00 -4.3954047601019786e-02 0.0000000000000000e+00  1.0039863923368704e+00 -3.6977320013735583e-02 0.0000000000000000e+00  1.0018042307048760e+00 -3.0401730572355901e-02 0.0000000000000000e+00  9.9975802646860579e-01 -2.4247254988244472e-02 0.0000000000000000e+00  9.9785154618775751e-01 -1.8529702589067509e-02 0.0000000000000000e+00  9.9609009761423406e-01 -1.3264442035081470e-02 0.0000000000000000e+00  9.9447545080886812e-01 -8.4611645842973850e-03 0.0000000000000000e+00  9.9301066519649550e-01 -4.1278950890740965e-03 0.0000000000000000e+00  9.9169470372449897e-01 -2.6555982949174559e-04 0.0000000000000000e+00  9.9052763829081836e-01 3.1275626500927465e-03 0.0000000000000000e+00  9.8950503888421459e-01 6.0612393796018443e-03 0.0000000000000000e+00  9.8862359944059353e-01 8.5482218540367562e-03 0.0000000000000000e+00  9.8787537893262056e-01 1.0609392594821420e-02 0.0000000000000000e+00  9.8725386784437386e-01 1.2267998299438133e-02 0.0000000000000000e+00  9.8674812202553874e-01 1.3554440957681716e-02 0.0000000000000000e+00  9.8634923948262165e-01 1.4499878145478170e-02 0.0000000000000000e+00  9.8604436996531242e-01 1.5140735990888816e-02 0.0000000000000000e+00  9.8582351320107331e-01 1.5511943886177966e-02 0.0000000000000000e+00  9.8567333697669468e-01 1.5651401685786524e-02 0.0000000000000000e+00  9.8558417455871561e-01 1.5593228813674958e-02 0.0000000000000000e+00  9.8554357211793397e-01 1.5372448802749364e-02 0.0000000000000000e+00  9.8554337607446740e-01 1.5018596197725234e-02 0.0000000000000000e+00  9.8557296412184558e-01 1.4560767041646976e-02 0.0000000000000000e+00  9.8562636361560929e-01 1.4021771022352296e-02 0.0000000000000000e+00  9.8569517657691008e-01 1.3423510848712579e-02 0.0000000000000000e+00  9.8577572673392189e-01 1.2781692201170772e-02 0.0000000000000000e+00  9.8586173486407058e-01 1.2111343653811925e-02 0.0000000000000000e+00  9.8595152642625095e-01 1.1421992704198806e-02 0.0000000000000000e+00  9.8604053054083840e-01 1.0723080765144083e-02 0.0000000000000000e+00  9.8612858444838103e-01 1.0019503786299590e-02 0.0000000000000000e+00  9.8621231988482150e-01 9.3167051046034229e-03 0.0000000000000000e+00  9.8629258507243744e-01 8.6165307000162991e-03 0.0000000000000000e+00  9.8636676067277007e-01 7.9218502488680887e-03 0.0000000000000000e+00  9.8643629988002690e-01 7.2327413295975021e-03 0.0000000000000000e+00  9.8649899598106827e-01 6.5505533439131625e-03 0.0000000000000000e+00  9.8655662645746056e-01 5.8744801382471555e-03 0.0000000000000000e+00  9.8660718171365247e-01 5.2050229404961056e-03 0.0000000000000000e+00  9.8665259255569238e-01 4.5410286111018903e-03 0.0000000000000000e+00  9.8669092476810516e-01 3.8825268468506606e-03 0.0000000000000000e+00  9.8672416891662929e-01 3.2283080679988484e-03 0.0000000000000000e+00  9.8675040525807556e-01 2.5781160864155376e-03 0.0000000000000000e+00  9.8677163731541961e-01 1.9308256694330922e-03 0.0000000000000000e+00  9.8678593322867569e-01 1.2859736881096055e-03 0.0000000000000000e+00  9.8679528758807367e-01 6.4257938212814976e-04 0.0000000000000000e+00  9.8679774709504631e-01 0.0000000000000000e+00 0.0000000000000000e+00  </DataArray> 
</PointData> 
</Piece>
</UnstructuredGrid>
</VTKFile>