<?xml version="1.0"?>
<VTKFile type="UnstructuredGrid"  version="0.1"  >
<UnstructuredGrid>
<Piece  NumberOfPoints="201" NumberOfCells="200">
<Points>
<DataArray  type="Float64"  NumberOfComponents="3"  format="ascii">-5 0 0  -4.95 0 0  -4.9 0 0  -4.85 0 0  -4.8 0 0  -4.75 0 0  -4.7 0 0  -4.65 0 0  -4.6 0 0  -4.55 0 0  -4.5 0 0  -4.45 0 0  -4.4 0 0  -4.35 0 0  -4.3 0 0  -4.25 0 0  -4.2 0 0  -4.15 0 0  -4.1 0 0  -4.05 0 0  -4 0 0  -3.95 0 0  -3.9 0 0  -3.85 0 0  -3.8 0 0  -3.75 0 0  -3.7 0 0  -3.65 0 0  -3.6 0 0  -3.55 0 0  -3.5 0 0  -3.45 0 0  -3.4 0 0  -3.35 0 0  -3.3 0 0  -3.25 0 0  -3.2 0 0  -3.15 0 0  -3.1 0 0  -3.05 0 0  -3 0 0  -2.95 0 0  -2.9 0 0  -2.85 0 0  -2.8 0 0  -2.75 0 0  -2.7 0 0  -2.65 0 0  -2.6 0 0  -2.55 0 0  -2.5 0 0  -2.45 0 0  -2.4 0 0  -2.35 0 0  -2.3 0 0  -2.25 0 0  -2.2 0 0  -2.15 0 0  -2.1 0 0  -2.05 0 0  -2 0 0  -1.95 0 0  -1.9 0 0  -1.85 0 0  -1.8 0 0  -1.75 0 0  -1.7 0 0  -1.65 0 0  -1.6 0 0  -1.55 0 0  -1.5 0 0  -1.45 0 0  -1.4 0 0  -1.35 0 0  -1.3 0 0  -1.25 0 0  -1.2 0 0  -1.15 0 0  -1.1 0 0  -1.05 0 0  -1 0 0  -0.9500000000000002 0 0  -0.9000000000000004 0 0  -0.8499999999999996 0 0  -0.7999999999999998 0 0  -0.75 0 0  -0.7000000000000002 0 0  -0.6500000000000004 0 0  -0.5999999999999996 0 0  -0.5499999999999998 0 0  -0.5 0 0  -0.4500000000000002 0 0  -0.4000000000000004 0 0  -0.3499999999999996 0 0  -0.2999999999999998 0 0  -0.25 0 0  -0.2000000000000002 0 0  -0.1500000000000004 0 0  -0.09999999999999964 0 0  -0.04999999999999982 0 0  0 0 0  0.04999999999999982 0 0  0.09999999999999964 0 0  0.1500000000000004 0 0  0.2000000000000002 0 0  0.25 0 0  0.2999999999999998 0 0  0.3499999999999996 0 0  0.4000000000000004 0 0  0.4500000000000002 0 0  0.5 0 0  0.5499999999999998 0 0  0.5999999999999996 0 0  0.6500000000000004 0 0  0.7000000000000002 0 0  0.75 0 0  0.7999999999999998 0 0  0.8499999999999996 0 0  0.9000000000000004 0 0  0.9500000000000002 0 0  1 0 0  1.05 0 0  1.1 0 0  1.15 0 0  1.2 0 0  1.25 0 0  1.3 0 0  1.35 0 0  1.4 0 0  1.45 0 0  1.5 0 0  1.55 0 0  1.6 0 0  1.65 0 0  1.7 0 0  1.75 0 0  1.8 0 0  1.85 0 0  1.9 0 0  1.95 0 0  2 0 0  2.05 0 0  2.1 0 0  2.15 0 0  2.2 0 0  2.25 0 0  2.3 0 0  2.35 0 0  2.4 0 0  2.45 0 0  2.5 0 0  2.55 0 0  2.6 0 0  2.65 0 0  2.7 0 0  2.75 0 0  2.8 0 0  2.85 0 0  2.9 0 0  2.95 0 0  3 0 0  3.050000000000001 0 0  3.1 0 0  3.15 0 0  3.199999999999999 0 0  3.25 0 0  3.300000000000001 0 0  3.35 0 0  3.4 0 0  3.449999999999999 0 0  3.5 0 0  3.550000000000001 0 0  3.6 0 0  3.65 0 0  3.699999999999999 0 0  3.75 0 0  3.800000000000001 0 0  3.85 0 0  3.9 0 0  3.949999999999999 0 0  4 0 0  4.050000000000001 0 0  4.1 0 0  4.15 0 0  4.199999999999999 0 0  4.25 0 0  4.300000000000001 0 0  4.35 0 0  4.4 0 0  4.449999999999999 0 0  4.5 0 0  4.550000000000001 0 0  4.6 0 0  4.65 0 0  4.699999999999999 0 0  4.75 0 0  4.800000000000001 0 0  4.85 0 0  4.9 0 0  4.949999999999999 0 0  5 0 0  </DataArray>
</Points>
<Cells>
<DataArray  type="UInt32"  Name="connectivity"  format="ascii">0 1  1 2  2 3  3 4  4 5  5 6  6 7  7 8  8 9  9 10  10 11  11 12  12 13  13 14  14 15  15 16  16 17  17 18  18 19  19 20  20 21  21 22  22 23  23 24  24 25  25 26  26 27  27 28  28 29  29 30  30 31  31 32  32 33  33 34  34 35  35 36  36 37  37 38  38 39  39 40  40 41  41 42  42 43  43 44  44 45  45 46  46 47  47 48  48 49  49 50  50 51  51 52  52 53  53 54  54 55  55 56  56 57  57 58  58 59  59 60  60 61  61 62  62 63  63 64  64 65  65 66  66 67  67 68  68 69  69 70  70 71  71 72  72 73  73 74  74 75  75 76  76 77  77 78  78 79  79 80  80 81  81 82  82 83  83 84  84 85  85 86  86 87  87 88  88 89  89 90  90 91  91 92  92 93  93 94  94 95  95 96  96 97  97 98  98 99  99 100  100 101  101 102  102 103  103 104  104 105  105 106  106 107  107 108  108 109  109 110  110 111  111 112  112 113  113 114  114 115  115 116  116 117  117 118  118 119  119 120  120 121  121 122  122 123  123 124  124 125  125 126  126 127  127 128  128 129  129 130  130 131  131 132  132 133  133 134  134 135  135 136  136 137  137 138  138 139  139 140  140 141  141 142  142 143  143 144  144 145  145 146  146 147  147 148  148 149  149 150  150 151  151 152  152 153  153 154  154 155  155 156  156 157  157 158  158 159  159 160  160 161  161 162  162 163  163 164  164 165  165 166  166 167  167 168  168 169  169 170  170 171  171 172  172 173  173 174  174 175  175 176  176 177  177 178  178 179  179 180  180 181  181 182  182 183  183 184  184 185  185 186  186 187  187 188  188 189  189 190  190 191  191 192  192 193  193 194  194 195  195 196  196 197  197 198  198 199  199 200  </DataArray>
<DataArray  type="UInt32"  Name="offsets"  format="ascii">2 4 6 8 10 12 14 16 18 20 22 24 26 28 30 32 34 36 38 40 42 44 46 48 50 52 54 56 58 60 62 64 66 68 70 72 74 76 78 80 82 84 86 88 90 92 94 96 98 100 102 104 106 108 110 112 114 116 118 120 122 124 126 128 130 132 134 136 138 140 142 144 146 148 150 152 154 156 158 160 162 164 166 168 170 172 174 176 178 180 182 184 186 188 190 192 194 196 198 200 202 204 206 208 210 212 214 216 218 220 222 224 226 228 230 232 234 236 238 240 242 244 246 248 250 252 254 256 258 260 262 264 266 268 270 272 274 276 278 280 282 284 286 288 290 292 294 296 298 300 302 304 306 308 310 312 314 316 318 320 322 324 326 328 330 332 334 336 338 340 342 344 346 348 350 352 354 356 358 360 362 364 366 368 370 372 374 376 378 380 382 384 386 388 390 392 394 396 398 400 </DataArray>
<DataArray  type="UInt8"  Name="types"  format="ascii">3 3 3 3 3 3 3 3 3 3 3 3 3 3 3 3 3 3 3 3 3 3 3 3 3 3 3 3 3 3 3 3 3 3 3 3 3 3 3 3 3 3 3 3 3 3 3 3 3 3 3 3 3 3 3 3 3 3 3 3 3 3 3 3 3 3 3 3 3 3 3 3 3 3 3 3 3 3 3 3 3 3 3 3 3 3 3 3 3 3 3 3 3 3 3 3 3 3 3 3 3 3 3 3 3 3 3 3 3 3 3 3 3 3 3 3 3 3 3 3 3 3 3 3 3 3 3 3 3 3 3 3 3 3 3 3 3 3 3 3 3 3 3 3 3 3 3 3 3 3 3 3 3 3 3 3 3 3 3 3 3 3 3 3 3 3 3 3 3 3 3 3 3 3 3 3 3 3 3 3 3 3 3 3 3 3 3 3 3 3 3 3 3 3 3 3 3 3 3 3 </DataArray>
</Cells>
<PointData  Vectors="(h, u)"> 
<DataArray  type="Float64"  Name="(h, u)"  NumberOfComponents="3" format="ascii">1.0638952502805963e+00 0.0000000000000000e+00 0.0000000000000000e+00  1.0639140893028574e+00 1.1152071749444631e-02 0.0000000000000000e+00  1.0639700028909109e+00 2.2297103140260427e-02 0.0000000000000000e+00  1.0640638854056741e+00 3.3427808961001254e-02 0.0000000000000000e+00  1.0641954221016607e+00 4.4537320988848800e-02 0.0000000000000000e+00  1.0643657975666978e+00 5.5618040121187963e-02 0.0000000000000000e+00  1.0645749806215750e+00 6.6663202078272574e-02 0.0000000000000000e+00  1.0648244418133319e+00 7.7664836882340715e-02 0.0000000000000000e+00  1.0651144241045947e+00 8.8616229306819880e-02 0.0000000000000000e+00  1.0654466742868436e+00 9.9509002835666452e-02 0.0000000000000000e+00  1.0658216935132676e+00 1.1033645971656396e-01 0.0000000000000000e+00  1.0662414868068186e+00 1.2108981326201186e-01 0.0000000000000000e+00  1.0667067877671366e+00 1.3176238656756120e-01 0.0000000000000000e+00  1.0672198295486024e+00 1.4234502352454559e-01 0.0000000000000000e+00  1.0677815385395437e+00 1.5283111961121459e-01 0.0000000000000000e+00  1.0683943293471567e+00 1.6321124802090173e-01 0.0000000000000000e+00  1.0690592629551843e+00 1.7347899025060240e-01 0.0000000000000000e+00  1.0697788674800774e+00 1.8362481896601002e-01 0.0000000000000000e+00  1.0705542573388103e+00 1.9364269013583138e-01 0.0000000000000000e+00  1.0713879809704316e+00 2.0352322823930102e-01 0.0000000000000000e+00  1.0722810989832909e+00 2.1326103510805663e-01 0.0000000000000000e+00  1.0732360598151065e+00 2.2284722540659924e-01 0.0000000000000000e+00  1.0742537367578233e+00 2.3227739987913482e-01 0.0000000000000000e+00  1.0753363327662586e+00 2.4154357941360988e-01 0.0000000000000000e+00  1.0764843786800637e+00 2.5064278202375811e-01 0.0000000000000000e+00  1.0776996690781431e+00 2.5956840233371581e-01 0.0000000000000000e+00  1.0789822267668780e+00 2.6831932283441118e-01 0.0000000000000000e+00  1.0803332724999801e+00 2.7689078302987918e-01 0.0000000000000000e+00  1.0817521634735727e+00 2.8528394749910063e-01 0.0000000000000000e+00  1.0832394004129668e+00 2.9349630673915394e-01 0.0000000000000000e+00  1.0847935497536911e+00 3.0153161926349004e-01 0.0000000000000000e+00  1.0864142913577892e+00 3.0938988644361887e-01 0.0000000000000000e+00  1.0880993345045404e+00 3.1707758546060105e-01 0.0000000000000000e+00  1.0898475076813532e+00 3.2459726511111670e-01 0.0000000000000000e+00  1.0916556769039458e+00 3.3195799235558759e-01 0.0000000000000000e+00  1.0935218753602816e+00 3.3916462575064132e-01 0.0000000000000000e+00  1.0954422289609649e+00 3.4622841017388661e-01 0.0000000000000000e+00  1.0974141185471462e+00 3.5315599761870131e-01 0.0000000000000000e+00  1.0994331127774404e+00 3.5996013947041011e-01 0.0000000000000000e+00  1.1014961503428848e+00 3.6664853682942128e-01 0.0000000000000000e+00  1.1035984757805923e+00 3.7323459258887198e-01 0.0000000000000000e+00  1.1057368251929833e+00 3.7972618013213372e-01 0.0000000000000000e+00  1.1079063577697958e+00 3.8613642346544119e-01 0.0000000000000000e+00  1.1101038269600279e+00 3.9247247003225022e-01 0.0000000000000000e+00  1.1123244999895552e+00 3.9874626337975594e-01 0.0000000000000000e+00  1.1145652972101114e+00 4.0496339166905865e-01 0.0000000000000000e+00  1.1168216929959256e+00 4.1113380385579223e-01 0.0000000000000000e+00  1.1190908076349733e+00 4.1726078162268865e-01 0.0000000000000000e+00  1.1213682836454764e+00 4.2335152865194692e-01 0.0000000000000000e+00  1.1236513144793596e+00 4.2940628197108704e-01 0.0000000000000000e+00  1.1259354875308223e+00 4.3542867517062667e-01 0.0000000000000000e+00  1.1282177286629367e+00 4.4141496424499888e-01 0.0000000000000000e+00  1.1304930931653512e+00 4.4736402513575246e-01 0.0000000000000000e+00  1.1327575902475298e+00 4.5326661086117331e-01 0.0000000000000000e+00  1.1350048806931523e+00 4.5911477835741388e-01 0.0000000000000000e+00  1.1372289145156902e+00 4.6489099928449568e-01 0.0000000000000000e+00  1.1394204510435819e+00 4.7057669547022191e-01 0.0000000000000000e+00  1.1415693859905705e+00 4.7614086320511251e-01 0.0000000000000000e+00  1.1436609344267152e+00 4.8154719198859436e-01 0.0000000000000000e+00  1.1456774276030213e+00 4.8674158856720978e-01 0.0000000000000000e+00  1.1475938797313479e+00 4.9165701883003465e-01 0.0000000000000000e+00  1.1493788938591241e+00 4.9619890709558673e-01 0.0000000000000000e+00  1.1509891793725273e+00 5.0024639149241001e-01 0.0000000000000000e+00  1.1523690649245049e+00 5.0363413589175376e-01 0.0000000000000000e+00  1.1534434603316588e+00 5.0614842445720520e-01 0.0000000000000000e+00  1.1541155799422513e+00 5.0750411714820765e-01 0.0000000000000000e+00  1.1542583303043799e+00 5.0733523136444514e-01 0.0000000000000000e+00  1.1537110675317623e+00 5.0516898678554734e-01 0.0000000000000000e+00  1.1522719017096501e+00 5.0041732192587618e-01 0.0000000000000000e+00  1.1496988930445113e+00 4.9236265439330618e-01 0.0000000000000000e+00  1.1457132908394212e+00 4.8017810811117739e-01 0.0000000000000000e+00  1.1400214577447569e+00 4.6297144848081973e-01 0.0000000000000000e+00  1.1323518824661847e+00 4.3990141072878824e-01 0.0000000000000000e+00  1.1225230837155959e+00 4.1035896910118175e-01 0.0000000000000000e+00  1.1105291414137841e+00 3.7423616177489544e-01 0.0000000000000000e+00  1.0966332466462470e+00 3.3220681347090242e-01 0.0000000000000000e+00  1.0814172944610809e+00 2.8592102542522224e-01 0.0000000000000000e+00  1.0657461361178278e+00 2.3792794793312338e-01 0.0000000000000000e+00  1.0506123983951585e+00 1.9125085466837902e-01 0.0000000000000000e+00  1.0369138786772185e+00 1.4869764893099777e-01 0.0000000000000000e+00  1.0252540251460980e+00 1.1222864470649946e-01 0.0000000000000000e+00  1.0158641113958187e+00 8.2660110741746132e-02 0.0000000000000000e+00  1.0086504071738960e+00 5.9787857054338978e-02 0.0000000000000000e+00  1.0033185125915256e+00 4.2749301987096644e-02 0.0000000000000000e+00  9.9949540076445598e-01 3.0416131086468231e-02 0.0000000000000000e+00  9.9681870754444735e-01 2.1670277559433199e-02 0.0000000000000000e+00  9.9497842108823287e-01 1.5551822773599724e-02 0.0000000000000000e+00  9.9373186458035945e-01 1.1301282647712617e-02 0.0000000000000000e+00  9.9289714585703215e-01 8.3517115186129177e-03 0.0000000000000000e+00  9.9234439380046557e-01 6.2935291808406601e-03 0.0000000000000000e+00  9.9198154813305028e-01 4.8397726255378221e-03 0.0000000000000000e+00  9.9174608229656680e-01 3.7916524410286550e-03 0.0000000000000000e+00  9.9159453613312332e-01 3.0144134127607957e-03 0.0000000000000000e+00  9.9149854568089268e-01 2.4165489411771489e-03 0.0000000000000000e+00  9.9143825683635489e-01 1.9372587362572334e-03 0.0000000000000000e+00  9.9140139966538643e-01 1.5355608254490442e-03 0.0000000000000000e+00  9.9137901173972676e-01 1.1845495772289545e-03 0.0000000000000000e+00  9.9136614798024059e-01 8.6596336103086599e-04 0.0000000000000000e+00  9.9135878425210311e-01 5.6770488599785954e-04 0.0000000000000000e+00  9.9135533163856182e-01 2.8115518625181730e-04 0.0000000000000000e+00  9.9135412244201182e-01 3.5107023781061231e-16 0.0000000000000000e+00  9.9135533163856171e-01 -2.8115518625153714e-04 0.0000000000000000e+00  9.9135878425210311e-01 -5.6770488599801197e-04 0.0000000000000000e+00  9.9136614798024059e-01 -8.6596336103122063e-04 0.0000000000000000e+00  9.9137901173972665e-01 -1.1845495772298551e-03 0.0000000000000000e+00  9.9140139966538643e-01 -1.5355608254493129e-03 0.0000000000000000e+00  9.9143825683635456e-01 -1.9372587362580095e-03 0.0000000000000000e+00  9.9149854568089268e-01 -2.4165489411769156e-03 0.0000000000000000e+00  9.9159453613312276e-01 -3.0144134127608607e-03 0.0000000000000000e+00  9.9174608229656680e-01 -3.7916524410282794e-03 0.0000000000000000e+00  9.9198154813304973e-01 -4.8397726255372791e-03 0.0000000000000000e+00  9.9234439380046580e-01 -6.2935291808403227e-03 0.0000000000000000e+00  9.9289714585703159e-01 -8.3517115186125881e-03 0.0000000000000000e+00  9.9373186458035967e-01 -1.1301282647713283e-02 0.0000000000000000e+00  9.9497842108823276e-01 -1.5551822773600756e-02 0.0000000000000000e+00  9.9681870754444790e-01 -2.1670277559434126e-02 0.0000000000000000e+00  9.9949540076445587e-01 -3.0416131086468776e-02 0.0000000000000000e+00  1.0033185125915260e+00 -4.2749301987096935e-02 0.0000000000000000e+00  1.0086504071738960e+00 -5.9787857054339054e-02 0.0000000000000000e+00  1.0158641113958193e+00 -8.2660110741746076e-02 0.0000000000000000e+00  1.0252540251460982e+00 -1.1222864470649985e-01 0.0000000000000000e+00  1.0369138786772194e+00 -1.4869764893099852e-01 0.0000000000000000e+00  1.0506123983951590e+00 -1.9125085466837857e-01 0.0000000000000000e+00  1.0657461361178289e+00 -2.3792794793312458e-01 0.0000000000000000e+00  1.0814172944610816e+00 -2.8592102542522363e-01 0.0000000000000000e+00  1.0966332466462481e+00 -3.3220681347090275e-01 0.0000000000000000e+00  1.1105291414137841e+00 -3.7423616177489616e-01 0.0000000000000000e+00  1.1225230837155968e+00 -4.1035896910118186e-01 0.0000000000000000e+00  1.1323518824661847e+00 -4.3990141072878830e-01 0.0000000000000000e+00  1.1400214577447578e+00 -4.6297144848081967e-01 0.0000000000000000e+00  1.1457132908394212e+00 -4.8017810811117684e-01 0.0000000000000000e+00  1.1496988930445120e+00 -4.9236265439330668e-01 0.0000000000000000e+00  1.1522719017096497e+00 -5.0041732192587618e-01 0.0000000000000000e+00  1.1537110675317626e+00 -5.0516898678554867e-01 0.0000000000000000e+00  1.1542583303043794e+00 -5.0733523136444447e-01 0.0000000000000000e+00  1.1541155799422511e+00 -5.0750411714821009e-01 0.0000000000000000e+00  1.1534434603316583e+00 -5.0614842445720498e-01 0.0000000000000000e+00  1.1523690649245051e+00 -5.0363413589175443e-01 0.0000000000000000e+00  1.1509891793725269e+00 -5.0024639149240846e-01 0.0000000000000000e+00  1.1493788938591238e+00 -4.9619890709558745e-01 0.0000000000000000e+00  1.1475938797313472e+00 -4.9165701883003354e-01 0.0000000000000000e+00  1.1456774276030213e+00 -4.8674158856721017e-01 0.0000000000000000e+00  1.1436609344267146e+00 -4.8154719198859258e-01 0.0000000000000000e+00  1.1415693859905702e+00 -4.7614086320511317e-01 0.0000000000000000e+00  1.1394204510435808e+00 -4.7057669547022052e-01 0.0000000000000000e+00  1.1372289145156897e+00 -4.6489099928449640e-01 0.0000000000000000e+00  1.1350048806931514e+00 -4.5911477835741227e-01 0.0000000000000000e+00  1.1327575902475298e+00 -4.5326661086117481e-01 0.0000000000000000e+00  1.1304930931653503e+00 -4.4736402513575013e-01 0.0000000000000000e+00  1.1282177286629367e+00 -4.4141496424500004e-01 0.0000000000000000e+00  1.1259354875308214e+00 -4.3542867517062561e-01 0.0000000000000000e+00  1.1236513144793596e+00 -4.2940628197108927e-01 0.0000000000000000e+00  1.1213682836454757e+00 -4.2335152865194581e-01 0.0000000000000000e+00  1.1190908076349737e+00 -4.1726078162268965e-01 0.0000000000000000e+00  1.1168216929959247e+00 -4.1113380385579096e-01 0.0000000000000000e+00  1.1145652972101117e+00 -4.0496339166906037e-01 0.0000000000000000e+00  1.1123244999895543e+00 -3.9874626337975444e-01 0.0000000000000000e+00  1.1101038269600281e+00 -3.9247247003225066e-01 0.0000000000000000e+00  1.1079063577697954e+00 -3.8613642346543847e-01 0.0000000000000000e+00  1.1057368251929838e+00 -3.7972618013213355e-01 0.0000000000000000e+00  1.1035984757805921e+00 -3.7323459258886915e-01 0.0000000000000000e+00  1.1014961503428848e+00 -3.6664853682941989e-01 0.0000000000000000e+00  1.0994331127774399e+00 -3.5996013947040700e-01 0.0000000000000000e+00  1.0974141185471458e+00 -3.5315599761870214e-01 0.0000000000000000e+00  1.0954422289609644e+00 -3.4622841017388345e-01 0.0000000000000000e+00  1.0935218753602807e+00 -3.3916462575064255e-01 0.0000000000000000e+00  1.0916556769039454e+00 -3.3195799235558571e-01 0.0000000000000000e+00  1.0898475076813523e+00 -3.2459726511111886e-01 0.0000000000000000e+00  1.0880993345045398e+00 -3.1707758546060050e-01 0.0000000000000000e+00  1.0864142913577886e+00 -3.0938988644362192e-01 0.0000000000000000e+00  1.0847935497536907e+00 -3.0153161926348920e-01 0.0000000000000000e+00  1.0832394004129666e+00 -2.9349630673915672e-01 0.0000000000000000e+00  1.0817521634735725e+00 -2.8528394749910108e-01 0.0000000000000000e+00  1.0803332724999799e+00 -2.7689078302988052e-01 0.0000000000000000e+00  1.0789822267668776e+00 -2.6831932283441068e-01 0.0000000000000000e+00  1.0776996690781429e+00 -2.5956840233371675e-01 0.0000000000000000e+00  1.0764843786800629e+00 -2.5064278202375789e-01 0.0000000000000000e+00  1.0753363327662584e+00 -2.4154357941361118e-01 0.0000000000000000e+00  1.0742537367578222e+00 -2.3227739987913393e-01 0.0000000000000000e+00  1.0732360598151067e+00 -2.2284722540660071e-01 0.0000000000000000e+00  1.0722810989832903e+00 -2.1326103510805602e-01 0.0000000000000000e+00  1.0713879809704319e+00 -2.0352322823930175e-01 0.0000000000000000e+00  1.0705542573388098e+00 -1.9364269013582952e-01 0.0000000000000000e+00  1.0697788674800777e+00 -1.8362481896601052e-01 0.0000000000000000e+00  1.0690592629551836e+00 -1.7347899025060171e-01 0.0000000000000000e+00  1.0683943293471572e+00 -1.6321124802090206e-01 0.0000000000000000e+00  1.0677815385395428e+00 -1.5283111961121326e-01 0.0000000000000000e+00  1.0672198295486028e+00 -1.4234502352454559e-01 0.0000000000000000e+00  1.0667067877671357e+00 -1.3176238656756090e-01 0.0000000000000000e+00  1.0662414868068191e+00 -1.2108981326201251e-01 0.0000000000000000e+00  1.0658216935132667e+00 -1.1033645971656429e-01 0.0000000000000000e+00  1.0654466742868440e+00 -9.9509002835668173e-02 0.0000000000000000e+00  1.0651144241045940e+00 -8.8616229306820143e-02 0.0000000000000000e+00  1.0648244418133324e+00 -7.7664836882341950e-02 0.0000000000000000e+00  1.0645749806215741e+00 -6.6663202078272824e-02 0.0000000000000000e+00  1.0643657975666980e+00 -5.5618040121188518e-02 0.0000000000000000e+00  1.0641954221016598e+00 -4.4537320988848168e-02 0.0000000000000000e+00  1.0640638854056743e+00 -3.3427808960999512e-02 0.0000000000000000e+00  1.0639700028909098e+00 -2.2297103140259570e-02 0.0000000000000000e+00  1.0639140893028574e+00 -1.1152071749444556e-02 0.0000000000000000e+00  1.0638952502805952e+00 0.0000000000000000e+00 0.0000000000000000e+00  </DataArray> 
</PointData> 
</Piece>
</UnstructuredGrid>
</VTKFile>