<?xml version="1.0"?>
<VTKFile type="UnstructuredGrid"  version="0.1"  >
<UnstructuredGrid>
<Piece  NumberOfPoints="201" NumberOfCells="200">
<Points>
<DataArray  type="Float64"  NumberOfComponents="3"  format="ascii">-5 0 0  -4.95 0 0  -4.9 0 0  -4.85 0 0  -4.8 0 0  -4.75 0 0  -4.7 0 0  -4.65 0 0  -4.6 0 0  -4.55 0 0  -4.5 0 0  -4.45 0 0  -4.4 0 0  -4.35 0 0  -4.3 0 0  -4.25 0 0  -4.2 0 0  -4.15 0 0  -4.1 0 0  -4.05 0 0  -4 0 0  -3.95 0 0  -3.9 0 0  -3.85 0 0  -3.8 0 0  -3.75 0 0  -3.7 0 0  -3.65 0 0  -3.6 0 0  -3.55 0 0  -3.5 0 0  -3.45 0 0  -3.4 0 0  -3.35 0 0  -3.3 0 0  -3.25 0 0  -3.2 0 0  -3.15 0 0  -3.1 0 0  -3.05 0 0  -3 0 0  -2.95 0 0  -2.9 0 0  -2.85 0 0  -2.8 0 0  -2.75 0 0  -2.7 0 0  -2.65 0 0  -2.6 0 0  -2.55 0 0  -2.5 0 0  -2.45 0 0  -2.4 0 0  -2.35 0 0  -2.3 0 0  -2.25 0 0  -2.2 0 0  -2.15 0 0  -2.1 0 0  -2.05 0 0  -2 0 0  -1.95 0 0  -1.9 0 0  -1.85 0 0  -1.8 0 0  -1.75 0 0  -1.7 0 0  -1.65 0 0  -1.6 0 0  -1.55 0 0  -1.5 0 0  -1.45 0 0  -1.4 0 0  -1.35 0 0  -1.3 0 0  -1.25 0 0  -1.2 0 0  -1.15 0 0  -1.1 0 0  -1.05 0 0  -1 0 0  -0.9500000000000002 0 0  -0.9000000000000004 0 0  -0.8499999999999996 0 0  -0.7999999999999998 0 0  -0.75 0 0  -0.7000000000000002 0 0  -0.6500000000000004 0 0  -0.5999999999999996 0 0  -0.5499999999999998 0 0  -0.5 0 0  -0.4500000000000002 0 0  -0.4000000000000004 0 0  -0.3499999999999996 0 0  -0.2999999999999998 0 0  -0.25 0 0  -0.2000000000000002 0 0  -0.1500000000000004 0 0  -0.09999999999999964 0 0  -0.04999999999999982 0 0  0 0 0  0.04999999999999982 0 0  0.09999999999999964 0 0  0.1500000000000004 0 0  0.2000000000000002 0 0  0.25 0 0  0.2999999999999998 0 0  0.3499999999999996 0 0  0.4000000000000004 0 0  0.4500000000000002 0 0  0.5 0 0  0.5499999999999998 0 0  0.5999999999999996 0 0  0.6500000000000004 0 0  0.7000000000000002 0 0  0.75 0 0  0.7999999999999998 0 0  0.8499999999999996 0 0  0.9000000000000004 0 0  0.9500000000000002 0 0  1 0 0  1.05 0 0  1.1 0 0  1.15 0 0  1.2 0 0  1.25 0 0  1.3 0 0  1.35 0 0  1.4 0 0  1.45 0 0  1.5 0 0  1.55 0 0  1.6 0 0  1.65 0 0  1.7 0 0  1.75 0 0  1.8 0 0  1.85 0 0  1.9 0 0  1.95 0 0  2 0 0  2.05 0 0  2.1 0 0  2.15 0 0  2.2 0 0  2.25 0 0  2.3 0 0  2.35 0 0  2.4 0 0  2.45 0 0  2.5 0 0  2.55 0 0  2.6 0 0  2.65 0 0  2.7 0 0  2.75 0 0  2.8 0 0  2.85 0 0  2.9 0 0  2.95 0 0  3 0 0  3.050000000000001 0 0  3.1 0 0  3.15 0 0  3.199999999999999 0 0  3.25 0 0  3.300000000000001 0 0  3.35 0 0  3.4 0 0  3.449999999999999 0 0  3.5 0 0  3.550000000000001 0 0  3.6 0 0  3.65 0 0  3.699999999999999 0 0  3.75 0 0  3.800000000000001 0 0  3.85 0 0  3.9 0 0  3.949999999999999 0 0  4 0 0  4.050000000000001 0 0  4.1 0 0  4.15 0 0  4.199999999999999 0 0  4.25 0 0  4.300000000000001 0 0  4.35 0 0  4.4 0 0  4.449999999999999 0 0  4.5 0 0  4.550000000000001 0 0  4.6 0 0  4.65 0 0  4.699999999999999 0 0  4.75 0 0  4.800000000000001 0 0  4.85 0 0  4.9 0 0  4.949999999999999 0 0  5 0 0  </DataArray>
</Points>
<Cells>
<DataArray  type="UInt32"  Name="connectivity"  format="ascii">0 1  1 2  2 3  3 4  4 5  5 6  6 7  7 8  8 9  9 10  10 11  11 12  12 13  13 14  14 15  15 16  16 17  17 18  18 19  19 20  20 21  21 22  22 23  23 24  24 25  25 26  26 27  27 28  28 29  29 30  30 31  31 32  32 33  33 34  34 35  35 36  36 37  37 38  38 39  39 40  40 41  41 42  42 43  43 44  44 45  45 46  46 47  47 48  48 49  49 50  50 51  51 52  52 53  53 54  54 55  55 56  56 57  57 58  58 59  59 60  60 61  61 62  62 63  63 64  64 65  65 66  66 67  67 68  68 69  69 70  70 71  71 72  72 73  73 74  74 75  75 76  76 77  77 78  78 79  79 80  80 81  81 82  82 83  83 84  84 85  85 86  86 87  87 88  88 89  89 90  90 91  91 92  92 93  93 94  94 95  95 96  96 97  97 98  98 99  99 100  100 101  101 102  102 103  103 104  104 105  105 106  106 107  107 108  108 109  109 110  110 111  111 112  112 113  113 114  114 115  115 116  116 117  117 118  118 119  119 120  120 121  121 122  122 123  123 124  124 125  125 126  126 127  127 128  128 129  129 130  130 131  131 132  132 133  133 134  134 135  135 136  136 137  137 138  138 139  139 140  140 141  141 142  142 143  143 144  144 145  145 146  146 147  147 148  148 149  149 150  150 151  151 152  152 153  153 154  154 155  155 156  156 157  157 158  158 159  159 160  160 161  161 162  162 163  163 164  164 165  165 166  166 167  167 168  168 169  169 170  170 171  171 172  172 173  173 174  174 175  175 176  176 177  177 178  178 179  179 180  180 181  181 182  182 183  183 184  184 185  185 186  186 187  187 188  188 189  189 190  190 191  191 192  192 193  193 194  194 195  195 196  196 197  197 198  198 199  199 200  </DataArray>
<DataArray  type="UInt32"  Name="offsets"  format="ascii">2 4 6 8 10 12 14 16 18 20 22 24 26 28 30 32 34 36 38 40 42 44 46 48 50 52 54 56 58 60 62 64 66 68 70 72 74 76 78 80 82 84 86 88 90 92 94 96 98 100 102 104 106 108 110 112 114 116 118 120 122 124 126 128 130 132 134 136 138 140 142 144 146 148 150 152 154 156 158 160 162 164 166 168 170 172 174 176 178 180 182 184 186 188 190 192 194 196 198 200 202 204 206 208 210 212 214 216 218 220 222 224 226 228 230 232 234 236 238 240 242 244 246 248 250 252 254 256 258 260 262 264 266 268 270 272 274 276 278 280 282 284 286 288 290 292 294 296 298 300 302 304 306 308 310 312 314 316 318 320 322 324 326 328 330 332 334 336 338 340 342 344 346 348 350 352 354 356 358 360 362 364 366 368 370 372 374 376 378 380 382 384 386 388 390 392 394 396 398 400 </DataArray>
<DataArray  type="UInt8"  Name="types"  format="ascii">3 3 3 3 3 3 3 3 3 3 3 3 3 3 3 3 3 3 3 3 3 3 3 3 3 3 3 3 3 3 3 3 3 3 3 3 3 3 3 3 3 3 3 3 3 3 3 3 3 3 3 3 3 3 3 3 3 3 3 3 3 3 3 3 3 3 3 3 3 3 3 3 3 3 3 3 3 3 3 3 3 3 3 3 3 3 3 3 3 3 3 3 3 3 3 3 3 3 3 3 3 3 3 3 3 3 3 3 3 3 3 3 3 3 3 3 3 3 3 3 3 3 3 3 3 3 3 3 3 3 3 3 3 3 3 3 3 3 3 3 3 3 3 3 3 3 3 3 3 3 3 3 3 3 3 3 3 3 3 3 3 3 3 3 3 3 3 3 3 3 3 3 3 3 3 3 3 3 3 3 3 3 3 3 3 3 3 3 3 3 3 3 3 3 3 3 3 3 3 3 </DataArray>
</Cells>
<PointData  Vectors="(h, u)"> 
<DataArray  type="Float64"  Name="(h, u)"  NumberOfComponents="3" format="ascii">9.9999941066284592e-01 0.0000000000000000e+00 0.0000000000000000e+00  1.0000005878064659e+00 -8.3021297478224338e-08 0.0000000000000000e+00  9.9999941676162019e-01 1.6520723433002093e-07 0.0000000000000000e+00  1.0000005757050441e+00 -2.4573579004491393e-07 0.0000000000000000e+00  9.9999943467613539e-01 3.2381188228840988e-07 0.0000000000000000e+00  1.0000005522555313e+00 -3.9868020976847142e-07 0.0000000000000000e+00  9.9999946330217937e-01 4.6963554475812164e-07 0.0000000000000000e+00  1.0000005188841516e+00 -5.3604135140614891e-07 0.0000000000000000e+00  9.9999950093119605e-01 5.9731706443962169e-07 0.0000000000000000e+00  1.0000004775422628e+00 -6.5301042182367267e-07 0.0000000000000000e+00  9.9999954543162228e-01 7.0263424447416447e-07 0.0000000000000000e+00  1.0000004305216912e+00 -7.4611852807835777e-07 0.0000000000000000e+00  9.9999959449072251e-01 7.8265579187153462e-07 0.0000000000000000e+00  1.0000003803171034e+00 -8.1368122958851905e-07 0.0000000000000000e+00  9.9999964602850822e-01 8.3525842038694923e-07 0.0000000000000000e+00  1.0000003299137550e+00 -8.5742416543802205e-07 0.0000000000000000e+00  9.9999969961769630e-01 8.5529252780524700e-07 0.0000000000000000e+00  1.0000002856404837e+00 -8.9189844304444207e-07 0.0000000000000000e+00  9.9999976403828061e-01 8.1126043070131638e-07 0.0000000000000000e+00  1.0000002750726302e+00 -1.0007270660432037e-06 0.0000000000000000e+00  9.9999990091490920e-01 5.0869069027989939e-07 0.0000000000000000e+00  1.0000004514924423e+00 -1.6636056300226962e-06 0.0000000000000000e+00  1.0000004738124497e+00 -1.1901802988987881e-06 0.0000000000000000e+00  1.0000016831445762e+00 -5.6012077399927718e-06 0.0000000000000000e+00  1.0000035319283358e+00 -1.0699988506767649e-05 0.0000000000000000e+00  1.0000087778258007e+00 -2.7872621402893853e-05 0.0000000000000000e+00  1.0000202653644186e+00 -6.3059234545734174e-05 0.0000000000000000e+00  1.0000475801461264e+00 -1.4941522431608143e-04 0.0000000000000000e+00  1.0001098816368181e+00 -3.4367042100466843e-04 0.0000000000000000e+00  1.0002525710687700e+00 -7.9134661617500637e-04 0.0000000000000000e+00  1.0005749996055033e+00 -1.8000745435779403e-03 0.0000000000000000e+00  1.0012973786181474e+00 -4.0625688348355461e-03 0.0000000000000000e+00  1.0028943736697693e+00 -9.0599899615802764e-03 0.0000000000000000e+00  1.0063624096271284e+00 -1.9907851524077341e-02 0.0000000000000000e+00  1.0136791139348769e+00 -4.2757446412469771e-02 0.0000000000000000e+00  1.0283712008836028e+00 -8.8501706473882280e-02 0.0000000000000000e+00  1.0554889986310219e+00 -1.7241569702358991e-01 0.0000000000000000e+00  1.0993569142757604e+00 -3.0665382996490881e-01 0.0000000000000000e+00  1.1587775018289215e+00 -4.8515731409460128e-01 0.0000000000000000e+00  1.2247098290271874e+00 -6.7823559648134168e-01 0.0000000000000000e+00  1.2852947508874721e+00 -8.5073127770492563e-01 0.0000000000000000e+00  1.3327710819400620e+00 -9.8252909938643562e-01 0.0000000000000000e+00  1.3651501050822039e+00 -1.0707118261780919e+00 0.0000000000000000e+00  1.3840744930278106e+00 -1.1216452040711127e+00 0.0000000000000000e+00  1.3924618752735154e+00 -1.1441491567427282e+00 0.0000000000000000e+00  1.3931565121069804e+00 -1.1461903669927540e+00 0.0000000000000000e+00  1.3884462825099970e+00 -1.1339229645213975e+00 0.0000000000000000e+00  1.3800106281773044e+00 -1.1117677331492850e+00 0.0000000000000000e+00  1.3690288596287103e+00 -1.0827827829451397e+00 0.0000000000000000e+00  1.3563106541541896e+00 -1.0490559178572643e+00 0.0000000000000000e+00  1.3424093567008342e+00 -1.0120036590028159e+00 0.0000000000000000e+00  1.3277035635424006e+00 -9.7259762369671920e-01 0.0000000000000000e+00  1.3124560406021515e+00 -9.3150827487160470e-01 0.0000000000000000e+00  1.2968514304509366e+00 -8.8921151479238569e-01 0.0000000000000000e+00  1.2810232816115026e+00 -8.4604928784214162e-01 0.0000000000000000e+00  1.2650701111201705e+00 -8.0227917926740122e-01 0.0000000000000000e+00  1.2490678920442633e+00 -7.5809850338757512e-01 0.0000000000000000e+00  1.2330767488177425e+00 -7.1366913251516839e-01 0.0000000000000000e+00  1.2171471986490161e+00 -6.6912652119244886e-01 0.0000000000000000e+00  1.2013229602667093e+00 -6.2459391693209310e-01 0.0000000000000000e+00  1.1856445431342146e+00 -5.8018548304813933e-01 0.0000000000000000e+00  1.1701505142001964e+00 -5.3601598770074654e-01 0.0000000000000000e+00  1.1548799873280879e+00 -4.9220196231101093e-01 0.0000000000000000e+00  1.1398733667530621e+00 -4.4886958836308716e-01 0.0000000000000000e+00  1.1251744209335273e+00 -4.0615562429586244e-01 0.0000000000000000e+00  1.1108309329005095e+00 -3.6421468648602073e-01 0.0000000000000000e+00  1.0968966045693853e+00 -3.2322052123315143e-01 0.0000000000000000e+00  1.0834316615670974e+00 -2.8337279612558774e-01 0.0000000000000000e+00  1.0705044242647050e+00 -2.4489806511539344e-01 0.0000000000000000e+00  1.0581914014093414e+00 -2.0805455933976030e-01 0.0000000000000000e+00  1.0465776822694381e+00 -1.7312996522386889e-01 0.0000000000000000e+00  1.0357551680266845e+00 -1.4043974138001786e-01 0.0000000000000000e+00  1.0258198991326812e+00 -1.1031529951567641e-01 0.0000000000000000e+00  1.0168660988468463e+00 -8.3087983339536930e-02 0.0000000000000000e+00  1.0089781427501181e+00 -5.9059687632873538e-02 0.0000000000000000e+00  1.0022190964575803e+00 -3.8467756795782987e-02 0.0000000000000000e+00  9.9661849845494699e-01 -2.1441437663408405e-02 0.0000000000000000e+00  9.9216066176815865e-01 -7.9648502194574547e-03 0.0000000000000000e+00  9.8877839960483382e-01 2.1473384489806967e-03 0.0000000000000000e+00  9.8635451082390402e-01 9.2442678608291064e-03 0.0000000000000000e+00  9.8473357403157380e-01 1.3803567950088129e-02 0.0000000000000000e+00  9.8374107218783657e-01 1.6367855856140881e-02 0.0000000000000000e+00  9.8320559912982552e-01 1.7474606409949366e-02 0.0000000000000000e+00  9.8297712878997467e-01 1.7595157721107983e-02 0.0000000000000000e+00  9.8293783888560249e-01 1.7100865053191569e-02 0.0000000000000000e+00  9.8300394309894523e-01 1.6255246232605651e-02 0.0000000000000000e+00  9.8312140182437047e-01 1.5228544703414389e-02 0.0000000000000000e+00  9.8325832821822656e-01 1.4120422110701894e-02 0.0000000000000000e+00  9.8339758342279948e-01 1.2984433716462811e-02 0.0000000000000000e+00  9.8353067344670764e-01 1.1846295852130788e-02 0.0000000000000000e+00  9.8365382141283408e-01 1.0717218459252699e-02 0.0000000000000000e+00  9.8376548698922173e-01 9.6009003011849631e-03 0.0000000000000000e+00  9.8386519232118563e-01 8.4979960338830256e-03 0.0000000000000000e+00  9.8395283783440235e-01 7.4075904132101383e-03 0.0000000000000000e+00  9.8402850802702935e-01 6.3284216421307720e-03 0.0000000000000000e+00  9.8409229803003573e-01 5.2588823962523351e-03 0.0000000000000000e+00  9.8414433215242636e-01 4.1974379947052410e-03 0.0000000000000000e+00  9.8418469428023903e-01 3.1424258577363844e-03 0.0000000000000000e+00  9.8421347335813303e-01 2.0922691151238743e-03 0.0000000000000000e+00  9.8423071396685868e-01 1.0453259219836688e-03 0.0000000000000000e+00  9.8423646061891246e-01 4.8533398166963980e-16 0.0000000000000000e+00  9.8423071396685846e-01 -1.0453259219852277e-03 0.0000000000000000e+00  9.8421347335813292e-01 -2.0922691151232177e-03 0.0000000000000000e+00  9.8418469428023880e-01 -3.1424258577374960e-03 0.0000000000000000e+00  9.8414433215242614e-01 -4.1974379947047561e-03 0.0000000000000000e+00  9.8409229803003551e-01 -5.2588823962533100e-03 0.0000000000000000e+00  9.8402850802702913e-01 -6.3284216421309420e-03 0.0000000000000000e+00  9.8395283783440235e-01 -7.4075904132111558e-03 0.0000000000000000e+00  9.8386519232118552e-01 -8.4979960338825850e-03 0.0000000000000000e+00  9.8376548698922173e-01 -9.6009003011852910e-03 0.0000000000000000e+00  9.8365382141283408e-01 -1.0717218459252640e-02 0.0000000000000000e+00  9.8353067344670775e-01 -1.1846295852131115e-02 0.0000000000000000e+00  9.8339758342279937e-01 -1.2984433716463089e-02 0.0000000000000000e+00  9.8325832821822656e-01 -1.4120422110701671e-02 0.0000000000000000e+00  9.8312140182437036e-01 -1.5228544703415161e-02 0.0000000000000000e+00  9.8300394309894512e-01 -1.6255246232606196e-02 0.0000000000000000e+00  9.8293783888560216e-01 -1.7100865053192828e-02 0.0000000000000000e+00  9.8297712878997434e-01 -1.7595157721108298e-02 0.0000000000000000e+00  9.8320559912982508e-01 -1.7474606409950355e-02 0.0000000000000000e+00  9.8374107218783602e-01 -1.6367855856141103e-02 0.0000000000000000e+00  9.8473357403157358e-01 -1.3803567950089196e-02 0.0000000000000000e+00  9.8635451082390357e-01 -9.2442678608293197e-03 0.0000000000000000e+00  9.8877839960483405e-01 -2.1473384489812813e-03 0.0000000000000000e+00  9.9216066176815854e-01 7.9648502194579196e-03 0.0000000000000000e+00  9.9661849845494732e-01 2.1441437663408662e-02 0.0000000000000000e+00  1.0022190964575799e+00 3.8467756795784194e-02 0.0000000000000000e+00  1.0089781427501183e+00 5.9059687632873274e-02 0.0000000000000000e+00  1.0168660988468459e+00 8.3087983339538346e-02 0.0000000000000000e+00  1.0258198991326815e+00 1.1031529951567690e-01 0.0000000000000000e+00  1.0357551680266843e+00 1.4043974138001830e-01 0.0000000000000000e+00  1.0465776822694386e+00 1.7312996522386981e-01 0.0000000000000000e+00  1.0581914014093414e+00 2.0805455933976136e-01 0.0000000000000000e+00  1.0705044242647053e+00 2.4489806511539380e-01 0.0000000000000000e+00  1.0834316615670974e+00 2.8337279612558880e-01 0.0000000000000000e+00  1.0968966045693855e+00 3.2322052123315187e-01 0.0000000000000000e+00  1.1108309329005093e+00 3.6421468648602023e-01 0.0000000000000000e+00  1.1251744209335277e+00 4.0615562429586199e-01 0.0000000000000000e+00  1.1398733667530616e+00 4.4886958836308649e-01 0.0000000000000000e+00  1.1548799873280884e+00 4.9220196231101199e-01 0.0000000000000000e+00  1.1701505142001960e+00 5.3601598770074643e-01 0.0000000000000000e+00  1.1856445431342151e+00 5.8018548304813988e-01 0.0000000000000000e+00  1.2013229602667088e+00 6.2459391693209210e-01 0.0000000000000000e+00  1.2171471986490163e+00 6.6912652119244898e-01 0.0000000000000000e+00  1.2330767488177419e+00 7.1366913251516984e-01 0.0000000000000000e+00  1.2490678920442635e+00 7.5809850338757578e-01 0.0000000000000000e+00  1.2650701111201701e+00 8.0227917926740233e-01 0.0000000000000000e+00  1.2810232816115026e+00 8.4604928784214106e-01 0.0000000000000000e+00  1.2968514304509366e+00 8.8921151479238558e-01 0.0000000000000000e+00  1.3124560406021515e+00 9.3150827487160370e-01 0.0000000000000000e+00  1.3277035635424013e+00 9.7259762369671932e-01 0.0000000000000000e+00  1.3424093567008335e+00 1.0120036590028165e+00 0.0000000000000000e+00  1.3563106541541901e+00 1.0490559178572638e+00 0.0000000000000000e+00  1.3690288596287097e+00 1.0827827829451393e+00 0.0000000000000000e+00  1.3800106281773055e+00 1.1117677331492855e+00 0.0000000000000000e+00  1.3884462825099964e+00 1.1339229645213975e+00 0.0000000000000000e+00  1.3931565121069809e+00 1.1461903669927564e+00 0.0000000000000000e+00  1.3924618752735145e+00 1.1441491567427289e+00 0.0000000000000000e+00  1.3840744930278115e+00 1.1216452040711142e+00 0.0000000000000000e+00  1.3651501050822026e+00 1.0707118261780926e+00 0.0000000000000000e+00  1.3327710819400627e+00 9.8252909938643718e-01 0.0000000000000000e+00  1.2852947508874717e+00 8.5073127770492674e-01 0.0000000000000000e+00  1.2247098290271869e+00 6.7823559648134146e-01 0.0000000000000000e+00  1.1587775018289217e+00 4.8515731409460428e-01 0.0000000000000000e+00  1.0993569142757602e+00 3.0665382996490942e-01 0.0000000000000000e+00  1.0554889986310219e+00 1.7241569702359272e-01 0.0000000000000000e+00  1.0283712008836023e+00 8.8501706473882016e-02 0.0000000000000000e+00  1.0136791139348762e+00 4.2757446412469535e-02 0.0000000000000000e+00  1.0063624096271286e+00 1.9907851524077671e-02 0.0000000000000000e+00  1.0028943736697691e+00 9.0599899615807569e-03 0.0000000000000000e+00  1.0012973786181476e+00 4.0625688348356311e-03 0.0000000000000000e+00  1.0005749996055029e+00 1.8000745435776276e-03 0.0000000000000000e+00  1.0002525710687702e+00 7.9134661617515382e-04 0.0000000000000000e+00  1.0001098816368175e+00 3.4367042100460132e-04 0.0000000000000000e+00  1.0000475801461270e+00 1.4941522431652853e-04 0.0000000000000000e+00  1.0000202653644181e+00 6.3059234546796597e-05 0.0000000000000000e+00  1.0000087778258007e+00 2.7872621402644446e-05 0.0000000000000000e+00  1.0000035319283349e+00 1.0699988507115567e-05 0.0000000000000000e+00  1.0000016831445762e+00 5.6012077393167794e-06 0.0000000000000000e+00  1.0000004738124491e+00 1.1901802994234930e-06 0.0000000000000000e+00  1.0000004514924423e+00 1.6636056290606184e-06 0.0000000000000000e+00  9.9999990091490865e-01 -5.0869069036581691e-07 0.0000000000000000e+00  1.0000002750726302e+00 1.0007270654487746e-06 0.0000000000000000e+00  9.9999976403827995e-01 -8.1126043086126987e-07 0.0000000000000000e+00  1.0000002856404839e+00 8.9189844228582814e-07 0.0000000000000000e+00  9.9999969961769575e-01 -8.5529252835348325e-07 0.0000000000000000e+00  1.0000003299137550e+00 8.5742416417537831e-07 0.0000000000000000e+00  9.9999964602850788e-01 -8.3525842022443272e-07 0.0000000000000000e+00  1.0000003803171040e+00 8.1368122870111905e-07 0.0000000000000000e+00  9.9999959449072251e-01 -7.8265579116635544e-07 0.0000000000000000e+00  1.0000004305216914e+00 7.4611852730658137e-07 0.0000000000000000e+00  9.9999954543162228e-01 -7.0263424387257657e-07 0.0000000000000000e+00  1.0000004775422626e+00 6.5301042097212217e-07 0.0000000000000000e+00  9.9999950093119605e-01 -5.9731706452429290e-07 0.0000000000000000e+00  1.0000005188841514e+00 5.3604135101081736e-07 0.0000000000000000e+00  9.9999946330217926e-01 -4.6963554444844883e-07 0.0000000000000000e+00  1.0000005522555306e+00 3.9868020913454704e-07 0.0000000000000000e+00  9.9999943467613539e-01 -3.2381188240602020e-07 0.0000000000000000e+00  1.0000005757050434e+00 2.4573578968381346e-07 0.0000000000000000e+00  9.9999941676162030e-01 -1.6520723394862092e-07 0.0000000000000000e+00  1.0000005878064655e+00 8.3021298099058169e-08 0.0000000000000000e+00  9.9999941066284592e-01 0.0000000000000000e+00 0.0000000000000000e+00  </DataArray> 
</PointData> 
</Piece>
</UnstructuredGrid>
</VTKFile>