<?xml version="1.0"?>
<VTKFile type="UnstructuredGrid"  version="0.1"  >
<UnstructuredGrid>
<Piece  NumberOfPoints="201" NumberOfCells="200">
<Points>
<DataArray  type="Float64"  NumberOfComponents="3"  format="ascii">-5 0 0  -4.95 0 0  -4.9 0 0  -4.85 0 0  -4.8 0 0  -4.75 0 0  -4.7 0 0  -4.65 0 0  -4.6 0 0  -4.55 0 0  -4.5 0 0  -4.45 0 0  -4.4 0 0  -4.35 0 0  -4.3 0 0  -4.25 0 0  -4.2 0 0  -4.15 0 0  -4.1 0 0  -4.05 0 0  -4 0 0  -3.95 0 0  -3.9 0 0  -3.85 0 0  -3.8 0 0  -3.75 0 0  -3.7 0 0  -3.65 0 0  -3.6 0 0  -3.55 0 0  -3.5 0 0  -3.45 0 0  -3.4 0 0  -3.35 0 0  -3.3 0 0  -3.25 0 0  -3.2 0 0  -3.15 0 0  -3.1 0 0  -3.05 0 0  -3 0 0  -2.95 0 0  -2.9 0 0  -2.85 0 0  -2.8 0 0  -2.75 0 0  -2.7 0 0  -2.65 0 0  -2.6 0 0  -2.55 0 0  -2.5 0 0  -2.45 0 0  -2.4 0 0  -2.35 0 0  -2.3 0 0  -2.25 0 0  -2.2 0 0  -2.15 0 0  -2.1 0 0  -2.05 0 0  -2 0 0  -1.95 0 0  -1.9 0 0  -1.85 0 0  -1.8 0 0  -1.75 0 0  -1.7 0 0  -1.65 0 0  -1.6 0 0  -1.55 0 0  -1.5 0 0  -1.45 0 0  -1.4 0 0  -1.35 0 0  -1.3 0 0  -1.25 0 0  -1.2 0 0  -1.15 0 0  -1.1 0 0  -1.05 0 0  -1 0 0  -0.9500000000000002 0 0  -0.9000000000000004 0 0  -0.8499999999999996 0 0  -0.7999999999999998 0 0  -0.75 0 0  -0.7000000000000002 0 0  -0.6500000000000004 0 0  -0.5999999999999996 0 0  -0.5499999999999998 0 0  -0.5 0 0  -0.4500000000000002 0 0  -0.4000000000000004 0 0  -0.3499999999999996 0 0  -0.2999999999999998 0 0  -0.25 0 0  -0.2000000000000002 0 0  -0.1500000000000004 0 0  -0.09999999999999964 0 0  -0.04999999999999982 0 0  0 0 0  0.04999999999999982 0 0  0.09999999999999964 0 0  0.1500000000000004 0 0  0.2000000000000002 0 0  0.25 0 0  0.2999999999999998 0 0  0.3499999999999996 0 0  0.4000000000000004 0 0  0.4500000000000002 0 0  0.5 0 0  0.5499999999999998 0 0  0.5999999999999996 0 0  0.6500000000000004 0 0  0.7000000000000002 0 0  0.75 0 0  0.7999999999999998 0 0  0.8499999999999996 0 0  0.9000000000000004 0 0  0.9500000000000002 0 0  1 0 0  1.05 0 0  1.1 0 0  1.15 0 0  1.2 0 0  1.25 0 0  1.3 0 0  1.35 0 0  1.4 0 0  1.45 0 0  1.5 0 0  1.55 0 0  1.6 0 0  1.65 0 0  1.7 0 0  1.75 0 0  1.8 0 0  1.85 0 0  1.9 0 0  1.95 0 0  2 0 0  2.05 0 0  2.1 0 0  2.15 0 0  2.2 0 0  2.25 0 0  2.3 0 0  2.35 0 0  2.4 0 0  2.45 0 0  2.5 0 0  2.55 0 0  2.6 0 0  2.65 0 0  2.7 0 0  2.75 0 0  2.8 0 0  2.85 0 0  2.9 0 0  2.95 0 0  3 0 0  3.050000000000001 0 0  3.1 0 0  3.15 0 0  3.199999999999999 0 0  3.25 0 0  3.300000000000001 0 0  3.35 0 0  3.4 0 0  3.449999999999999 0 0  3.5 0 0  3.550000000000001 0 0  3.6 0 0  3.65 0 0  3.699999999999999 0 0  3.75 0 0  3.800000000000001 0 0  3.85 0 0  3.9 0 0  3.949999999999999 0 0  4 0 0  4.050000000000001 0 0  4.1 0 0  4.15 0 0  4.199999999999999 0 0  4.25 0 0  4.300000000000001 0 0  4.35 0 0  4.4 0 0  4.449999999999999 0 0  4.5 0 0  4.550000000000001 0 0  4.6 0 0  4.65 0 0  4.699999999999999 0 0  4.75 0 0  4.800000000000001 0 0  4.85 0 0  4.9 0 0  4.949999999999999 0 0  5 0 0  </DataArray>
</Points>
<Cells>
<DataArray  type="UInt32"  Name="connectivity"  format="ascii">0 1  1 2  2 3  3 4  4 5  5 6  6 7  7 8  8 9  9 10  10 11  11 12  12 13  13 14  14 15  15 16  16 17  17 18  18 19  19 20  20 21  21 22  22 23  23 24  24 25  25 26  26 27  27 28  28 29  29 30  30 31  31 32  32 33  33 34  34 35  35 36  36 37  37 38  38 39  39 40  40 41  41 42  42 43  43 44  44 45  45 46  46 47  47 48  48 49  49 50  50 51  51 52  52 53  53 54  54 55  55 56  56 57  57 58  58 59  59 60  60 61  61 62  62 63  63 64  64 65  65 66  66 67  67 68  68 69  69 70  70 71  71 72  72 73  73 74  74 75  75 76  76 77  77 78  78 79  79 80  80 81  81 82  82 83  83 84  84 85  85 86  86 87  87 88  88 89  89 90  90 91  91 92  92 93  93 94  94 95  95 96  96 97  97 98  98 99  99 100  100 101  101 102  102 103  103 104  104 105  105 106  106 107  107 108  108 109  109 110  110 111  111 112  112 113  113 114  114 115  115 116  116 117  117 118  118 119  119 120  120 121  121 122  122 123  123 124  124 125  125 126  126 127  127 128  128 129  129 130  130 131  131 132  132 133  133 134  134 135  135 136  136 137  137 138  138 139  139 140  140 141  141 142  142 143  143 144  144 145  145 146  146 147  147 148  148 149  149 150  150 151  151 152  152 153  153 154  154 155  155 156  156 157  157 158  158 159  159 160  160 161  161 162  162 163  163 164  164 165  165 166  166 167  167 168  168 169  169 170  170 171  171 172  172 173  173 174  174 175  175 176  176 177  177 178  178 179  179 180  180 181  181 182  182 183  183 184  184 185  185 186  186 187  187 188  188 189  189 190  190 191  191 192  192 193  193 194  194 195  195 196  196 197  197 198  198 199  199 200  </DataArray>
<DataArray  type="UInt32"  Name="offsets"  format="ascii">2 4 6 8 10 12 14 16 18 20 22 24 26 28 30 32 34 36 38 40 42 44 46 48 50 52 54 56 58 60 62 64 66 68 70 72 74 76 78 80 82 84 86 88 90 92 94 96 98 100 102 104 106 108 110 112 114 116 118 120 122 124 126 128 130 132 134 136 138 140 142 144 146 148 150 152 154 156 158 160 162 164 166 168 170 172 174 176 178 180 182 184 186 188 190 192 194 196 198 200 202 204 206 208 210 212 214 216 218 220 222 224 226 228 230 232 234 236 238 240 242 244 246 248 250 252 254 256 258 260 262 264 266 268 270 272 274 276 278 280 282 284 286 288 290 292 294 296 298 300 302 304 306 308 310 312 314 316 318 320 322 324 326 328 330 332 334 336 338 340 342 344 346 348 350 352 354 356 358 360 362 364 366 368 370 372 374 376 378 380 382 384 386 388 390 392 394 396 398 400 </DataArray>
<DataArray  type="UInt8"  Name="types"  format="ascii">3 3 3 3 3 3 3 3 3 3 3 3 3 3 3 3 3 3 3 3 3 3 3 3 3 3 3 3 3 3 3 3 3 3 3 3 3 3 3 3 3 3 3 3 3 3 3 3 3 3 3 3 3 3 3 3 3 3 3 3 3 3 3 3 3 3 3 3 3 3 3 3 3 3 3 3 3 3 3 3 3 3 3 3 3 3 3 3 3 3 3 3 3 3 3 3 3 3 3 3 3 3 3 3 3 3 3 3 3 3 3 3 3 3 3 3 3 3 3 3 3 3 3 3 3 3 3 3 3 3 3 3 3 3 3 3 3 3 3 3 3 3 3 3 3 3 3 3 3 3 3 3 3 3 3 3 3 3 3 3 3 3 3 3 3 3 3 3 3 3 3 3 3 3 3 3 3 3 3 3 3 3 3 3 3 3 3 3 3 3 3 3 3 3 3 3 3 3 3 3 </DataArray>
</Cells>
<PointData  Vectors="(h, u)"> 
<DataArray  type="Float64"  Name="(h, u)"  NumberOfComponents="3" format="ascii">9.8557060877580227e-01 0.0000000000000000e+00 0.0000000000000000e+00  9.8556728906205637e-01 -7.5719707922787549e-04 0.0000000000000000e+00  9.8555584787917805e-01 -1.5153264468463665e-03 0.0000000000000000e+00  9.8553778443263806e-01 -2.2751115997747926e-03 0.0000000000000000e+00  9.8551164263887137e-01 -3.0375461145908957e-03 0.0000000000000000e+00  9.8547897383280902e-01 -3.8029714647920716e-03 0.0000000000000000e+00  9.8543840530934435e-01 -4.5722173244613015e-03 0.0000000000000000e+00  9.8539163315039335e-01 -5.3449361752905883e-03 0.0000000000000000e+00  9.8533749682949279e-01 -6.1213748858411614e-03 0.0000000000000000e+00  9.8527801718067476e-01 -6.8999319088780212e-03 0.0000000000000000e+00  9.8521248080394419e-01 -7.6795293384158093e-03 0.0000000000000000e+00  9.8514353612919792e-01 -8.4563635879234926e-03 0.0000000000000000e+00  9.8507128893659512e-01 -9.2268614018014318e-03 0.0000000000000000e+00  9.8499945947959788e-01 -9.9836225588338465e-03 0.0000000000000000e+00  9.8492947934672082e-01 -1.0718984527554012e-02 0.0000000000000000e+00  9.8486669235046542e-01 -1.1420214681027467e-02 0.0000000000000000e+00  9.8481442294801846e-01 -1.2073777804095026e-02 0.0000000000000000e+00  9.8478017630124870e-01 -1.2659916225603923e-02 0.0000000000000000e+00  9.8476962704241322e-01 -1.3157788735826594e-02 0.0000000000000000e+00  9.8479275191159077e-01 -1.3539641371816956e-02 0.0000000000000000e+00  9.8485768115808558e-01 -1.3777013573666319e-02 0.0000000000000000e+00  9.8497669906623686e-01 -1.3834691123630441e-02 0.0000000000000000e+00  9.8515992602261249e-01 -1.3678100027589186e-02 0.0000000000000000e+00  9.8542115997967050e-01 -1.3267107763209151e-02 0.0000000000000000e+00  9.8577141713365268e-01 -1.2564540095064686e-02 0.0000000000000000e+00  9.8622465005065774e-01 -1.1529691142121930e-02 0.0000000000000000e+00  9.8679124427610976e-01 -1.0127680945009489e-02 0.0000000000000000e+00  9.8748370114275474e-01 -8.3223615392769793e-03 0.0000000000000000e+00  9.8831022619661735e-01 -6.0861125064234902e-03 0.0000000000000000e+00  9.8928047026857524e-01 -3.3918069061937544e-03 0.0000000000000000e+00  9.9039932860728552e-01 -2.2269893496152261e-04 0.0000000000000000e+00  9.9167278609167164e-01 3.4367368063598258e-03 0.0000000000000000e+00  9.9310198604966560e-01 7.5909764123833672e-03 0.0000000000000000e+00  9.9468915393796742e-01 1.2243691542071595e-02 0.0000000000000000e+00  9.9643193060810653e-01 1.7387921398131372e-02 0.0000000000000000e+00  9.9832929320395447e-01 2.3017179483608929e-02 0.0000000000000000e+00  1.0003761117894963e+00 2.9115452584421712e-02 0.0000000000000000e+00  1.0025689673965794e+00 3.5668884895204318e-02 0.0000000000000000e+00  1.0049008904120229e+00 4.2655430240929194e-02 0.0000000000000000e+00  1.0073669885082897e+00 5.0056868184303271e-02 0.0000000000000000e+00  1.0099593463971070e+00 5.7848007986597623e-02 0.0000000000000000e+00  1.0126724030373124e+00 6.6008874314977151e-02 0.0000000000000000e+00  1.0154980175240615e+00 7.4513447842353406e-02 0.0000000000000000e+00  1.0184305602290091e+00 8.3341935399378161e-02 0.0000000000000000e+00  1.0214621677450397e+00 9.2469096675735371e-02 0.0000000000000000e+00  1.0245875296893148e+00 1.0187656308666020e-01 0.0000000000000000e+00  1.0277993640459084e+00 1.1154083374112286e-01 0.0000000000000000e+00  1.0310928902055054e+00 1.2144562894352230e-01 0.0000000000000000e+00  1.0344615567941293e+00 1.3156964804487706e-01 0.0000000000000000e+00  1.0379011949101606e+00 1.4189894663471361e-01 0.0000000000000000e+00  1.0414060268639143e+00 1.5241454467479523e-01 0.0000000000000000e+00  1.0449724943613974e+00 1.6310481055679449e-01 0.0000000000000000e+00  1.0485955711393038e+00 1.7395299851958046e-01 0.0000000000000000e+00  1.0522722609367454e+00 1.8494961420190262e-01 0.0000000000000000e+00  1.0559982313578282e+00 1.9607995073032117e-01 0.0000000000000000e+00  1.0597709767967811e+00 2.0733640234290918e-01 0.0000000000000000e+00  1.0635867857095620e+00 2.1870606087057939e-01 0.0000000000000000e+00  1.0674435645007101e+00 2.3018293751402946e-01 0.0000000000000000e+00  1.0713381459451981e+00 2.4175567622684285e-01 0.0000000000000000e+00  1.0752687713698004e+00 2.5341963881995966e-01 0.0000000000000000e+00  1.0792327442057101e+00 2.6516478869553611e-01 0.0000000000000000e+00  1.0832285694503878e+00 2.7698759079608387e-01 0.0000000000000000e+00  1.0872539531334167e+00 2.8887911764185881e-01 0.0000000000000000e+00  1.0913075998642281e+00 3.0083671286990299e-01 0.0000000000000000e+00  1.0953875562295421e+00 3.1285237092691459e-01 0.0000000000000000e+00  1.0994926690899198e+00 3.2492411075286476e-01 0.0000000000000000e+00  1.1036212684917572e+00 3.3704468006864191e-01 0.0000000000000000e+00  1.1077722912012373e+00 3.4921258382211479e-01 0.0000000000000000e+00  1.1119442965669961e+00 3.6142116289807991e-01 0.0000000000000000e+00  1.1161362616221071e+00 3.7366921958135896e-01 0.0000000000000000e+00  1.1203469216284885e+00 3.8595051713347950e-01 0.0000000000000000e+00  1.1245752453343740e+00 3.9826393976966828e-01 0.0000000000000000e+00  1.1288200914566413e+00 4.1060345008449178e-01 0.0000000000000000e+00  1.1330803769037363e+00 4.2296770789747473e-01 0.0000000000000000e+00  1.1373550440789142e+00 4.3535049622881627e-01 0.0000000000000000e+00  1.1416429463608915e+00 4.4774968368839652e-01 0.0000000000000000e+00  1.1459431383502223e+00 4.6015805485801697e-01 0.0000000000000000e+00  1.1502545386888861e+00 4.7257138019791217e-01 0.0000000000000000e+00  1.1545766162413955e+00 4.8497936902031508e-01 0.0000000000000000e+00  1.1589090032058591e+00 4.9737224769265354e-01 0.0000000000000000e+00  1.1632528461816913e+00 5.0973091612852872e-01 0.0000000000000000e+00  1.1676108904679308e+00 5.2203035932055419e-01 0.0000000000000000e+00  1.1719903651545158e+00 5.3422623676147452e-01 0.0000000000000000e+00  1.1764050966692665e+00 5.4625033850281834e-01 0.0000000000000000e+00  1.1808825509461010e+00 5.5798559764997335e-01 0.0000000000000000e+00  1.1854724580627582e+00 5.6924021060115404e-01 0.0000000000000000e+00  1.1902653269731587e+00 5.7968935481193040e-01 0.0000000000000000e+00  1.1954191459548804e+00 5.8879416909865245e-01 0.0000000000000000e+00  1.2012059384359906e+00 5.9566207751743672e-01 0.0000000000000000e+00  1.2080758769113396e+00 5.9885557131410161e-01 0.0000000000000000e+00  1.2167405976184202e+00 5.9614816938546189e-01 0.0000000000000000e+00  1.2282324478267952e+00 5.8434930133182272e-01 0.0000000000000000e+00  1.2438452708410266e+00 5.5947378691339655e-01 0.0000000000000000e+00  1.2647751082906054e+00 5.1774919253649898e-01 0.0000000000000000e+00  1.2913670660531100e+00 4.5767516920705686e-01 0.0000000000000000e+00  1.3222746350934205e+00 3.8214936424161094e-01 0.0000000000000000e+00  1.3543292347803217e+00 2.9840397371835331e-01 0.0000000000000000e+00  1.3835329359386592e+00 2.1483010254959203e-01 0.0000000000000000e+00  1.4064420646681066e+00 1.3706750865954062e-01 0.0000000000000000e+00  1.4208707075048241e+00 6.6301431093054766e-02 0.0000000000000000e+00  1.4257762346448974e+00 2.4134965800617613e-16 0.0000000000000000e+00  1.4208707075048244e+00 -6.6301431093053739e-02 0.0000000000000000e+00  1.4064420646681075e+00 -1.3706750865954129e-01 0.0000000000000000e+00  1.3835329359386603e+00 -2.1483010254958917e-01 0.0000000000000000e+00  1.3543292347803231e+00 -2.9840397371835270e-01 0.0000000000000000e+00  1.3222746350934218e+00 -3.8214936424160911e-01 0.0000000000000000e+00  1.2913670660531114e+00 -4.5767516920705587e-01 0.0000000000000000e+00  1.2647751082906062e+00 -5.1774919253649776e-01 0.0000000000000000e+00  1.2438452708410273e+00 -5.5947378691339666e-01 0.0000000000000000e+00  1.2282324478267954e+00 -5.8434930133182283e-01 0.0000000000000000e+00  1.2167405976184207e+00 -5.9614816938546233e-01 0.0000000000000000e+00  1.2080758769113396e+00 -5.9885557131410139e-01 0.0000000000000000e+00  1.2012059384359906e+00 -5.9566207751743727e-01 0.0000000000000000e+00  1.1954191459548802e+00 -5.8879416909865301e-01 0.0000000000000000e+00  1.1902653269731589e+00 -5.7968935481193029e-01 0.0000000000000000e+00  1.1854724580627580e+00 -5.6924021060115415e-01 0.0000000000000000e+00  1.1808825509461010e+00 -5.5798559764997357e-01 0.0000000000000000e+00  1.1764050966692663e+00 -5.4625033850281790e-01 0.0000000000000000e+00  1.1719903651545156e+00 -5.3422623676147574e-01 0.0000000000000000e+00  1.1676108904679305e+00 -5.2203035932055397e-01 0.0000000000000000e+00  1.1632528461816911e+00 -5.0973091612852928e-01 0.0000000000000000e+00  1.1589090032058589e+00 -4.9737224769265376e-01 0.0000000000000000e+00  1.1545766162413951e+00 -4.8497936902031635e-01 0.0000000000000000e+00  1.1502545386888858e+00 -4.7257138019791184e-01 0.0000000000000000e+00  1.1459431383502219e+00 -4.6015805485801842e-01 0.0000000000000000e+00  1.1416429463608908e+00 -4.4774968368839857e-01 0.0000000000000000e+00  1.1373550440789142e+00 -4.3535049622881750e-01 0.0000000000000000e+00  1.1330803769037361e+00 -4.2296770789747601e-01 0.0000000000000000e+00  1.1288200914566413e+00 -4.1060345008449367e-01 0.0000000000000000e+00  1.1245752453343740e+00 -3.9826393976966901e-01 0.0000000000000000e+00  1.1203469216284887e+00 -3.8595051713348000e-01 0.0000000000000000e+00  1.1161362616221073e+00 -3.7366921958135935e-01 0.0000000000000000e+00  1.1119442965669970e+00 -3.6142116289808102e-01 0.0000000000000000e+00  1.1077722912012380e+00 -3.4921258382211429e-01 0.0000000000000000e+00  1.1036212684917579e+00 -3.3704468006864241e-01 0.0000000000000000e+00  1.0994926690899205e+00 -3.2492411075286454e-01 0.0000000000000000e+00  1.0953875562295428e+00 -3.1285237092691520e-01 0.0000000000000000e+00  1.0913075998642285e+00 -3.0083671286990316e-01 0.0000000000000000e+00  1.0872539531334173e+00 -2.8887911764185797e-01 0.0000000000000000e+00  1.0832285694503878e+00 -2.7698759079608370e-01 0.0000000000000000e+00  1.0792327442057104e+00 -2.6516478869553611e-01 0.0000000000000000e+00  1.0752687713698004e+00 -2.5341963881996116e-01 0.0000000000000000e+00  1.0713381459451987e+00 -2.4175567622684369e-01 0.0000000000000000e+00  1.0674435645007101e+00 -2.3018293751403057e-01 0.0000000000000000e+00  1.0635867857095627e+00 -2.1870606087058017e-01 0.0000000000000000e+00  1.0597709767967813e+00 -2.0733640234290904e-01 0.0000000000000000e+00  1.0559982313578287e+00 -1.9607995073032089e-01 0.0000000000000000e+00  1.0522722609367461e+00 -1.8494961420190284e-01 0.0000000000000000e+00  1.0485955711393045e+00 -1.7395299851957885e-01 0.0000000000000000e+00  1.0449724943613976e+00 -1.6310481055679510e-01 0.0000000000000000e+00  1.0414060268639147e+00 -1.5241454467479415e-01 0.0000000000000000e+00  1.0379011949101606e+00 -1.4189894663471411e-01 0.0000000000000000e+00  1.0344615567941300e+00 -1.3156964804487611e-01 0.0000000000000000e+00  1.0310928902055054e+00 -1.2144562894352245e-01 0.0000000000000000e+00  1.0277993640459091e+00 -1.1154083374112228e-01 0.0000000000000000e+00  1.0245875296893152e+00 -1.0187656308665981e-01 0.0000000000000000e+00  1.0214621677450404e+00 -9.2469096675734441e-02 0.0000000000000000e+00  1.0184305602290096e+00 -8.3341935399378800e-02 0.0000000000000000e+00  1.0154980175240627e+00 -7.4513447842352948e-02 0.0000000000000000e+00  1.0126724030373129e+00 -6.6008874314977761e-02 0.0000000000000000e+00  1.0099593463971079e+00 -5.7848007986598185e-02 0.0000000000000000e+00  1.0073669885082899e+00 -5.0056868184303938e-02 0.0000000000000000e+00  1.0049008904120236e+00 -4.2655430240929604e-02 0.0000000000000000e+00  1.0025689673965796e+00 -3.5668884895205748e-02 0.0000000000000000e+00  1.0003761117894971e+00 -2.9115452584422288e-02 0.0000000000000000e+00  9.9832929320395469e-01 -2.3017179483610414e-02 0.0000000000000000e+00  9.9643193060810686e-01 -1.7387921398132080e-02 0.0000000000000000e+00  9.9468915393796742e-01 -1.2243691542073007e-02 0.0000000000000000e+00  9.9310198604966571e-01 -7.5909764123840784e-03 0.0000000000000000e+00  9.9167278609167131e-01 -3.4367368063614769e-03 0.0000000000000000e+00  9.9039932860728541e-01 2.2269893496030144e-04 0.0000000000000000e+00  9.8928047026857502e-01 3.3918069061916814e-03 0.0000000000000000e+00  9.8831022619661724e-01 6.0861125064226159e-03 0.0000000000000000e+00  9.8748370114275474e-01 8.3223615392750121e-03 0.0000000000000000e+00  9.8679124427610954e-01 1.0127680945009453e-02 0.0000000000000000e+00  9.8622465005065774e-01 1.1529691142120555e-02 0.0000000000000000e+00  9.8577141713365224e-01 1.2564540095065042e-02 0.0000000000000000e+00  9.8542115997967039e-01 1.3267107763208033e-02 0.0000000000000000e+00  9.8515992602261215e-01 1.3678100027590177e-02 0.0000000000000000e+00  9.8497669906623697e-01 1.3834691123629185e-02 0.0000000000000000e+00  9.8485768115808514e-01 1.3777013573668126e-02 0.0000000000000000e+00  9.8479275191159099e-01 1.3539641371816012e-02 0.0000000000000000e+00  9.8476962704241278e-01 1.3157788735829450e-02 0.0000000000000000e+00  9.8478017630124881e-01 1.2659916225603429e-02 0.0000000000000000e+00  9.8481442294801802e-01 1.2073777804097335e-02 0.0000000000000000e+00  9.8486669235046542e-01 1.1420214681027057e-02 0.0000000000000000e+00  9.8492947934672026e-01 1.0718984527555901e-02 0.0000000000000000e+00  9.8499945947959811e-01 9.9836225588325334e-03 0.0000000000000000e+00  9.8507128893659468e-01 9.2268614018021604e-03 0.0000000000000000e+00  9.8514353612919803e-01 8.4563635879223113e-03 0.0000000000000000e+00  9.8521248080394364e-01 7.6795293384163505e-03 0.0000000000000000e+00  9.8527801718067465e-01 6.8999319088766447e-03 0.0000000000000000e+00  9.8533749682949223e-01 6.1213748858409463e-03 0.0000000000000000e+00  9.8539163315039335e-01 5.3449361752893757e-03 0.0000000000000000e+00  9.8543840530934368e-01 4.5722173244613527e-03 0.0000000000000000e+00  9.8547897383280914e-01 3.8029714647910078e-03 0.0000000000000000e+00  9.8551164263887103e-01 3.0375461145912852e-03 0.0000000000000000e+00  9.8553778443263829e-01 2.2751115997745419e-03 0.0000000000000000e+00  9.8555584787917783e-01 1.5153264468471589e-03 0.0000000000000000e+00  9.8556728906205660e-01 7.5719707922780989e-04 0.0000000000000000e+00  9.8557060877580216e-01 0.0000000000000000e+00 0.0000000000000000e+00  </DataArray> 
</PointData> 
</Piece>
</UnstructuredGrid>
</VTKFile>