<?xml version="1.0"?>
<VTKFile type="UnstructuredGrid"  version="0.1"  >
<UnstructuredGrid>
<Piece  NumberOfPoints="201" NumberOfCells="200">
<Points>
<DataArray  type="Float64"  NumberOfComponents="3"  format="ascii">-5 0 0  -4.95 0 0  -4.9 0 0  -4.85 0 0  -4.8 0 0  -4.75 0 0  -4.7 0 0  -4.65 0 0  -4.6 0 0  -4.55 0 0  -4.5 0 0  -4.45 0 0  -4.4 0 0  -4.35 0 0  -4.3 0 0  -4.25 0 0  -4.2 0 0  -4.15 0 0  -4.1 0 0  -4.05 0 0  -4 0 0  -3.95 0 0  -3.9 0 0  -3.85 0 0  -3.8 0 0  -3.75 0 0  -3.7 0 0  -3.65 0 0  -3.6 0 0  -3.55 0 0  -3.5 0 0  -3.45 0 0  -3.4 0 0  -3.35 0 0  -3.3 0 0  -3.25 0 0  -3.2 0 0  -3.15 0 0  -3.1 0 0  -3.05 0 0  -3 0 0  -2.95 0 0  -2.9 0 0  -2.85 0 0  -2.8 0 0  -2.75 0 0  -2.7 0 0  -2.65 0 0  -2.6 0 0  -2.55 0 0  -2.5 0 0  -2.45 0 0  -2.4 0 0  -2.35 0 0  -2.3 0 0  -2.25 0 0  -2.2 0 0  -2.15 0 0  -2.1 0 0  -2.05 0 0  -2 0 0  -1.95 0 0  -1.9 0 0  -1.85 0 0  -1.8 0 0  -1.75 0 0  -1.7 0 0  -1.65 0 0  -1.6 0 0  -1.55 0 0  -1.5 0 0  -1.45 0 0  -1.4 0 0  -1.35 0 0  -1.3 0 0  -1.25 0 0  -1.2 0 0  -1.15 0 0  -1.1 0 0  -1.05 0 0  -1 0 0  -0.9500000000000002 0 0  -0.9000000000000004 0 0  -0.8499999999999996 0 0  -0.7999999999999998 0 0  -0.75 0 0  -0.7000000000000002 0 0  -0.6500000000000004 0 0  -0.5999999999999996 0 0  -0.5499999999999998 0 0  -0.5 0 0  -0.4500000000000002 0 0  -0.4000000000000004 0 0  -0.3499999999999996 0 0  -0.2999999999999998 0 0  -0.25 0 0  -0.2000000000000002 0 0  -0.1500000000000004 0 0  -0.09999999999999964 0 0  -0.04999999999999982 0 0  0 0 0  0.04999999999999982 0 0  0.09999999999999964 0 0  0.1500000000000004 0 0  0.2000000000000002 0 0  0.25 0 0  0.2999999999999998 0 0  0.3499999999999996 0 0  0.4000000000000004 0 0  0.4500000000000002 0 0  0.5 0 0  0.5499999999999998 0 0  0.5999999999999996 0 0  0.6500000000000004 0 0  0.7000000000000002 0 0  0.75 0 0  0.7999999999999998 0 0  0.8499999999999996 0 0  0.9000000000000004 0 0  0.9500000000000002 0 0  1 0 0  1.05 0 0  1.1 0 0  1.15 0 0  1.2 0 0  1.25 0 0  1.3 0 0  1.35 0 0  1.4 0 0  1.45 0 0  1.5 0 0  1.55 0 0  1.6 0 0  1.65 0 0  1.7 0 0  1.75 0 0  1.8 0 0  1.85 0 0  1.9 0 0  1.95 0 0  2 0 0  2.05 0 0  2.1 0 0  2.15 0 0  2.2 0 0  2.25 0 0  2.3 0 0  2.35 0 0  2.4 0 0  2.45 0 0  2.5 0 0  2.55 0 0  2.6 0 0  2.65 0 0  2.7 0 0  2.75 0 0  2.8 0 0  2.85 0 0  2.9 0 0  2.95 0 0  3 0 0  3.050000000000001 0 0  3.1 0 0  3.15 0 0  3.199999999999999 0 0  3.25 0 0  3.300000000000001 0 0  3.35 0 0  3.4 0 0  3.449999999999999 0 0  3.5 0 0  3.550000000000001 0 0  3.6 0 0  3.65 0 0  3.699999999999999 0 0  3.75 0 0  3.800000000000001 0 0  3.85 0 0  3.9 0 0  3.949999999999999 0 0  4 0 0  4.050000000000001 0 0  4.1 0 0  4.15 0 0  4.199999999999999 0 0  4.25 0 0  4.300000000000001 0 0  4.35 0 0  4.4 0 0  4.449999999999999 0 0  4.5 0 0  4.550000000000001 0 0  4.6 0 0  4.65 0 0  4.699999999999999 0 0  4.75 0 0  4.800000000000001 0 0  4.85 0 0  4.9 0 0  4.949999999999999 0 0  5 0 0  </DataArray>
</Points>
<Cells>
<DataArray  type="UInt32"  Name="connectivity"  format="ascii">0 1  1 2  2 3  3 4  4 5  5 6  6 7  7 8  8 9  9 10  10 11  11 12  12 13  13 14  14 15  15 16  16 17  17 18  18 19  19 20  20 21  21 22  22 23  23 24  24 25  25 26  26 27  27 28  28 29  29 30  30 31  31 32  32 33  33 34  34 35  35 36  36 37  37 38  38 39  39 40  40 41  41 42  42 43  43 44  44 45  45 46  46 47  47 48  48 49  49 50  50 51  51 52  52 53  53 54  54 55  55 56  56 57  57 58  58 59  59 60  60 61  61 62  62 63  63 64  64 65  65 66  66 67  67 68  68 69  69 70  70 71  71 72  72 73  73 74  74 75  75 76  76 77  77 78  78 79  79 80  80 81  81 82  82 83  83 84  84 85  85 86  86 87  87 88  88 89  89 90  90 91  91 92  92 93  93 94  94 95  95 96  96 97  97 98  98 99  99 100  100 101  101 102  102 103  103 104  104 105  105 106  106 107  107 108  108 109  109 110  110 111  111 112  112 113  113 114  114 115  115 116  116 117  117 118  118 119  119 120  120 121  121 122  122 123  123 124  124 125  125 126  126 127  127 128  128 129  129 130  130 131  131 132  132 133  133 134  134 135  135 136  136 137  137 138  138 139  139 140  140 141  141 142  142 143  143 144  144 145  145 146  146 147  147 148  148 149  149 150  150 151  151 152  152 153  153 154  154 155  155 156  156 157  157 158  158 159  159 160  160 161  161 162  162 163  163 164  164 165  165 166  166 167  167 168  168 169  169 170  170 171  171 172  172 173  173 174  174 175  175 176  176 177  177 178  178 179  179 180  180 181  181 182  182 183  183 184  184 185  185 186  186 187  187 188  188 189  189 190  190 191  191 192  192 193  193 194  194 195  195 196  196 197  197 198  198 199  199 200  </DataArray>
<DataArray  type="UInt32"  Name="offsets"  format="ascii">2 4 6 8 10 12 14 16 18 20 22 24 26 28 30 32 34 36 38 40 42 44 46 48 50 52 54 56 58 60 62 64 66 68 70 72 74 76 78 80 82 84 86 88 90 92 94 96 98 100 102 104 106 108 110 112 114 116 118 120 122 124 126 128 130 132 134 136 138 140 142 144 146 148 150 152 154 156 158 160 162 164 166 168 170 172 174 176 178 180 182 184 186 188 190 192 194 196 198 200 202 204 206 208 210 212 214 216 218 220 222 224 226 228 230 232 234 236 238 240 242 244 246 248 250 252 254 256 258 260 262 264 266 268 270 272 274 276 278 280 282 284 286 288 290 292 294 296 298 300 302 304 306 308 310 312 314 316 318 320 322 324 326 328 330 332 334 336 338 340 342 344 346 348 350 352 354 356 358 360 362 364 366 368 370 372 374 376 378 380 382 384 386 388 390 392 394 396 398 400 </DataArray>
<DataArray  type="UInt8"  Name="types"  format="ascii">3 3 3 3 3 3 3 3 3 3 3 3 3 3 3 3 3 3 3 3 3 3 3 3 3 3 3 3 3 3 3 3 3 3 3 3 3 3 3 3 3 3 3 3 3 3 3 3 3 3 3 3 3 3 3 3 3 3 3 3 3 3 3 3 3 3 3 3 3 3 3 3 3 3 3 3 3 3 3 3 3 3 3 3 3 3 3 3 3 3 3 3 3 3 3 3 3 3 3 3 3 3 3 3 3 3 3 3 3 3 3 3 3 3 3 3 3 3 3 3 3 3 3 3 3 3 3 3 3 3 3 3 3 3 3 3 3 3 3 3 3 3 3 3 3 3 3 3 3 3 3 3 3 3 3 3 3 3 3 3 3 3 3 3 3 3 3 3 3 3 3 3 3 3 3 3 3 3 3 3 3 3 3 3 3 3 3 3 3 3 3 3 3 3 3 3 3 3 3 3 </DataArray>
</Cells>
<PointData  Vectors="(h, u)"> 
<DataArray  type="Float64"  Name="(h, u)"  NumberOfComponents="3" format="ascii">9.9999958745847395e-01 0.0000000000000000e+00 0.0000000000000000e+00  1.0000004129375868e+00 1.0137717875192762e-07 0.0000000000000000e+00  9.9999958589419302e-01 -2.0197665582843708e-07 0.0000000000000000e+00  1.0000004159870135e+00 3.0102031922688717e-07 0.0000000000000000e+00  9.9999958151598822e-01 -3.9773114723441381e-07 0.0000000000000000e+00  1.0000004214641887e+00 4.9133256193764580e-07 0.0000000000000000e+00  9.9999957523747574e-01 -5.8105341872179250e-07 0.0000000000000000e+00  1.0000004281859753e+00 6.6612855582067878e-07 0.0000000000000000e+00  9.9999956848187999e-01 -7.4580839715321099e-07 0.0000000000000000e+00  1.0000004345250875e+00 8.1936161566579260e-07 0.0000000000000000e+00  9.9999956303848581e-01 -8.8608971911934488e-07 0.0000000000000000e+00  1.0000004385776233e+00 9.4533197637865573e-07 0.0000000000000000e+00  9.9999956087399655e-01 -9.9648441433410676e-07 0.0000000000000000e+00  1.0000004383692702e+00 1.0390062878312156e-06 0.0000000000000000e+00  9.9999956391302147e-01 -1.0724419263552036e-06 0.0000000000000000e+00  1.0000004320831768e+00 1.0964270382318694e-06 0.0000000000000000e+00  9.9999957380753435e-01 -1.1107114395166794e-06 0.0000000000000000e+00  1.0000004182870466e+00 1.1151615268511918e-06 0.0000000000000000e+00  9.9999959172028974e-01 -1.1097849638801557e-06 0.0000000000000000e+00  1.0000003961331201e+00 1.0947155430539558e-06 0.0000000000000000e+00  9.9999961815098859e-01 -1.0702676257758656e-06 0.0000000000000000e+00  1.0000003655056373e+00 1.0368176641618664e-06 0.0000000000000000e+00  9.9999965283915748e-01 -9.9511042301799608e-07 0.0000000000000000e+00  1.0000003271089051e+00 9.4543553015503002e-07 0.0000000000000000e+00  9.9999969481247764e-01 -8.8978037808310644e-07 0.0000000000000000e+00  1.0000002826023395e+00 8.2607944076832525e-07 0.0000000000000000e+00  9.9999974290931104e-01 -7.6332319556665173e-07 0.0000000000000000e+00  1.0000002355972868e+00 6.8181176634155448e-07 0.0000000000000000e+00  9.9999979886161394e-01 -6.3687167142987741e-07 0.0000000000000000e+00  1.0000001988382687e+00 4.8936783288928297e-07 0.0000000000000000e+00  9.9999988631081971e-01 -6.0160506959017884e-07 0.0000000000000000e+00  1.0000002411611519e+00 5.0371819669191559e-08 0.0000000000000000e+00  1.0000001692282421e+00 -1.1877825927823915e-06 0.0000000000000000e+00  1.0000007805513558e+00 -1.9281991779851560e-06 0.0000000000000000e+00  1.0000016754103365e+00 -5.6286780845192461e-06 0.0000000000000000e+00  1.0000043535346792e+00 -1.3376536207552991e-05 0.0000000000000000e+00  1.0000105933277532e+00 -3.3315014359919099e-05 0.0000000000000000e+00  1.0000259630864465e+00 -8.1267933905064101e-05 0.0000000000000000e+00  1.0000629854148309e+00 -1.9718395364188375e-04 0.0000000000000000e+00  1.0001515735667341e+00 -4.7479205900815695e-04 0.0000000000000000e+00  1.0003619031188824e+00 -1.1330591256522807e-03 0.0000000000000000e+00  1.0008559181180958e+00 -2.6803458999954642e-03 0.0000000000000000e+00  1.0020034321604960e+00 -6.2719691680729580e-03 0.0000000000000000e+00  1.0046258114895299e+00 -1.4477921308235379e-02 0.0000000000000000e+00  1.0104727507878335e+00 -3.2751770380207629e-02 0.0000000000000000e+00  1.0229595532867879e+00 -7.1685970809509655e-02 0.0000000000000000e+00  1.0476673518006265e+00 -1.4833193609406783e-01 0.0000000000000000e+00  1.0907319343259252e+00 -2.8060731727092275e-01 0.0000000000000000e+00  1.1533286192181422e+00 -4.6953179240202225e-01 0.0000000000000000e+00  1.2267750033966140e+00 -6.8541689459068833e-01 0.0000000000000000e+00  1.2967364541971635e+00 -8.8474934743472300e-01 0.0000000000000000e+00  1.3526003264992161e+00 -1.0393522179488266e+00 0.0000000000000000e+00  1.3909728486575819e+00 -1.1431950907281270e+00 0.0000000000000000e+00  1.4133604624910263e+00 -1.2029446683400498e+00 0.0000000000000000e+00  1.4231244699581111e+00 -1.2289185491363530e+00 0.0000000000000000e+00  1.4236564897792086e+00 -1.2305999948827206e+00 0.0000000000000000e+00  1.4177085290960951e+00 -1.2153236961223071e+00 0.0000000000000000e+00  1.4073008734766297e+00 -1.1883379793914077e+00 0.0000000000000000e+00  1.3938498049529515e+00 -1.1532580223944182e+00 0.0000000000000000e+00  1.3783255601486988e+00 -1.1125430680023958e+00 0.0000000000000000e+00  1.3613915797610787e+00 -1.0678605992704080e+00 0.0000000000000000e+00  1.3435028250434609e+00 -1.0203568252856177e+00 0.0000000000000000e+00  1.3249776528547161e+00 -9.7082891345095057e-01 0.0000000000000000e+00  1.3060422440917654e+00 -9.1984999557269342e-01 0.0000000000000000e+00  1.2868635826226800e+00 -8.6784096590273052e-01 0.0000000000000000e+00  1.2675677895471886e+00 -8.1512821802729030e-01 0.0000000000000000e+00  1.2482557380777679e+00 -7.6197222193795877e-01 0.0000000000000000e+00  1.2290103734182056e+00 -7.0859698071102817e-01 0.0000000000000000e+00  1.2099050443522941e+00 -6.5520127459358779e-01 0.0000000000000000e+00  1.1910064634182456e+00 -6.0197661776081424e-01 0.0000000000000000e+00  1.1723800672390743e+00 -5.4911220677943351e-01 0.0000000000000000e+00  1.1540914413119574e+00 -4.9680856887391067e-01 0.0000000000000000e+00  1.1362105592974330e+00 -4.4528093852116180e-01 0.0000000000000000e+00  1.1188128272291915e+00 -3.9477165919730611e-01 0.0000000000000000e+00  1.1019828775660503e+00 -3.4555362396591671e-01 0.0000000000000000e+00  1.0858153955112033e+00 -2.9794175555106550e-01 0.0000000000000000e+00  1.0704180968942043e+00 -2.5229505952787323e-01 0.0000000000000000e+00  1.0559111933518524e+00 -2.0902333817997962e-01 0.0000000000000000e+00  1.0424274206106039e+00 -1.6858061600868754e-01 0.0000000000000000e+00  1.0301067443918350e+00 -1.3145562608627509e-01 0.0000000000000000e+00  1.0190888601941333e+00 -9.8140906827896418e-02 0.0000000000000000e+00  1.0094980902742381e+00 -6.9089613019307605e-02 0.0000000000000000e+00  1.0014249167678175e+00 -4.4647797198862943e-02 0.0000000000000000e+00  9.9490275149925445e-01 -2.4982102872665737e-02 0.0000000000000000e+00  9.8988950554252131e-01 -1.0010943344976122e-02 0.0000000000000000e+00  9.8625833944729846e-01 6.2356570870169517e-04 0.0000000000000000e+00  9.8380788324006285e-01 7.5299164923560667e-03 0.0000000000000000e+00  9.8228924937520146e-01 1.1475927914252710e-02 0.0000000000000000e+00  9.8144534483487711e-01 1.3265887326011097e-02 0.0000000000000000e+00  9.8104622578641887e-01 1.3621074395038292e-02 0.0000000000000000e+00  9.8091235352138884e-01 1.3107665770558144e-02 0.0000000000000000e+00  9.8091920512306219e-01 1.2116829579149314e-02 0.0000000000000000e+00  9.8099022766608168e-01 1.0889999592042857e-02 0.0000000000000000e+00  9.8108272835638455e-01 9.5598425197786930e-03 0.0000000000000000e+00  9.8117555398369138e-01 8.1924232332924018e-03 0.0000000000000000e+00  9.8125883132024050e-01 6.8165737636546302e-03 0.0000000000000000e+00  9.8132868363739811e-01 5.4434959406123662e-03 0.0000000000000000e+00  9.8138343478687762e-01 4.0760415889923556e-03 0.0000000000000000e+00  9.8142272590768176e-01 2.7140677377132509e-03 0.0000000000000000e+00  9.8144625930737162e-01 1.3560070110830524e-03 0.0000000000000000e+00  9.8145415501818345e-01 -9.9555948007538497e-16 0.0000000000000000e+00  9.8144625930737173e-01 -1.3560070110833998e-03 0.0000000000000000e+00  9.8142272590768176e-01 -2.7140677377151677e-03 0.0000000000000000e+00  9.8138343478687773e-01 -4.0760415889921362e-03 0.0000000000000000e+00  9.8132868363739811e-01 -5.4434959406141773e-03 0.0000000000000000e+00  9.8125883132024061e-01 -6.8165737636540075e-03 0.0000000000000000e+00  9.8117555398369116e-01 -8.1924232332933819e-03 0.0000000000000000e+00  9.8108272835638444e-01 -9.5598425197785924e-03 0.0000000000000000e+00  9.8099022766608124e-01 -1.0889999592043511e-02 0.0000000000000000e+00  9.8091920512306185e-01 -1.2116829579149776e-02 0.0000000000000000e+00  9.8091235352138861e-01 -1.3107665770558210e-02 0.0000000000000000e+00  9.8104622578641865e-01 -1.3621074395038671e-02 0.0000000000000000e+00  9.8144534483487678e-01 -1.3265887326011631e-02 0.0000000000000000e+00  9.8228924937520123e-01 -1.1475927914253409e-02 0.0000000000000000e+00  9.8380788324006285e-01 -7.5299164923564752e-03 0.0000000000000000e+00  9.8625833944729846e-01 -6.2356570870177616e-04 0.0000000000000000e+00  9.8988950554252153e-01 1.0010943344975603e-02 0.0000000000000000e+00  9.9490275149925445e-01 2.4982102872665807e-02 0.0000000000000000e+00  1.0014249167678178e+00 4.4647797198862832e-02 0.0000000000000000e+00  1.0094980902742383e+00 6.9089613019307550e-02 0.0000000000000000e+00  1.0190888601941339e+00 9.8140906827897986e-02 0.0000000000000000e+00  1.0301067443918350e+00 1.3145562608627512e-01 0.0000000000000000e+00  1.0424274206106046e+00 1.6858061600868798e-01 0.0000000000000000e+00  1.0559111933518524e+00 2.0902333817997987e-01 0.0000000000000000e+00  1.0704180968942048e+00 2.5229505952787501e-01 0.0000000000000000e+00  1.0858153955112029e+00 2.9794175555106461e-01 0.0000000000000000e+00  1.1019828775660505e+00 3.4555362396591871e-01 0.0000000000000000e+00  1.1188128272291908e+00 3.9477165919730473e-01 0.0000000000000000e+00  1.1362105592974334e+00 4.4528093852116346e-01 0.0000000000000000e+00  1.1540914413119570e+00 4.9680856887390934e-01 0.0000000000000000e+00  1.1723800672390745e+00 5.4911220677943406e-01 0.0000000000000000e+00  1.1910064634182447e+00 6.0197661776081346e-01 0.0000000000000000e+00  1.2099050443522941e+00 6.5520127459358823e-01 0.0000000000000000e+00  1.2290103734182052e+00 7.0859698071102939e-01 0.0000000000000000e+00  1.2482557380777681e+00 7.6197222193795833e-01 0.0000000000000000e+00  1.2675677895471884e+00 8.1512821802729085e-01 0.0000000000000000e+00  1.2868635826226797e+00 8.6784096590272986e-01 0.0000000000000000e+00  1.3060422440917652e+00 9.1984999557269342e-01 0.0000000000000000e+00  1.3249776528547159e+00 9.7082891345095079e-01 0.0000000000000000e+00  1.3435028250434613e+00 1.0203568252856183e+00 0.0000000000000000e+00  1.3613915797610783e+00 1.0678605992704082e+00 0.0000000000000000e+00  1.3783255601486994e+00 1.1125430680023964e+00 0.0000000000000000e+00  1.3938498049529506e+00 1.1532580223944175e+00 0.0000000000000000e+00  1.4073008734766306e+00 1.1883379793914073e+00 0.0000000000000000e+00  1.4177085290960945e+00 1.2153236961223075e+00 0.0000000000000000e+00  1.4236564897792092e+00 1.2305999948827209e+00 0.0000000000000000e+00  1.4231244699581107e+00 1.2289185491363528e+00 0.0000000000000000e+00  1.4133604624910272e+00 1.2029446683400506e+00 0.0000000000000000e+00  1.3909728486575812e+00 1.1431950907281276e+00 0.0000000000000000e+00  1.3526003264992168e+00 1.0393522179488275e+00 0.0000000000000000e+00  1.2967364541971633e+00 8.8474934743472522e-01 0.0000000000000000e+00  1.2267750033966154e+00 6.8541689459068988e-01 0.0000000000000000e+00  1.1533286192181424e+00 4.6953179240202647e-01 0.0000000000000000e+00  1.0907319343259254e+00 2.8060731727092192e-01 0.0000000000000000e+00  1.0476673518006261e+00 1.4833193609406983e-01 0.0000000000000000e+00  1.0229595532867883e+00 7.1685970809509197e-02 0.0000000000000000e+00  1.0104727507878331e+00 3.2751770380208753e-02 0.0000000000000000e+00  1.0046258114895299e+00 1.4477921308234403e-02 0.0000000000000000e+00  1.0020034321604954e+00 6.2719691680719813e-03 0.0000000000000000e+00  1.0008559181180958e+00 2.6803458999939420e-03 0.0000000000000000e+00  1.0003619031188822e+00 1.1330591256522235e-03 0.0000000000000000e+00  1.0001515735667341e+00 4.7479205900741433e-04 0.0000000000000000e+00  1.0000629854148311e+00 1.9718395364260577e-04 0.0000000000000000e+00  1.0000259630864468e+00 8.1267933905362447e-05 0.0000000000000000e+00  1.0000105933277532e+00 3.3315014361521346e-05 0.0000000000000000e+00  1.0000043535346788e+00 1.3376536208081048e-05 0.0000000000000000e+00  1.0000016754103362e+00 5.6286780851533858e-06 0.0000000000000000e+00  1.0000007805513556e+00 1.9281991781371946e-06 0.0000000000000000e+00  1.0000001692282419e+00 1.1877825925923838e-06 0.0000000000000000e+00  1.0000002411611515e+00 -5.0371820020769670e-08 0.0000000000000000e+00  9.9999988631081960e-01 6.0160507008505519e-07 0.0000000000000000e+00  1.0000001988382683e+00 -4.8936783287973966e-07 0.0000000000000000e+00  9.9999979886161350e-01 6.3687167159000031e-07 0.0000000000000000e+00  1.0000002355972861e+00 -6.8181176661595822e-07 0.0000000000000000e+00  9.9999974290931060e-01 7.6332319486130770e-07 0.0000000000000000e+00  1.0000002826023386e+00 -8.2607944077514217e-07 0.0000000000000000e+00  9.9999969481247752e-01 8.8978037635201800e-07 0.0000000000000000e+00  1.0000003271089044e+00 -9.4543552976459749e-07 0.0000000000000000e+00  9.9999965283915782e-01 9.9511042135410785e-07 0.0000000000000000e+00  1.0000003655056366e+00 -1.0368176619433414e-06 0.0000000000000000e+00  9.9999961815098914e-01 1.0702676245577727e-06 0.0000000000000000e+00  1.0000003961331194e+00 -1.0947155396208531e-06 0.0000000000000000e+00  9.9999959172028996e-01 1.1097849627789785e-06 0.0000000000000000e+00  1.0000004182870459e+00 -1.1151615246361945e-06 0.0000000000000000e+00  9.9999957380753435e-01 1.1107114387507996e-06 0.0000000000000000e+00  1.0000004320831761e+00 -1.0964270375799077e-06 0.0000000000000000e+00  9.9999956391302125e-01 1.0724419245913831e-06 0.0000000000000000e+00  1.0000004383692698e+00 -1.0390062877046342e-06 0.0000000000000000e+00  9.9999956087399622e-01 9.9648441338460845e-07 0.0000000000000000e+00  1.0000004385776231e+00 -9.4533197703261175e-07 0.0000000000000000e+00  9.9999956303848569e-01 8.8608971797879564e-07 0.0000000000000000e+00  1.0000004345250870e+00 -8.1936161717986272e-07 0.0000000000000000e+00  9.9999956848187976e-01 7.4580839641109461e-07 0.0000000000000000e+00  1.0000004281859749e+00 -6.6612855637685639e-07 0.0000000000000000e+00  9.9999957523747551e-01 5.8105341872993037e-07 0.0000000000000000e+00  1.0000004214641887e+00 -4.9133256267597742e-07 0.0000000000000000e+00  9.9999958151598811e-01 3.9773114735946917e-07 0.0000000000000000e+00  1.0000004159870133e+00 -3.0102031900082948e-07 0.0000000000000000e+00  9.9999958589419258e-01 2.0197665609775944e-07 0.0000000000000000e+00  1.0000004129375866e+00 -1.0137717876171381e-07 0.0000000000000000e+00  9.9999958745847339e-01 0.0000000000000000e+00 0.0000000000000000e+00  </DataArray> 
</PointData> 
</Piece>
</UnstructuredGrid>
</VTKFile>