<?xml version="1.0"?>
<VTKFile type="UnstructuredGrid"  version="0.1"  >
<UnstructuredGrid>
<Piece  NumberOfPoints="201" NumberOfCells="200">
<Points>
<DataArray  type="Float64"  NumberOfComponents="3"  format="ascii">-5 0 0  -4.95 0 0  -4.9 0 0  -4.85 0 0  -4.8 0 0  -4.75 0 0  -4.7 0 0  -4.65 0 0  -4.6 0 0  -4.55 0 0  -4.5 0 0  -4.45 0 0  -4.4 0 0  -4.35 0 0  -4.3 0 0  -4.25 0 0  -4.2 0 0  -4.15 0 0  -4.1 0 0  -4.05 0 0  -4 0 0  -3.95 0 0  -3.9 0 0  -3.85 0 0  -3.8 0 0  -3.75 0 0  -3.7 0 0  -3.65 0 0  -3.6 0 0  -3.55 0 0  -3.5 0 0  -3.45 0 0  -3.4 0 0  -3.35 0 0  -3.3 0 0  -3.25 0 0  -3.2 0 0  -3.15 0 0  -3.1 0 0  -3.05 0 0  -3 0 0  -2.95 0 0  -2.9 0 0  -2.85 0 0  -2.8 0 0  -2.75 0 0  -2.7 0 0  -2.65 0 0  -2.6 0 0  -2.55 0 0  -2.5 0 0  -2.45 0 0  -2.4 0 0  -2.35 0 0  -2.3 0 0  -2.25 0 0  -2.2 0 0  -2.15 0 0  -2.1 0 0  -2.05 0 0  -2 0 0  -1.95 0 0  -1.9 0 0  -1.85 0 0  -1.8 0 0  -1.75 0 0  -1.7 0 0  -1.65 0 0  -1.6 0 0  -1.55 0 0  -1.5 0 0  -1.45 0 0  -1.4 0 0  -1.35 0 0  -1.3 0 0  -1.25 0 0  -1.2 0 0  -1.15 0 0  -1.1 0 0  -1.05 0 0  -1 0 0  -0.9500000000000002 0 0  -0.9000000000000004 0 0  -0.8499999999999996 0 0  -0.7999999999999998 0 0  -0.75 0 0  -0.7000000000000002 0 0  -0.6500000000000004 0 0  -0.5999999999999996 0 0  -0.5499999999999998 0 0  -0.5 0 0  -0.4500000000000002 0 0  -0.4000000000000004 0 0  -0.3499999999999996 0 0  -0.2999999999999998 0 0  -0.25 0 0  -0.2000000000000002 0 0  -0.1500000000000004 0 0  -0.09999999999999964 0 0  -0.04999999999999982 0 0  0 0 0  0.04999999999999982 0 0  0.09999999999999964 0 0  0.1500000000000004 0 0  0.2000000000000002 0 0  0.25 0 0  0.2999999999999998 0 0  0.3499999999999996 0 0  0.4000000000000004 0 0  0.4500000000000002 0 0  0.5 0 0  0.5499999999999998 0 0  0.5999999999999996 0 0  0.6500000000000004 0 0  0.7000000000000002 0 0  0.75 0 0  0.7999999999999998 0 0  0.8499999999999996 0 0  0.9000000000000004 0 0  0.9500000000000002 0 0  1 0 0  1.05 0 0  1.1 0 0  1.15 0 0  1.2 0 0  1.25 0 0  1.3 0 0  1.35 0 0  1.4 0 0  1.45 0 0  1.5 0 0  1.55 0 0  1.6 0 0  1.65 0 0  1.7 0 0  1.75 0 0  1.8 0 0  1.85 0 0  1.9 0 0  1.95 0 0  2 0 0  2.05 0 0  2.1 0 0  2.15 0 0  2.2 0 0  2.25 0 0  2.3 0 0  2.35 0 0  2.4 0 0  2.45 0 0  2.5 0 0  2.55 0 0  2.6 0 0  2.65 0 0  2.7 0 0  2.75 0 0  2.8 0 0  2.85 0 0  2.9 0 0  2.95 0 0  3 0 0  3.050000000000001 0 0  3.1 0 0  3.15 0 0  3.199999999999999 0 0  3.25 0 0  3.300000000000001 0 0  3.35 0 0  3.4 0 0  3.449999999999999 0 0  3.5 0 0  3.550000000000001 0 0  3.6 0 0  3.65 0 0  3.699999999999999 0 0  3.75 0 0  3.800000000000001 0 0  3.85 0 0  3.9 0 0  3.949999999999999 0 0  4 0 0  4.050000000000001 0 0  4.1 0 0  4.15 0 0  4.199999999999999 0 0  4.25 0 0  4.300000000000001 0 0  4.35 0 0  4.4 0 0  4.449999999999999 0 0  4.5 0 0  4.550000000000001 0 0  4.6 0 0  4.65 0 0  4.699999999999999 0 0  4.75 0 0  4.800000000000001 0 0  4.85 0 0  4.9 0 0  4.949999999999999 0 0  5 0 0  </DataArray>
</Points>
<Cells>
<DataArray  type="UInt32"  Name="connectivity"  format="ascii">0 1  1 2  2 3  3 4  4 5  5 6  6 7  7 8  8 9  9 10  10 11  11 12  12 13  13 14  14 15  15 16  16 17  17 18  18 19  19 20  20 21  21 22  22 23  23 24  24 25  25 26  26 27  27 28  28 29  29 30  30 31  31 32  32 33  33 34  34 35  35 36  36 37  37 38  38 39  39 40  40 41  41 42  42 43  43 44  44 45  45 46  46 47  47 48  48 49  49 50  50 51  51 52  52 53  53 54  54 55  55 56  56 57  57 58  58 59  59 60  60 61  61 62  62 63  63 64  64 65  65 66  66 67  67 68  68 69  69 70  70 71  71 72  72 73  73 74  74 75  75 76  76 77  77 78  78 79  79 80  80 81  81 82  82 83  83 84  84 85  85 86  86 87  87 88  88 89  89 90  90 91  91 92  92 93  93 94  94 95  95 96  96 97  97 98  98 99  99 100  100 101  101 102  102 103  103 104  104 105  105 106  106 107  107 108  108 109  109 110  110 111  111 112  112 113  113 114  114 115  115 116  116 117  117 118  118 119  119 120  120 121  121 122  122 123  123 124  124 125  125 126  126 127  127 128  128 129  129 130  130 131  131 132  132 133  133 134  134 135  135 136  136 137  137 138  138 139  139 140  140 141  141 142  142 143  143 144  144 145  145 146  146 147  147 148  148 149  149 150  150 151  151 152  152 153  153 154  154 155  155 156  156 157  157 158  158 159  159 160  160 161  161 162  162 163  163 164  164 165  165 166  166 167  167 168  168 169  169 170  170 171  171 172  172 173  173 174  174 175  175 176  176 177  177 178  178 179  179 180  180 181  181 182  182 183  183 184  184 185  185 186  186 187  187 188  188 189  189 190  190 191  191 192  192 193  193 194  194 195  195 196  196 197  197 198  198 199  199 200  </DataArray>
<DataArray  type="UInt32"  Name="offsets"  format="ascii">2 4 6 8 10 12 14 16 18 20 22 24 26 28 30 32 34 36 38 40 42 44 46 48 50 52 54 56 58 60 62 64 66 68 70 72 74 76 78 80 82 84 86 88 90 92 94 96 98 100 102 104 106 108 110 112 114 116 118 120 122 124 126 128 130 132 134 136 138 140 142 144 146 148 150 152 154 156 158 160 162 164 166 168 170 172 174 176 178 180 182 184 186 188 190 192 194 196 198 200 202 204 206 208 210 212 214 216 218 220 222 224 226 228 230 232 234 236 238 240 242 244 246 248 250 252 254 256 258 260 262 264 266 268 270 272 274 276 278 280 282 284 286 288 290 292 294 296 298 300 302 304 306 308 310 312 314 316 318 320 322 324 326 328 330 332 334 336 338 340 342 344 346 348 350 352 354 356 358 360 362 364 366 368 370 372 374 376 378 380 382 384 386 388 390 392 394 396 398 400 </DataArray>
<DataArray  type="UInt8"  Name="types"  format="ascii">3 3 3 3 3 3 3 3 3 3 3 3 3 3 3 3 3 3 3 3 3 3 3 3 3 3 3 3 3 3 3 3 3 3 3 3 3 3 3 3 3 3 3 3 3 3 3 3 3 3 3 3 3 3 3 3 3 3 3 3 3 3 3 3 3 3 3 3 3 3 3 3 3 3 3 3 3 3 3 3 3 3 3 3 3 3 3 3 3 3 3 3 3 3 3 3 3 3 3 3 3 3 3 3 3 3 3 3 3 3 3 3 3 3 3 3 3 3 3 3 3 3 3 3 3 3 3 3 3 3 3 3 3 3 3 3 3 3 3 3 3 3 3 3 3 3 3 3 3 3 3 3 3 3 3 3 3 3 3 3 3 3 3 3 3 3 3 3 3 3 3 3 3 3 3 3 3 3 3 3 3 3 3 3 3 3 3 3 3 3 3 3 3 3 3 3 3 3 3 3 </DataArray>
</Cells>
<PointData  Vectors="(h, u)"> 
<DataArray  type="Float64"  Name="(h, u)"  NumberOfComponents="3" format="ascii">1.0000000000000000e+00 0.0000000000000000e+00 0.0000000000000000e+00  1.0000000000000002e+00 -4.3826687557599304e-16 0.0000000000000000e+00  1.0000000000000000e+00 3.4781803050810635e-16 0.0000000000000000e+00  1.0000000000000002e+00 -1.5597151729672728e-15 0.0000000000000000e+00  1.0000000000000002e+00 8.5165098509707699e-16 0.0000000000000000e+00  1.0000000000000000e+00 -1.5706665430085780e-15 0.0000000000000000e+00  1.0000000000000007e+00 1.7592313102054797e-15 0.0000000000000000e+00  9.9999999999999978e-01 -1.8471252037845813e-15 0.0000000000000000e+00  1.0000000000000009e+00 3.3512103076027450e-15 0.0000000000000000e+00  9.9999999999999933e-01 -4.2624512339335408e-15 0.0000000000000000e+00  1.0000000000000022e+00 7.2302592006637004e-15 0.0000000000000000e+00  9.9999999999999756e-01 -7.5390829498665339e-15 0.0000000000000000e+00  1.0000000000000038e+00 1.2773937559888425e-14 0.0000000000000000e+00  9.9999999999999467e-01 -1.6807287820949564e-14 0.0000000000000000e+00  1.0000000000000078e+00 2.4395322426813800e-14 0.0000000000000000e+00  9.9999999999998890e-01 -3.4685160903026063e-14 0.0000000000000000e+00  1.0000000000000158e+00 4.8432552502461126e-14 0.0000000000000000e+00  9.9999999999997791e-01 -6.9780641049571904e-14 0.0000000000000000e+00  1.0000000000000313e+00 9.6985755262862918e-14 0.0000000000000000e+00  9.9999999999995637e-01 -1.3737419984748804e-13 0.0000000000000000e+00  1.0000000000000615e+00 1.9200496418778341e-13 0.0000000000000000e+00  9.9999999999991396e-01 -2.7067900019461362e-13 0.0000000000000000e+00  1.0000000000001208e+00 3.7679953663722150e-13 0.0000000000000000e+00  9.9999999999983191e-01 -5.2757281819152601e-13 0.0000000000000000e+00  1.0000000000002347e+00 7.3439355578008416e-13 0.0000000000000000e+00  9.9999999999967382e-01 -1.0228078498159351e-12 0.0000000000000000e+00  1.0000000000004534e+00 1.4207529641431833e-12 0.0000000000000000e+00  9.9999999999937128e-01 -1.9687308637047683e-12 0.0000000000000000e+00  1.0000000000008700e+00 2.7245482995415795e-12 0.0000000000000000e+00  9.9999999999879896e-01 -3.7629029596322094e-12 0.0000000000000000e+00  1.0000000000016558e+00 5.1855050527969773e-12 0.0000000000000000e+00  9.9999999999772349e-01 -7.1299922902437319e-12 0.0000000000000000e+00  1.0000000000031244e+00 9.7843082295560839e-12 0.0000000000000000e+00  9.9999999999572309e-01 -1.3394350823366144e-11 0.0000000000000000e+00  1.0000000000058418e+00 1.8294394722960236e-11 0.0000000000000000e+00  9.9999999999204114e-01 -2.4924281293869434e-11 0.0000000000000000e+00  1.0000000000108160e+00 3.3870779290609822e-11 0.0000000000000000e+00  9.9999999998534117e-01 -4.5905310637724884e-11 0.0000000000000000e+00  1.0000000000198124e+00 6.2043676645341087e-11 0.0000000000000000e+00  9.9999999997330058e-01 -8.3610961117023699e-11 0.0000000000000000e+00  1.0000000000358720e+00 1.1233485436839422e-10 0.0000000000000000e+00  9.9999999995195776e-01 -1.5044709345710968e-10 0.0000000000000000e+00  1.0000000000641278e+00 2.0081961153605240e-10 0.0000000000000000e+00  9.9999999991470045e-01 -2.6712092498223768e-10 0.0000000000000000e+00  1.0000000001130442e+00 3.5400501440752767e-10 0.0000000000000000e+00  9.9999999985076815e-01 -4.6732873043865440e-10 0.0000000000000000e+00  1.0000000001961957e+00 6.1439830559082726e-10 0.0000000000000000e+00  9.9999999974318232e-01 -8.0424088279727285e-10 0.0000000000000000e+00  1.0000000003346177e+00 1.0478744679884364e-09 0.0000000000000000e+00  9.9999999956616337e-01 -1.3585862736798216e-09 0.0000000000000000e+00  1.0000000005595087e+00 1.7521337658146957e-09 0.0000000000000000e+00  9.9999999928250827e-01 -2.2468683599526773e-09 0.0000000000000000e+00  1.0000000009144503e+00 2.8636529672705425e-09 0.0000000000000000e+00  9.9999999884227364e-01 -3.6254895032903089e-09 0.0000000000000000e+00  1.0000000014550814e+00 4.5566641441589637e-09 0.0000000000000000e+00  9.9999999818580809e-01 -5.6812691632125612e-09 0.0000000000000000e+00  1.0000000022419056e+00 7.0205716422983699e-09 0.0000000000000000e+00  9.9999999725714717e-01 -8.5897096069107941e-09 0.0000000000000000e+00  1.0000000033182657e+00 1.0390210466330070e-08 0.0000000000000000e+00  9.9999999603875267e-01 -1.2408936527353703e-08 0.0000000000000000e+00  1.0000000046612236e+00 1.4582406245943259e-08 0.0000000000000000e+00  9.9999999462893996e-01 -1.6870761407428674e-08 0.0000000000000000e+00  1.0000000061006280e+00 1.8927270746777610e-08 0.0000000000000000e+00  9.9999999343713342e-01 -2.1159663679151759e-08 0.0000000000000000e+00  1.0000000073544681e+00 2.0976097080877164e-08 0.0000000000000000e+00  9.9999999408427886e-01 -2.5372212464595836e-08 0.0000000000000000e+00  1.0000000099731443e+00 8.7660877791436769e-09 0.0000000000000000e+00  1.0000000067137160e+00 -5.1516990403984934e-08 0.0000000000000000e+00  1.0000000388765491e+00 -1.0864132648987828e-07 0.0000000000000000e+00  1.0000001172258535e+00 -3.5220540231582190e-07 0.0000000000000000e+00  1.0000003433644082e+00 -1.1317785921333935e-06 0.0000000000000000e+00  1.0000010807303827e+00 -3.2696955479374722e-06 0.0000000000000000e+00  1.0000031172533390e+00 -9.9532072518921103e-06 0.0000000000000000e+00  1.0000092156144145e+00 -2.8573267520772254e-05 0.0000000000000000e+00  1.0000262268415363e+00 -8.2522654920656627e-05 0.0000000000000000e+00  1.0000743585804801e+00 -2.3236494900202457e-04 0.0000000000000000e+00  1.0002071525276488e+00 -6.4924026598315221e-04 0.0000000000000000e+00  1.0005722452395298e+00 -1.7914501292602817e-03 0.0000000000000000e+00  1.0015660955129704e+00 -4.9036256250585388e-03 0.0000000000000000e+00  1.0042493282796836e+00 -1.3302104331601432e-02 0.0000000000000000e+00  1.0113696099082110e+00 -3.5559944937656296e-02 0.0000000000000000e+00  1.0294636682931784e+00 -9.1996193719989322e-02 0.0000000000000000e+00  1.0710859821006864e+00 -2.2097047706590919e-01 0.0000000000000000e+00  1.1502247677409312e+00 -4.6301600200928050e-01 0.0000000000000000e+00  1.2650105145503270e+00 -8.0441993739222906e-01 0.0000000000000000e+00  1.3901141679253946e+00 -1.1600667730156804e+00 0.0000000000000000e+00  1.4975120957221659e+00 -1.4505312372773616e+00 0.0000000000000000e+00  1.5736699309861708e+00 -1.6481295011433006e+00 0.0000000000000000e+00  1.6172979013147850e+00 -1.7585117791847000e+00 0.0000000000000000e+00  1.6328252439089390e+00 -1.7979500401684891e+00 0.0000000000000000e+00  1.6259466733550390e+00 -1.7825616926153758e+00 0.0000000000000000e+00  1.6019612075733574e+00 -1.7252451446465469e+00 0.0000000000000000e+00  1.5653858715910465e+00 -1.6355593442838563e+00 0.0000000000000000e+00  1.5202475956056136e+00 -1.5198945253087401e+00 0.0000000000000000e+00  1.4705873386467496e+00 -1.3812189607063183e+00 0.0000000000000000e+00  1.4208942104340248e+00 -1.2186669869723996e+00 0.0000000000000000e+00  1.3760076124571909e+00 -1.0282375648590902e+00 0.0000000000000000e+00  1.3398291655939938e+00 -8.0680425944165801e-01 0.0000000000000000e+00  1.3141926160637070e+00 -5.5626724912336334e-01 0.0000000000000000e+00  1.2991832161712866e+00 -2.8387663354241593e-01 0.0000000000000000e+00  1.2942717408357756e+00 -6.7419437918629571e-16 0.0000000000000000e+00  1.2991832161712866e+00 2.8387663354241638e-01 0.0000000000000000e+00  1.3141926160637072e+00 5.5626724912336212e-01 0.0000000000000000e+00  1.3398291655939936e+00 8.0680425944165857e-01 0.0000000000000000e+00  1.3760076124571912e+00 1.0282375648590902e+00 0.0000000000000000e+00  1.4208942104340245e+00 1.2186669869724005e+00 0.0000000000000000e+00  1.4705873386467503e+00 1.3812189607063172e+00 0.0000000000000000e+00  1.5202475956056138e+00 1.5198945253087406e+00 0.0000000000000000e+00  1.5653858715910469e+00 1.6355593442838559e+00 0.0000000000000000e+00  1.6019612075733574e+00 1.7252451446465475e+00 0.0000000000000000e+00  1.6259466733550392e+00 1.7825616926153751e+00 0.0000000000000000e+00  1.6328252439089386e+00 1.7979500401684891e+00 0.0000000000000000e+00  1.6172979013147855e+00 1.7585117791847005e+00 0.0000000000000000e+00  1.5736699309861708e+00 1.6481295011433001e+00 0.0000000000000000e+00  1.4975120957221666e+00 1.4505312372773602e+00 0.0000000000000000e+00  1.3901141679253941e+00 1.1600667730156813e+00 0.0000000000000000e+00  1.2650105145503272e+00 8.0441993739222761e-01 0.0000000000000000e+00  1.1502247677409314e+00 4.6301600200928000e-01 0.0000000000000000e+00  1.0710859821006868e+00 2.2097047706590847e-01 0.0000000000000000e+00  1.0294636682931786e+00 9.1996193719989613e-02 0.0000000000000000e+00  1.0113696099082112e+00 3.5559944937657094e-02 0.0000000000000000e+00  1.0042493282796838e+00 1.3302104331601438e-02 0.0000000000000000e+00  1.0015660955129704e+00 4.9036256250608234e-03 0.0000000000000000e+00  1.0005722452395300e+00 1.7914501292598558e-03 0.0000000000000000e+00  1.0002071525276486e+00 6.4924026598519593e-04 0.0000000000000000e+00  1.0000743585804799e+00 2.3236494900176916e-04 0.0000000000000000e+00  1.0000262268415363e+00 8.2522654921774548e-05 0.0000000000000000e+00  1.0000092156144147e+00 2.8573267519965431e-05 0.0000000000000000e+00  1.0000031172533395e+00 9.9532072541567054e-06 0.0000000000000000e+00  1.0000010807303825e+00 3.2696955475997059e-06 0.0000000000000000e+00  1.0000003433644082e+00 1.1317785931088847e-06 0.0000000000000000e+00  1.0000001172258535e+00 3.5220540119617330e-07 0.0000000000000000e+00  1.0000000388765491e+00 1.0864132568296744e-07 0.0000000000000000e+00  1.0000000067137160e+00 5.1516989754784538e-08 0.0000000000000000e+00  1.0000000099731439e+00 -8.7660884722839874e-09 0.0000000000000000e+00  9.9999999408427886e-01 2.5372212075246002e-08 0.0000000000000000e+00  1.0000000073544675e+00 -2.0976096991650432e-08 0.0000000000000000e+00  9.9999999343713342e-01 2.1159663554338096e-08 0.0000000000000000e+00  1.0000000061006280e+00 -1.8927270021984947e-08 0.0000000000000000e+00  9.9999999462894007e-01 1.6870762299442091e-08 0.0000000000000000e+00  1.0000000046612236e+00 -1.4582405361064858e-08 0.0000000000000000e+00  9.9999999603875278e-01 1.2408936502341370e-08 0.0000000000000000e+00  1.0000000033182657e+00 -1.0390210596330860e-08 0.0000000000000000e+00  9.9999999725714739e-01 8.5897095126282632e-09 0.0000000000000000e+00  1.0000000022419056e+00 -7.0205710463765173e-09 0.0000000000000000e+00  9.9999999818580798e-01 5.6812685398638298e-09 0.0000000000000000e+00  1.0000000014550814e+00 -4.5566638455603920e-09 0.0000000000000000e+00  9.9999999884227342e-01 3.6254890676393091e-09 0.0000000000000000e+00  1.0000000009144503e+00 -2.8636530250486033e-09 0.0000000000000000e+00  9.9999999928250782e-01 2.2468679803559708e-09 0.0000000000000000e+00  1.0000000005595089e+00 -1.7521341883604417e-09 0.0000000000000000e+00  9.9999999956616314e-01 1.3585851768166153e-09 0.0000000000000000e+00  1.0000000003346179e+00 -1.0478752433532194e-09 0.0000000000000000e+00  9.9999999974318221e-01 8.0424045385440765e-10 0.0000000000000000e+00  1.0000000001961962e+00 -6.1439922674487312e-10 0.0000000000000000e+00  9.9999999985076804e-01 4.6732931504339217e-10 0.0000000000000000e+00  1.0000000001130447e+00 -3.5400584027476363e-10 0.0000000000000000e+00  9.9999999991470034e-01 2.6712185009465384e-10 0.0000000000000000e+00  1.0000000000641278e+00 -2.0082026668984686e-10 0.0000000000000000e+00  9.9999999995195787e-01 1.5044767297914624e-10 0.0000000000000000e+00  1.0000000000358720e+00 -1.1233504992873540e-10 0.0000000000000000e+00  9.9999999997330080e-01 8.3611785743520792e-11 0.0000000000000000e+00  1.0000000000198124e+00 -6.2043127750817795e-11 0.0000000000000000e+00  9.9999999998534128e-01 4.5905882903954787e-11 0.0000000000000000e+00  1.0000000000108160e+00 -3.3870775087673329e-11 0.0000000000000000e+00  9.9999999999204114e-01 2.4925212444183449e-11 0.0000000000000000e+00  1.0000000000058418e+00 -1.8294282522565545e-11 0.0000000000000000e+00  9.9999999999572298e-01 1.3394980333467956e-11 0.0000000000000000e+00  1.0000000000031242e+00 -9.7842189471914551e-12 0.0000000000000000e+00  9.9999999999772327e-01 7.1301138613632313e-12 0.0000000000000000e+00  1.0000000000016556e+00 -5.1857761863679593e-12 0.0000000000000000e+00  9.9999999999879885e-01 3.7619466155588014e-12 0.0000000000000000e+00  1.0000000000008700e+00 -2.7249790646433718e-12 0.0000000000000000e+00  9.9999999999937161e-01 1.9690483200227668e-12 0.0000000000000000e+00  1.0000000000004534e+00 -1.4203299284670373e-12 0.0000000000000000e+00  9.9999999999967404e-01 1.0232023370716542e-12 0.0000000000000000e+00  1.0000000000002345e+00 -7.3468898115478981e-13 0.0000000000000000e+00  9.9999999999983191e-01 5.2766628716992857e-13 0.0000000000000000e+00  1.0000000000001206e+00 -3.7730034904514087e-13 0.0000000000000000e+00  9.9999999999991396e-01 2.7014364277581503e-13 0.0000000000000000e+00  1.0000000000000615e+00 -1.9255204640632018e-13 0.0000000000000000e+00  9.9999999999995626e-01 1.3731324286984631e-13 0.0000000000000000e+00  1.0000000000000311e+00 -9.7686343798306884e-14 0.0000000000000000e+00  9.9999999999997802e-01 6.8314439497566989e-14 0.0000000000000000e+00  1.0000000000000158e+00 -4.8953778926613005e-14 0.0000000000000000e+00  9.9999999999998912e-01 3.4320739020779308e-14 0.0000000000000000e+00  1.0000000000000080e+00 -2.4123833814779123e-14 0.0000000000000000e+00  9.9999999999999478e-01 1.6175395778714229e-14 0.0000000000000000e+00  1.0000000000000040e+00 -1.1817527925759641e-14 0.0000000000000000e+00  9.9999999999999778e-01 7.7152399590365795e-15 0.0000000000000000e+00  1.0000000000000020e+00 -5.3557609988149951e-15 0.0000000000000000e+00  9.9999999999999900e-01 3.4833746573168584e-15 0.0000000000000000e+00  1.0000000000000011e+00 -2.3259654862845746e-15 0.0000000000000000e+00  9.9999999999999967e-01 1.4746839242682580e-15 0.0000000000000000e+00  1.0000000000000007e+00 -7.1734845184196349e-16 0.0000000000000000e+00  1.0000000000000000e+00 5.0187210045223150e-16 0.0000000000000000e+00  1.0000000000000004e+00 6.0458228949687471e-16 0.0000000000000000e+00  1.0000000000000000e+00 3.8408318620747033e-16 0.0000000000000000e+00  1.0000000000000002e+00 2.2277118699570933e-16 0.0000000000000000e+00  1.0000000000000000e+00 3.5542555676385570e-17 0.0000000000000000e+00  1.0000000000000002e+00 0.0000000000000000e+00 0.0000000000000000e+00  </DataArray> 
</PointData> 
</Piece>
</UnstructuredGrid>
</VTKFile>