<?xml version="1.0"?>
<VTKFile type="UnstructuredGrid"  version="0.1"  >
<UnstructuredGrid>
<Piece  NumberOfPoints="201" NumberOfCells="200">
<Points>
<DataArray  type="Float64"  NumberOfComponents="3"  format="ascii">-5 0 0  -4.95 0 0  -4.9 0 0  -4.85 0 0  -4.8 0 0  -4.75 0 0  -4.7 0 0  -4.65 0 0  -4.6 0 0  -4.55 0 0  -4.5 0 0  -4.45 0 0  -4.4 0 0  -4.35 0 0  -4.3 0 0  -4.25 0 0  -4.2 0 0  -4.15 0 0  -4.1 0 0  -4.05 0 0  -4 0 0  -3.95 0 0  -3.9 0 0  -3.85 0 0  -3.8 0 0  -3.75 0 0  -3.7 0 0  -3.65 0 0  -3.6 0 0  -3.55 0 0  -3.5 0 0  -3.45 0 0  -3.4 0 0  -3.35 0 0  -3.3 0 0  -3.25 0 0  -3.2 0 0  -3.15 0 0  -3.1 0 0  -3.05 0 0  -3 0 0  -2.95 0 0  -2.9 0 0  -2.85 0 0  -2.8 0 0  -2.75 0 0  -2.7 0 0  -2.65 0 0  -2.6 0 0  -2.55 0 0  -2.5 0 0  -2.45 0 0  -2.4 0 0  -2.35 0 0  -2.3 0 0  -2.25 0 0  -2.2 0 0  -2.15 0 0  -2.1 0 0  -2.05 0 0  -2 0 0  -1.95 0 0  -1.9 0 0  -1.85 0 0  -1.8 0 0  -1.75 0 0  -1.7 0 0  -1.65 0 0  -1.6 0 0  -1.55 0 0  -1.5 0 0  -1.45 0 0  -1.4 0 0  -1.35 0 0  -1.3 0 0  -1.25 0 0  -1.2 0 0  -1.15 0 0  -1.1 0 0  -1.05 0 0  -1 0 0  -0.9500000000000002 0 0  -0.9000000000000004 0 0  -0.8499999999999996 0 0  -0.7999999999999998 0 0  -0.75 0 0  -0.7000000000000002 0 0  -0.6500000000000004 0 0  -0.5999999999999996 0 0  -0.5499999999999998 0 0  -0.5 0 0  -0.4500000000000002 0 0  -0.4000000000000004 0 0  -0.3499999999999996 0 0  -0.2999999999999998 0 0  -0.25 0 0  -0.2000000000000002 0 0  -0.1500000000000004 0 0  -0.09999999999999964 0 0  -0.04999999999999982 0 0  0 0 0  0.04999999999999982 0 0  0.09999999999999964 0 0  0.1500000000000004 0 0  0.2000000000000002 0 0  0.25 0 0  0.2999999999999998 0 0  0.3499999999999996 0 0  0.4000000000000004 0 0  0.4500000000000002 0 0  0.5 0 0  0.5499999999999998 0 0  0.5999999999999996 0 0  0.6500000000000004 0 0  0.7000000000000002 0 0  0.75 0 0  0.7999999999999998 0 0  0.8499999999999996 0 0  0.9000000000000004 0 0  0.9500000000000002 0 0  1 0 0  1.05 0 0  1.1 0 0  1.15 0 0  1.2 0 0  1.25 0 0  1.3 0 0  1.35 0 0  1.4 0 0  1.45 0 0  1.5 0 0  1.55 0 0  1.6 0 0  1.65 0 0  1.7 0 0  1.75 0 0  1.8 0 0  1.85 0 0  1.9 0 0  1.95 0 0  2 0 0  2.05 0 0  2.1 0 0  2.15 0 0  2.2 0 0  2.25 0 0  2.3 0 0  2.35 0 0  2.4 0 0  2.45 0 0  2.5 0 0  2.55 0 0  2.6 0 0  2.65 0 0  2.7 0 0  2.75 0 0  2.8 0 0  2.85 0 0  2.9 0 0  2.95 0 0  3 0 0  3.050000000000001 0 0  3.1 0 0  3.15 0 0  3.199999999999999 0 0  3.25 0 0  3.300000000000001 0 0  3.35 0 0  3.4 0 0  3.449999999999999 0 0  3.5 0 0  3.550000000000001 0 0  3.6 0 0  3.65 0 0  3.699999999999999 0 0  3.75 0 0  3.800000000000001 0 0  3.85 0 0  3.9 0 0  3.949999999999999 0 0  4 0 0  4.050000000000001 0 0  4.1 0 0  4.15 0 0  4.199999999999999 0 0  4.25 0 0  4.300000000000001 0 0  4.35 0 0  4.4 0 0  4.449999999999999 0 0  4.5 0 0  4.550000000000001 0 0  4.6 0 0  4.65 0 0  4.699999999999999 0 0  4.75 0 0  4.800000000000001 0 0  4.85 0 0  4.9 0 0  4.949999999999999 0 0  5 0 0  </DataArray>
</Points>
<Cells>
<DataArray  type="UInt32"  Name="connectivity"  format="ascii">0 1  1 2  2 3  3 4  4 5  5 6  6 7  7 8  8 9  9 10  10 11  11 12  12 13  13 14  14 15  15 16  16 17  17 18  18 19  19 20  20 21  21 22  22 23  23 24  24 25  25 26  26 27  27 28  28 29  29 30  30 31  31 32  32 33  33 34  34 35  35 36  36 37  37 38  38 39  39 40  40 41  41 42  42 43  43 44  44 45  45 46  46 47  47 48  48 49  49 50  50 51  51 52  52 53  53 54  54 55  55 56  56 57  57 58  58 59  59 60  60 61  61 62  62 63  63 64  64 65  65 66  66 67  67 68  68 69  69 70  70 71  71 72  72 73  73 74  74 75  75 76  76 77  77 78  78 79  79 80  80 81  81 82  82 83  83 84  84 85  85 86  86 87  87 88  88 89  89 90  90 91  91 92  92 93  93 94  94 95  95 96  96 97  97 98  98 99  99 100  100 101  101 102  102 103  103 104  104 105  105 106  106 107  107 108  108 109  109 110  110 111  111 112  112 113  113 114  114 115  115 116  116 117  117 118  118 119  119 120  120 121  121 122  122 123  123 124  124 125  125 126  126 127  127 128  128 129  129 130  130 131  131 132  132 133  133 134  134 135  135 136  136 137  137 138  138 139  139 140  140 141  141 142  142 143  143 144  144 145  145 146  146 147  147 148  148 149  149 150  150 151  151 152  152 153  153 154  154 155  155 156  156 157  157 158  158 159  159 160  160 161  161 162  162 163  163 164  164 165  165 166  166 167  167 168  168 169  169 170  170 171  171 172  172 173  173 174  174 175  175 176  176 177  177 178  178 179  179 180  180 181  181 182  182 183  183 184  184 185  185 186  186 187  187 188  188 189  189 190  190 191  191 192  192 193  193 194  194 195  195 196  196 197  197 198  198 199  199 200  </DataArray>
<DataArray  type="UInt32"  Name="offsets"  format="ascii">2 4 6 8 10 12 14 16 18 20 22 24 26 28 30 32 34 36 38 40 42 44 46 48 50 52 54 56 58 60 62 64 66 68 70 72 74 76 78 80 82 84 86 88 90 92 94 96 98 100 102 104 106 108 110 112 114 116 118 120 122 124 126 128 130 132 134 136 138 140 142 144 146 148 150 152 154 156 158 160 162 164 166 168 170 172 174 176 178 180 182 184 186 188 190 192 194 196 198 200 202 204 206 208 210 212 214 216 218 220 222 224 226 228 230 232 234 236 238 240 242 244 246 248 250 252 254 256 258 260 262 264 266 268 270 272 274 276 278 280 282 284 286 288 290 292 294 296 298 300 302 304 306 308 310 312 314 316 318 320 322 324 326 328 330 332 334 336 338 340 342 344 346 348 350 352 354 356 358 360 362 364 366 368 370 372 374 376 378 380 382 384 386 388 390 392 394 396 398 400 </DataArray>
<DataArray  type="UInt8"  Name="types"  format="ascii">3 3 3 3 3 3 3 3 3 3 3 3 3 3 3 3 3 3 3 3 3 3 3 3 3 3 3 3 3 3 3 3 3 3 3 3 3 3 3 3 3 3 3 3 3 3 3 3 3 3 3 3 3 3 3 3 3 3 3 3 3 3 3 3 3 3 3 3 3 3 3 3 3 3 3 3 3 3 3 3 3 3 3 3 3 3 3 3 3 3 3 3 3 3 3 3 3 3 3 3 3 3 3 3 3 3 3 3 3 3 3 3 3 3 3 3 3 3 3 3 3 3 3 3 3 3 3 3 3 3 3 3 3 3 3 3 3 3 3 3 3 3 3 3 3 3 3 3 3 3 3 3 3 3 3 3 3 3 3 3 3 3 3 3 3 3 3 3 3 3 3 3 3 3 3 3 3 3 3 3 3 3 3 3 3 3 3 3 3 3 3 3 3 3 3 3 3 3 3 3 </DataArray>
</Cells>
<PointData  Vectors="(h, u)"> 
<DataArray  type="Float64"  Name="(h, u)"  NumberOfComponents="3" format="ascii">1.2781497974757388e+00 0.0000000000000000e+00 0.0000000000000000e+00  1.2781720151028129e+00 4.0817775905582755e-02 0.0000000000000000e+00  1.2782364705912639e+00 8.1606279629819867e-02 0.0000000000000000e+00  1.2783466508745971e+00 1.2233592958248590e-01 0.0000000000000000e+00  1.2785016500110933e+00 1.6297534692468765e-01 0.0000000000000000e+00  1.2787061870166347e+00 2.0349211914062720e-01 0.0000000000000000e+00  1.2789605738046939e+00 2.4385003298223035e-01 0.0000000000000000e+00  1.2792705867349481e+00 2.8401076589943469e-01 0.0000000000000000e+00  1.2796374921496605e+00 3.2392970349868916e-01 0.0000000000000000e+00  1.2800676482177307e+00 3.6355832292209661e-01 0.0000000000000000e+00  1.2805625397377824e+00 4.0283835209077784e-01 0.0000000000000000e+00  1.2811279047700721e+00 4.4170441536626870e-01 0.0000000000000000e+00  1.2817635997476808e+00 4.8007602941782240e-01 0.0000000000000000e+00  1.2824718591412769e+00 5.1785964683045860e-01 0.0000000000000000e+00  1.2832465180701316e+00 5.5493734011611506e-01 0.0000000000000000e+00  1.2840795771907374e+00 5.9116633680686492e-01 0.0000000000000000e+00  1.2849486261032046e+00 6.2636162583803945e-01 0.0000000000000000e+00  1.2858198533545315e+00 6.6028848969360565e-01 0.0000000000000000e+00  1.2866309337179396e+00 6.9263225857934674e-01 0.0000000000000000e+00  1.2872863213377184e+00 7.2297324154400511e-01 0.0000000000000000e+00  1.2876296560253959e+00 7.5072814010626832e-01 0.0000000000000000e+00  1.2874232437593600e+00 7.7508547287874252e-01 0.0000000000000000e+00  1.2863003389415051e+00 7.9489142749138653e-01 0.0000000000000000e+00  1.2837203696393671e+00 8.0851880679393728e-01 0.0000000000000000e+00  1.2789017590609766e+00 8.1368987597923970e-01 0.0000000000000000e+00  1.2707806796752370e+00 8.0733538779475922e-01 0.0000000000000000e+00  1.2580134733143713e+00 7.8556692876192236e-01 0.0000000000000000e+00  1.2391404246576023e+00 7.4404438685109975e-01 0.0000000000000000e+00  1.2130092359230906e+00 6.7908090660596010e-01 0.0000000000000000e+00  1.1795602226706652e+00 5.8985903734039125e-01 0.0000000000000000e+00  1.1407275923787972e+00 4.8131744794337145e-01 0.0000000000000000e+00  1.1007162166472424e+00 3.6559140514653943e-01 0.0000000000000000e+00  1.0647062007818238e+00 2.5873950902115900e-01 0.0000000000000000e+00  1.0364582823350279e+00 1.7331506784200074e-01 0.0000000000000000e+00  1.0168646620033783e+00 1.1317778262489941e-01 0.0000000000000000e+00  1.0045503484736640e+00 7.4811367690539407e-02 0.0000000000000000e+00  9.9735733115704905e-01 5.1909210496453785e-02 0.0000000000000000e+00  9.9338348638431284e-01 3.8742752720843758e-02 0.0000000000000000e+00  9.9129268898671130e-01 3.1261226308184162e-02 0.0000000000000000e+00  9.9025769003026110e-01 2.6953459316113312e-02 0.0000000000000000e+00  9.8979565859757279e-01 2.4368300402830799e-02 0.0000000000000000e+00  9.8963943902942086e-01 2.2706353713039428e-02 0.0000000000000000e+00  9.8964124754960336e-01 2.1535492653378941e-02 0.0000000000000000e+00  9.8972394042334344e-01 2.0629382511767751e-02 0.0000000000000000e+00  9.8984473201874579e-01 1.9867817979820970e-02 0.0000000000000000e+00  9.8998303627115836e-01 1.9190179404169148e-02 0.0000000000000000e+00  9.9012654265601197e-01 1.8563332094868750e-02 0.0000000000000000e+00  9.9027053712612223e-01 1.7971543629281543e-02 0.0000000000000000e+00  9.9041128768702524e-01 1.7404990200118597e-02 0.0000000000000000e+00  9.9054829850672066e-01 1.6859640780471776e-02 0.0000000000000000e+00  9.9068025202562138e-01 1.6331867989938860e-02 0.0000000000000000e+00  9.9080764988019809e-01 1.5820601751182002e-02 0.0000000000000000e+00  9.9092989977590440e-01 1.5323947596265885e-02 0.0000000000000000e+00  9.9104764215087282e-01 1.4841551331598131e-02 0.0000000000000000e+00  9.9116055467824138e-01 1.4372091798525718e-02 0.0000000000000000e+00  9.9126920156405507e-01 1.3915366558776957e-02 0.0000000000000000e+00  9.9137340562169718e-01 1.3470312924102480e-02 0.0000000000000000e+00  9.9147361030753478e-01 1.3036748032707738e-02 0.0000000000000000e+00  9.9156974464769587e-01 1.2613766136309686e-02 0.0000000000000000e+00  9.9166213043613860e-01 1.2201184345995581e-02 0.0000000000000000e+00  9.9175078594046617e-01 1.1798205029197626e-02 0.0000000000000000e+00  9.9183592068371773e-01 1.1404656338410164e-02 0.0000000000000000e+00  9.9191763119865406e-01 1.1019812232766723e-02 0.0000000000000000e+00  9.9199602574597945e-01 1.0643532005440276e-02 0.0000000000000000e+00  9.9207127041255805e-01 1.0275127562571526e-02 0.0000000000000000e+00  9.9214338252321033e-01 9.9145119338170974e-03 0.0000000000000000e+00  9.9221259044821619e-01 9.5610030197189784e-03 0.0000000000000000e+00  9.9227882965675496e-01 9.2145897234462617e-03 0.0000000000000000e+00  9.9234238471237879e-01 8.8745667978336294e-03 0.0000000000000000e+00  9.9240311705392104e-01 8.5410184915023658e-03 0.0000000000000000e+00  9.9246136229849713e-01 8.2131918154234648e-03 0.0000000000000000e+00  9.9251691463378056e-01 7.8912811924459515e-03 0.0000000000000000e+00  9.9257015626792344e-01 7.5744675684114122e-03 0.0000000000000000e+00  9.9262082015490061e-01 7.2630640614108144e-03 0.0000000000000000e+00  9.9266933103211741e-01 6.9561748564539710e-03 0.0000000000000000e+00  9.9271536614793832e-01 6.6542328265865825e-03 0.0000000000000000e+00  9.9275938888150916e-01 6.3562630966944450e-03 0.0000000000000000e+00  9.9280102601947418e-01 6.0628113979387657e-03 0.0000000000000000e+00  9.9284077572712359e-01 5.7728299691168052e-03 0.0000000000000000e+00  9.9287821940344023e-01 5.4869627531557233e-03 0.0000000000000000e+00  9.9291388612485543e-01 5.2041031461928511e-03 0.0000000000000000e+00  9.9294731683516491e-01 4.9249717551704299e-03 0.0000000000000000e+00  9.9297906765058819e-01 4.6484238678350552e-03 0.0000000000000000e+00  9.9300864381721643e-01 4.3752296548315688e-03 0.0000000000000000e+00  9.9303662469032195e-01 4.1042321337877857e-03 0.0000000000000000e+00  9.9306248433869826e-01 3.8362200547280433e-03 0.0000000000000000e+00  9.9308682170421825e-01 3.5700532992418697e-03 0.0000000000000000e+00  9.9310908390183461e-01 3.3065061326635159e-03 0.0000000000000000e+00  9.9312988601738017e-01 3.0444858747251135e-03 0.0000000000000000e+00  9.9314865210233494e-01 2.7847189438271634e-03 0.0000000000000000e+00  9.9316601018363793e-01 2.5261903474977131e-03 0.0000000000000000e+00  9.9318136480338892e-01 2.2695466383499223e-03 0.0000000000000000e+00  9.9319535396185454e-01 2.0138788577253848e-03 0.0000000000000000e+00  9.9320736593725945e-01 1.7597244455668599e-03 0.0000000000000000e+00  9.9321804593761187e-01 1.5063055779035934e-03 0.0000000000000000e+00  9.9322676896311146e-01 1.2540252881893090e-03 0.0000000000000000e+00  9.9323418481678516e-01 1.0022576575325396e-03 0.0000000000000000e+00  9.9323965800478442e-01 7.5125089916604324e-04 0.0000000000000000e+00  9.9324384041165148e-01 5.0054660653824209e-04 0.0000000000000000e+00  9.9324608868745512e-01 2.5022332164883381e-04 0.0000000000000000e+00  9.9324705433484384e-01 -1.5359020855094343e-16 0.0000000000000000e+00  9.9324608868745512e-01 -2.5022332164861095e-04 0.0000000000000000e+00  9.9324384041165148e-01 -5.0054660653840635e-04 0.0000000000000000e+00  9.9323965800478442e-01 -7.5125089916551599e-04 0.0000000000000000e+00  9.9323418481678505e-01 -1.0022576575321716e-03 0.0000000000000000e+00  9.9322676896311146e-01 -1.2540252881884553e-03 0.0000000000000000e+00  9.9321804593761154e-01 -1.5063055779027848e-03 0.0000000000000000e+00  9.9320736593725911e-01 -1.7597244455660468e-03 0.0000000000000000e+00  9.9319535396185410e-01 -2.0138788577254269e-03 0.0000000000000000e+00  9.9318136480338859e-01 -2.2695466383484768e-03 0.0000000000000000e+00  9.9316601018363726e-01 -2.5261903474972608e-03 0.0000000000000000e+00  9.9314865210233438e-01 -2.7847189438259794e-03 0.0000000000000000e+00  9.9312988601737962e-01 -3.0444858747249968e-03 0.0000000000000000e+00  9.9310908390183428e-01 -3.3065061326625757e-03 0.0000000000000000e+00  9.9308682170421780e-01 -3.5700532992416229e-03 0.0000000000000000e+00  9.9306248433869782e-01 -3.8362200547268268e-03 0.0000000000000000e+00  9.9303662469032150e-01 -4.1042321337875637e-03 0.0000000000000000e+00  9.9300864381721621e-01 -4.3752296548301133e-03 0.0000000000000000e+00  9.9297906765058763e-01 -4.6484238678342112e-03 0.0000000000000000e+00  9.9294731683516479e-01 -4.9249717551698704e-03 0.0000000000000000e+00  9.9291388612485509e-01 -5.2041031461926082e-03 0.0000000000000000e+00  9.9287821940344023e-01 -5.4869627531551040e-03 0.0000000000000000e+00  9.9284077572712304e-01 -5.7728299691164955e-03 0.0000000000000000e+00  9.9280102601947429e-01 -6.0628113979384344e-03 0.0000000000000000e+00  9.9275938888150883e-01 -6.3562630966935135e-03 0.0000000000000000e+00  9.9271536614793832e-01 -6.6542328265861662e-03 0.0000000000000000e+00  9.9266933103211707e-01 -6.9561748564528928e-03 0.0000000000000000e+00  9.9262082015490061e-01 -7.2630640614107416e-03 0.0000000000000000e+00  9.9257015626792322e-01 -7.5744675684099811e-03 0.0000000000000000e+00  9.9251691463378056e-01 -7.8912811924461024e-03 0.0000000000000000e+00  9.9246136229849691e-01 -8.2131918154225384e-03 0.0000000000000000e+00  9.9240311705392126e-01 -8.5410184915026867e-03 0.0000000000000000e+00  9.9234238471237868e-01 -8.8745667978337318e-03 0.0000000000000000e+00  9.9227882965675529e-01 -9.2145897234469365e-03 0.0000000000000000e+00  9.9221259044821608e-01 -9.5610030197191553e-03 0.0000000000000000e+00  9.9214338252321077e-01 -9.9145119338178017e-03 0.0000000000000000e+00  9.9207127041255805e-01 -1.0275127562571870e-02 0.0000000000000000e+00  9.9199602574598011e-01 -1.0643532005441256e-02 0.0000000000000000e+00  9.9191763119865428e-01 -1.1019812232767434e-02 0.0000000000000000e+00  9.9183592068371829e-01 -1.1404656338410660e-02 0.0000000000000000e+00  9.9175078594046617e-01 -1.1798205029198705e-02 0.0000000000000000e+00  9.9166213043613882e-01 -1.2201184345995826e-02 0.0000000000000000e+00  9.9156974464769576e-01 -1.2613766136311358e-02 0.0000000000000000e+00  9.9147361030753489e-01 -1.3036748032707058e-02 0.0000000000000000e+00  9.9137340562169707e-01 -1.3470312924103355e-02 0.0000000000000000e+00  9.9126920156405496e-01 -1.3915366558776317e-02 0.0000000000000000e+00  9.9116055467824127e-01 -1.4372091798526896e-02 0.0000000000000000e+00  9.9104764215087282e-01 -1.4841551331596838e-02 0.0000000000000000e+00  9.9092989977590418e-01 -1.5323947596266468e-02 0.0000000000000000e+00  9.9080764988019809e-01 -1.5820601751180670e-02 0.0000000000000000e+00  9.9068025202562104e-01 -1.6331867989939283e-02 0.0000000000000000e+00  9.9054829850672077e-01 -1.6859640780470569e-02 0.0000000000000000e+00  9.9041128768702502e-01 -1.7404990200119146e-02 0.0000000000000000e+00  9.9027053712612223e-01 -1.7971543629280752e-02 0.0000000000000000e+00  9.9012654265601163e-01 -1.8563332094869569e-02 0.0000000000000000e+00  9.8998303627115858e-01 -1.9190179404168600e-02 0.0000000000000000e+00  9.8984473201874557e-01 -1.9867817979822601e-02 0.0000000000000000e+00  9.8972394042334355e-01 -2.0629382511767189e-02 0.0000000000000000e+00  9.8964124754960314e-01 -2.1535492653380985e-02 0.0000000000000000e+00  9.8963943902942098e-01 -2.2706353713038602e-02 0.0000000000000000e+00  9.8979565859757257e-01 -2.4368300402832714e-02 0.0000000000000000e+00  9.9025769003026121e-01 -2.6953459316112059e-02 0.0000000000000000e+00  9.9129268898671119e-01 -3.1261226308185550e-02 0.0000000000000000e+00  9.9338348638431295e-01 -3.8742752720842225e-02 0.0000000000000000e+00  9.9735733115704872e-01 -5.1909210496455978e-02 0.0000000000000000e+00  1.0045503484736642e+00 -7.4811367690538630e-02 0.0000000000000000e+00  1.0168646620033783e+00 -1.1317778262490302e-01 0.0000000000000000e+00  1.0364582823350281e+00 -1.7331506784199907e-01 0.0000000000000000e+00  1.0647062007818240e+00 -2.5873950902116100e-01 0.0000000000000000e+00  1.1007162166472422e+00 -3.6559140514653610e-01 0.0000000000000000e+00  1.1407275923787972e+00 -4.8131744794337200e-01 0.0000000000000000e+00  1.1795602226706661e+00 -5.8985903734039236e-01 0.0000000000000000e+00  1.2130092359230904e+00 -6.7908090660595910e-01 0.0000000000000000e+00  1.2391404246576030e+00 -7.4404438685109953e-01 0.0000000000000000e+00  1.2580134733143706e+00 -7.8556692876192191e-01 0.0000000000000000e+00  1.2707806796752372e+00 -8.0733538779475855e-01 0.0000000000000000e+00  1.2789017590609764e+00 -8.1368987597923881e-01 0.0000000000000000e+00  1.2837203696393678e+00 -8.0851880679393628e-01 0.0000000000000000e+00  1.2863003389415051e+00 -7.9489142749138519e-01 0.0000000000000000e+00  1.2874232437593602e+00 -7.7508547287874152e-01 0.0000000000000000e+00  1.2876296560253959e+00 -7.5072814010626820e-01 0.0000000000000000e+00  1.2872863213377186e+00 -7.2297324154400344e-01 0.0000000000000000e+00  1.2866309337179396e+00 -6.9263225857934796e-01 0.0000000000000000e+00  1.2858198533545324e+00 -6.6028848969360421e-01 0.0000000000000000e+00  1.2849486261032048e+00 -6.2636162583804023e-01 0.0000000000000000e+00  1.2840795771907378e+00 -5.9116633680686392e-01 0.0000000000000000e+00  1.2832465180701313e+00 -5.5493734011611473e-01 0.0000000000000000e+00  1.2824718591412771e+00 -5.1785964683045871e-01 0.0000000000000000e+00  1.2817635997476811e+00 -4.8007602941782396e-01 0.0000000000000000e+00  1.2811279047700728e+00 -4.4170441536626864e-01 0.0000000000000000e+00  1.2805625397377827e+00 -4.0283835209077978e-01 0.0000000000000000e+00  1.2800676482177318e+00 -3.6355832292209439e-01 0.0000000000000000e+00  1.2796374921496607e+00 -3.2392970349869077e-01 0.0000000000000000e+00  1.2792705867349492e+00 -2.8401076589943491e-01 0.0000000000000000e+00  1.2789605738046945e+00 -2.4385003298223237e-01 0.0000000000000000e+00  1.2787061870166359e+00 -2.0349211914062748e-01 0.0000000000000000e+00  1.2785016500110935e+00 -1.6297534692468907e-01 0.0000000000000000e+00  1.2783466508745980e+00 -1.2233592958248607e-01 0.0000000000000000e+00  1.2782364705912639e+00 -8.1606279629820824e-02 0.0000000000000000e+00  1.2781720151028135e+00 -4.0817775905583935e-02 0.0000000000000000e+00  1.2781497974757388e+00 0.0000000000000000e+00 0.0000000000000000e+00  </DataArray> 
</PointData> 
</Piece>
</UnstructuredGrid>
</VTKFile>