<?xml version="1.0"?>
<VTKFile type="UnstructuredGrid"  version="0.1"  >
<UnstructuredGrid>
<Piece  NumberOfPoints="201" NumberOfCells="200">
<Points>
<DataArray  type="Float64"  NumberOfComponents="3"  format="ascii">-5 0 0  -4.95 0 0  -4.9 0 0  -4.85 0 0  -4.8 0 0  -4.75 0 0  -4.7 0 0  -4.65 0 0  -4.6 0 0  -4.55 0 0  -4.5 0 0  -4.45 0 0  -4.4 0 0  -4.35 0 0  -4.3 0 0  -4.25 0 0  -4.2 0 0  -4.15 0 0  -4.1 0 0  -4.05 0 0  -4 0 0  -3.95 0 0  -3.9 0 0  -3.85 0 0  -3.8 0 0  -3.75 0 0  -3.7 0 0  -3.65 0 0  -3.6 0 0  -3.55 0 0  -3.5 0 0  -3.45 0 0  -3.4 0 0  -3.35 0 0  -3.3 0 0  -3.25 0 0  -3.2 0 0  -3.15 0 0  -3.1 0 0  -3.05 0 0  -3 0 0  -2.95 0 0  -2.9 0 0  -2.85 0 0  -2.8 0 0  -2.75 0 0  -2.7 0 0  -2.65 0 0  -2.6 0 0  -2.55 0 0  -2.5 0 0  -2.45 0 0  -2.4 0 0  -2.35 0 0  -2.3 0 0  -2.25 0 0  -2.2 0 0  -2.15 0 0  -2.1 0 0  -2.05 0 0  -2 0 0  -1.95 0 0  -1.9 0 0  -1.85 0 0  -1.8 0 0  -1.75 0 0  -1.7 0 0  -1.65 0 0  -1.6 0 0  -1.55 0 0  -1.5 0 0  -1.45 0 0  -1.4 0 0  -1.35 0 0  -1.3 0 0  -1.25 0 0  -1.2 0 0  -1.15 0 0  -1.1 0 0  -1.05 0 0  -1 0 0  -0.9500000000000002 0 0  -0.9000000000000004 0 0  -0.8499999999999996 0 0  -0.7999999999999998 0 0  -0.75 0 0  -0.7000000000000002 0 0  -0.6500000000000004 0 0  -0.5999999999999996 0 0  -0.5499999999999998 0 0  -0.5 0 0  -0.4500000000000002 0 0  -0.4000000000000004 0 0  -0.3499999999999996 0 0  -0.2999999999999998 0 0  -0.25 0 0  -0.2000000000000002 0 0  -0.1500000000000004 0 0  -0.09999999999999964 0 0  -0.04999999999999982 0 0  0 0 0  0.04999999999999982 0 0  0.09999999999999964 0 0  0.1500000000000004 0 0  0.2000000000000002 0 0  0.25 0 0  0.2999999999999998 0 0  0.3499999999999996 0 0  0.4000000000000004 0 0  0.4500000000000002 0 0  0.5 0 0  0.5499999999999998 0 0  0.5999999999999996 0 0  0.6500000000000004 0 0  0.7000000000000002 0 0  0.75 0 0  0.7999999999999998 0 0  0.8499999999999996 0 0  0.9000000000000004 0 0  0.9500000000000002 0 0  1 0 0  1.05 0 0  1.1 0 0  1.15 0 0  1.2 0 0  1.25 0 0  1.3 0 0  1.35 0 0  1.4 0 0  1.45 0 0  1.5 0 0  1.55 0 0  1.6 0 0  1.65 0 0  1.7 0 0  1.75 0 0  1.8 0 0  1.85 0 0  1.9 0 0  1.95 0 0  2 0 0  2.05 0 0  2.1 0 0  2.15 0 0  2.2 0 0  2.25 0 0  2.3 0 0  2.35 0 0  2.4 0 0  2.45 0 0  2.5 0 0  2.55 0 0  2.6 0 0  2.65 0 0  2.7 0 0  2.75 0 0  2.8 0 0  2.85 0 0  2.9 0 0  2.95 0 0  3 0 0  3.050000000000001 0 0  3.1 0 0  3.15 0 0  3.199999999999999 0 0  3.25 0 0  3.300000000000001 0 0  3.35 0 0  3.4 0 0  3.449999999999999 0 0  3.5 0 0  3.550000000000001 0 0  3.6 0 0  3.65 0 0  3.699999999999999 0 0  3.75 0 0  3.800000000000001 0 0  3.85 0 0  3.9 0 0  3.949999999999999 0 0  4 0 0  4.050000000000001 0 0  4.1 0 0  4.15 0 0  4.199999999999999 0 0  4.25 0 0  4.300000000000001 0 0  4.35 0 0  4.4 0 0  4.449999999999999 0 0  4.5 0 0  4.550000000000001 0 0  4.6 0 0  4.65 0 0  4.699999999999999 0 0  4.75 0 0  4.800000000000001 0 0  4.85 0 0  4.9 0 0  4.949999999999999 0 0  5 0 0  </DataArray>
</Points>
<Cells>
<DataArray  type="UInt32"  Name="connectivity"  format="ascii">0 1  1 2  2 3  3 4  4 5  5 6  6 7  7 8  8 9  9 10  10 11  11 12  12 13  13 14  14 15  15 16  16 17  17 18  18 19  19 20  20 21  21 22  22 23  23 24  24 25  25 26  26 27  27 28  28 29  29 30  30 31  31 32  32 33  33 34  34 35  35 36  36 37  37 38  38 39  39 40  40 41  41 42  42 43  43 44  44 45  45 46  46 47  47 48  48 49  49 50  50 51  51 52  52 53  53 54  54 55  55 56  56 57  57 58  58 59  59 60  60 61  61 62  62 63  63 64  64 65  65 66  66 67  67 68  68 69  69 70  70 71  71 72  72 73  73 74  74 75  75 76  76 77  77 78  78 79  79 80  80 81  81 82  82 83  83 84  84 85  85 86  86 87  87 88  88 89  89 90  90 91  91 92  92 93  93 94  94 95  95 96  96 97  97 98  98 99  99 100  100 101  101 102  102 103  103 104  104 105  105 106  106 107  107 108  108 109  109 110  110 111  111 112  112 113  113 114  114 115  115 116  116 117  117 118  118 119  119 120  120 121  121 122  122 123  123 124  124 125  125 126  126 127  127 128  128 129  129 130  130 131  131 132  132 133  133 134  134 135  135 136  136 137  137 138  138 139  139 140  140 141  141 142  142 143  143 144  144 145  145 146  146 147  147 148  148 149  149 150  150 151  151 152  152 153  153 154  154 155  155 156  156 157  157 158  158 159  159 160  160 161  161 162  162 163  163 164  164 165  165 166  166 167  167 168  168 169  169 170  170 171  171 172  172 173  173 174  174 175  175 176  176 177  177 178  178 179  179 180  180 181  181 182  182 183  183 184  184 185  185 186  186 187  187 188  188 189  189 190  190 191  191 192  192 193  193 194  194 195  195 196  196 197  197 198  198 199  199 200  </DataArray>
<DataArray  type="UInt32"  Name="offsets"  format="ascii">2 4 6 8 10 12 14 16 18 20 22 24 26 28 30 32 34 36 38 40 42 44 46 48 50 52 54 56 58 60 62 64 66 68 70 72 74 76 78 80 82 84 86 88 90 92 94 96 98 100 102 104 106 108 110 112 114 116 118 120 122 124 126 128 130 132 134 136 138 140 142 144 146 148 150 152 154 156 158 160 162 164 166 168 170 172 174 176 178 180 182 184 186 188 190 192 194 196 198 200 202 204 206 208 210 212 214 216 218 220 222 224 226 228 230 232 234 236 238 240 242 244 246 248 250 252 254 256 258 260 262 264 266 268 270 272 274 276 278 280 282 284 286 288 290 292 294 296 298 300 302 304 306 308 310 312 314 316 318 320 322 324 326 328 330 332 334 336 338 340 342 344 346 348 350 352 354 356 358 360 362 364 366 368 370 372 374 376 378 380 382 384 386 388 390 392 394 396 398 400 </DataArray>
<DataArray  type="UInt8"  Name="types"  format="ascii">3 3 3 3 3 3 3 3 3 3 3 3 3 3 3 3 3 3 3 3 3 3 3 3 3 3 3 3 3 3 3 3 3 3 3 3 3 3 3 3 3 3 3 3 3 3 3 3 3 3 3 3 3 3 3 3 3 3 3 3 3 3 3 3 3 3 3 3 3 3 3 3 3 3 3 3 3 3 3 3 3 3 3 3 3 3 3 3 3 3 3 3 3 3 3 3 3 3 3 3 3 3 3 3 3 3 3 3 3 3 3 3 3 3 3 3 3 3 3 3 3 3 3 3 3 3 3 3 3 3 3 3 3 3 3 3 3 3 3 3 3 3 3 3 3 3 3 3 3 3 3 3 3 3 3 3 3 3 3 3 3 3 3 3 3 3 3 3 3 3 3 3 3 3 3 3 3 3 3 3 3 3 3 3 3 3 3 3 3 3 3 3 3 3 3 3 3 3 3 3 </DataArray>
</Cells>
<PointData  Vectors="(h, u)"> 
<DataArray  type="Float64"  Name="(h, u)"  NumberOfComponents="3" format="ascii">9.8728346495153219e-01 0.0000000000000000e+00 0.0000000000000000e+00  9.8728132601074059e-01 -5.9933588959776914e-04 0.0000000000000000e+00  9.8727277041450023e-01 -1.1993880336784496e-03 0.0000000000000000e+00  9.8725991401376656e-01 -1.8007587881020868e-03 0.0000000000000000e+00  9.8724060135422875e-01 -2.4042813110609438e-03 0.0000000000000000e+00  9.8721692058479316e-01 -3.0104483159791788e-03 0.0000000000000000e+00  9.8718670767812866e-01 -3.6202057444686760e-03 0.0000000000000000e+00  9.8715202121443846e-01 -4.2339350061739393e-03 0.0000000000000000e+00  9.8711070109411991e-01 -4.8526740191259755e-03 0.0000000000000000e+00  9.8706478149613874e-01 -5.4766714557313622e-03 0.0000000000000000e+00  9.8701212916496706e-01 -6.1070003145475994e-03 0.0000000000000000e+00  9.8695477474633608e-01 -6.7437077016036448e-03 0.0000000000000000e+00  9.8689065696535749e-01 -7.3877715117421265e-03 0.0000000000000000e+00  9.8682185521186450e-01 -8.0388713417143178e-03 0.0000000000000000e+00  9.8674646749336925e-01 -8.6976237929049498e-03 0.0000000000000000e+00  9.8666673003961880e-01 -9.3630006855641035e-03 0.0000000000000000e+00  9.8658105787920269e-01 -1.0034766184123326e-02 0.0000000000000000e+00  9.8649203882616832e-01 -1.0710572151459055e-02 0.0000000000000000e+00  9.8639866384477404e-01 -1.1388517452727436e-02 0.0000000000000000e+00  9.8630418043709189e-01 -1.2063965163181175e-02 0.0000000000000000e+00  9.8620853277380105e-01 -1.2732160260492934e-02 0.0000000000000000e+00  9.8611605039921035e-01 -1.3384848262431049e-02 0.0000000000000000e+00  9.8602810341679437e-01 -1.4012928626595573e-02 0.0000000000000000e+00  9.8595058599678798e-01 -1.4603011022153275e-02 0.0000000000000000e+00  9.8588677162219007e-01 -1.5140142337085435e-02 0.0000000000000000e+00  9.8584453206579858e-01 -1.5604499603568810e-02 0.0000000000000000e+00  9.8582936036843061e-01 -1.5974281712292909e-02 0.0000000000000000e+00  9.8585125643565563e-01 -1.6222769989692264e-02 0.0000000000000000e+00  9.8591788486505660e-01 -1.6321477601041603e-02 0.0000000000000000e+00  9.8604107179438405e-01 -1.6237766185514226e-02 0.0000000000000000e+00  9.8623009163662012e-01 -1.5938261861629891e-02 0.0000000000000000e+00  9.8649776076539597e-01 -1.5387084316808993e-02 0.0000000000000000e+00  9.8685389716823591e-01 -1.4549381615802215e-02 0.0000000000000000e+00  9.8731105037679301e-01 -1.3390052704820276e-02 0.0000000000000000e+00  9.8787822710776707e-01 -1.1877099405936259e-02 0.0000000000000000e+00  9.8856633402358496e-01 -9.9805989715966940e-03 0.0000000000000000e+00  9.8938228064423639e-01 -7.6755167287060342e-03 0.0000000000000000e+00  9.9033420824581964e-01 -4.9406897183700976e-03 0.0000000000000000e+00  9.9142605600898437e-01 -1.7608290465237850e-03 0.0000000000000000e+00  9.9266260741088141e-01 1.8745953004677713e-03 0.0000000000000000e+00  9.9404455221311006e-01 5.9702563495184447e-03 0.0000000000000000e+00  9.9557332706873491e-01 1.0526123132062659e-02 0.0000000000000000e+00  9.9724665498592302e-01 1.5537190761183454e-02 0.0000000000000000e+00  9.9906311852689877e-01 2.0994491029683052e-02 0.0000000000000000e+00  1.0010181319549616e+00 2.6885483997430362e-02 0.0000000000000000e+00  1.0031081759421727e+00 3.3194719788303857e-02 0.0000000000000000e+00  1.0053271582012679e+00 3.9904722611177390e-02 0.0000000000000000e+00  1.0076702521843659e+00 4.6996145364161787e-02 0.0000000000000000e+00  1.0101306182375980e+00 5.4449026225461529e-02 0.0000000000000000e+00  1.0127028116665049e+00 6.2242355344084635e-02 0.0000000000000000e+00  1.0153798550276592e+00 7.0355641780562875e-02 0.0000000000000000e+00  1.0181562020635264e+00 7.8767882605977405e-02 0.0000000000000000e+00  1.0210251647364201e+00 8.7459418256201724e-02 0.0000000000000000e+00  1.0239814341352664e+00 9.6410343116756503e-02 0.0000000000000000e+00  1.0270188713789714e+00 1.0560264417306592e-01 0.0000000000000000e+00  1.0301325947682727e+00 1.1501811883064955e-01 0.0000000000000000e+00  1.0333171433364918e+00 1.2464079028681500e-01 0.0000000000000000e+00  1.0365681433912994e+00 1.3445440964745423e-01 0.0000000000000000e+00  1.0398808498384853e+00 1.4444512977627577e-01 0.0000000000000000e+00  1.0432514070686441e+00 1.5459867134089275e-01 0.0000000000000000e+00  1.0466757685083221e+00 1.6490322126977155e-01 0.0000000000000000e+00  1.0501505682988976e+00 1.7534633973494293e-01 0.0000000000000000e+00  1.0536724157733988e+00 1.8591803224128181e-01 0.0000000000000000e+00  1.0572383972755519e+00 1.9660746571117876e-01 0.0000000000000000e+00  1.0608457419705444e+00 2.0740614123232842e-01 0.0000000000000000e+00  1.0644919808942008e+00 2.1830446329197381e-01 0.0000000000000000e+00  1.0681749895846948e+00 2.2929489732070035e-01 0.0000000000000000e+00  1.0718928537532713e+00 2.4036836782054091e-01 0.0000000000000000e+00  1.0756443294528595e+00 2.5151717144840263e-01 0.0000000000000000e+00  1.0794285303276805e+00 2.6273098245341425e-01 0.0000000000000000e+00  1.0832459564095955e+00 2.7399896319500033e-01 0.0000000000000000e+00  1.0870983104035932e+00 2.8530458378836421e-01 0.0000000000000000e+00  1.0909905733666059e+00 2.9662541198751308e-01 0.0000000000000000e+00  1.0949318162128707e+00 3.0792431088881822e-01 0.0000000000000000e+00  1.0989397438413779e+00 3.1914263636867496e-01 0.0000000000000000e+00  1.1030449493148946e+00 3.3018076245848255e-01 0.0000000000000000e+00  1.1073019497397896e+00 3.4087286632975106e-01 0.0000000000000000e+00  1.1118034817957005e+00 3.5093774176504106e-01 0.0000000000000000e+00  1.1167082709183869e+00 3.5990557892407843e-01 0.0000000000000000e+00  1.1222800858076756e+00 3.6699729119163332e-01 0.0000000000000000e+00  1.1289494563531526e+00 3.7095573466186815e-01 0.0000000000000000e+00  1.1373865123927500e+00 3.6983385390528323e-01 0.0000000000000000e+00  1.1485647101437149e+00 3.6083720923974022e-01 0.0000000000000000e+00  1.1637250274241735e+00 3.4045929228851013e-01 0.0000000000000000e+00  1.1841043354256522e+00 3.0533762412998466e-01 0.0000000000000000e+00  1.2103128679003223e+00 2.5408863315212243e-01 0.0000000000000000e+00  1.2415804597002937e+00 1.8941516227494440e-01 0.0000000000000000e+00  1.2755122647266306e+00 1.1853597989019872e-01 0.0000000000000000e+00  1.3088548765546522e+00 5.0703094803150245e-02 0.0000000000000000e+00  1.3387917059954271e+00 -6.5272922033142167e-03 0.0000000000000000e+00  1.3637762584383337e+00 -4.9383794816682869e-02 0.0000000000000000e+00  1.3835233767431945e+00 -7.7576569125599557e-02 0.0000000000000000e+00  1.3985475718362763e+00 -9.2869081996368563e-02 0.0000000000000000e+00  1.4096849307765829e+00 -9.7764480983020416e-02 0.0000000000000000e+00  1.4177921238431739e+00 -9.4723291396013931e-02 0.0000000000000000e+00  1.4236043898294455e+00 -8.5836788215489360e-02 0.0000000000000000e+00  1.4276995284713090e+00 -7.2760812877070175e-02 0.0000000000000000e+00  1.4305031723272019e+00 -5.6766049423995761e-02 0.0000000000000000e+00  1.4323148100615992e+00 -3.8823600874810640e-02 0.0000000000000000e+00  1.4333287431753512e+00 -1.9692885567159740e-02 0.0000000000000000e+00  1.4336551972890383e+00 -3.0012528271263077e-16 0.0000000000000000e+00  1.4333287431753512e+00 1.9692885567158171e-02 0.0000000000000000e+00  1.4323148100615988e+00 3.8823600874810342e-02 0.0000000000000000e+00  1.4305031723272017e+00 5.6766049423994033e-02 0.0000000000000000e+00  1.4276995284713085e+00 7.2760812877070272e-02 0.0000000000000000e+00  1.4236043898294453e+00 8.5836788215487542e-02 0.0000000000000000e+00  1.4177921238431734e+00 9.4723291396013445e-02 0.0000000000000000e+00  1.4096849307765826e+00 9.7764480983019639e-02 0.0000000000000000e+00  1.3985475718362761e+00 9.2869081996368757e-02 0.0000000000000000e+00  1.3835233767431947e+00 7.7576569125599917e-02 0.0000000000000000e+00  1.3637762584383339e+00 4.9383794816683910e-02 0.0000000000000000e+00  1.3387917059954275e+00 6.5272922033161622e-03 0.0000000000000000e+00  1.3088548765546528e+00 -5.0703094803147379e-02 0.0000000000000000e+00  1.2755122647266313e+00 -1.1853597989019586e-01 0.0000000000000000e+00  1.2415804597002944e+00 -1.8941516227494246e-01 0.0000000000000000e+00  1.2103128679003226e+00 -2.5408863315212143e-01 0.0000000000000000e+00  1.1841043354256531e+00 -3.0533762412998361e-01 0.0000000000000000e+00  1.1637250274241735e+00 -3.4045929228850919e-01 0.0000000000000000e+00  1.1485647101437158e+00 -3.6083720923973989e-01 0.0000000000000000e+00  1.1373865123927498e+00 -3.6983385390528295e-01 0.0000000000000000e+00  1.1289494563531530e+00 -3.7095573466186871e-01 0.0000000000000000e+00  1.1222800858076751e+00 -3.6699729119163443e-01 0.0000000000000000e+00  1.1167082709183878e+00 -3.5990557892407932e-01 0.0000000000000000e+00  1.1118034817957001e+00 -3.5093774176504228e-01 0.0000000000000000e+00  1.1073019497397905e+00 -3.4087286632975244e-01 0.0000000000000000e+00  1.1030449493148946e+00 -3.3018076245848499e-01 0.0000000000000000e+00  1.0989397438413786e+00 -3.1914263636867690e-01 0.0000000000000000e+00  1.0949318162128707e+00 -3.0792431088881961e-01 0.0000000000000000e+00  1.0909905733666063e+00 -2.9662541198751458e-01 0.0000000000000000e+00  1.0870983104035929e+00 -2.8530458378836632e-01 0.0000000000000000e+00  1.0832459564095958e+00 -2.7399896319500150e-01 0.0000000000000000e+00  1.0794285303276800e+00 -2.6273098245341597e-01 0.0000000000000000e+00  1.0756443294528599e+00 -2.5151717144840369e-01 0.0000000000000000e+00  1.0718928537532710e+00 -2.4036836782054286e-01 0.0000000000000000e+00  1.0681749895846950e+00 -2.2929489732070227e-01 0.0000000000000000e+00  1.0644919808942008e+00 -2.1830446329197617e-01 0.0000000000000000e+00  1.0608457419705446e+00 -2.0740614123232914e-01 0.0000000000000000e+00  1.0572383972755517e+00 -1.9660746571117960e-01 0.0000000000000000e+00  1.0536724157733990e+00 -1.8591803224128148e-01 0.0000000000000000e+00  1.0501505682988976e+00 -1.7534633973494435e-01 0.0000000000000000e+00  1.0466757685083223e+00 -1.6490322126977128e-01 0.0000000000000000e+00  1.0432514070686441e+00 -1.5459867134089256e-01 0.0000000000000000e+00  1.0398808498384862e+00 -1.4444512977627422e-01 0.0000000000000000e+00  1.0365681433912999e+00 -1.3445440964745228e-01 0.0000000000000000e+00  1.0333171433364925e+00 -1.2464079028681345e-01 0.0000000000000000e+00  1.0301325947682727e+00 -1.1501811883064803e-01 0.0000000000000000e+00  1.0270188713789721e+00 -1.0560264417306604e-01 0.0000000000000000e+00  1.0239814341352667e+00 -9.6410343116756142e-02 0.0000000000000000e+00  1.0210251647364206e+00 -8.7459418256203014e-02 0.0000000000000000e+00  1.0181562020635262e+00 -7.8767882605977432e-02 0.0000000000000000e+00  1.0153798550276594e+00 -7.0355641780565581e-02 0.0000000000000000e+00  1.0127028116665051e+00 -6.2242355344084614e-02 0.0000000000000000e+00  1.0101306182375984e+00 -5.4449026225463777e-02 0.0000000000000000e+00  1.0076702521843659e+00 -4.6996145364161947e-02 0.0000000000000000e+00  1.0053271582012691e+00 -3.9904722611178965e-02 0.0000000000000000e+00  1.0031081759421732e+00 -3.3194719788303684e-02 0.0000000000000000e+00  1.0010181319549627e+00 -2.6885483997431084e-02 0.0000000000000000e+00  9.9906311852689911e-01 -2.0994491029682823e-02 0.0000000000000000e+00  9.9724665498592391e-01 -1.5537190761184087e-02 0.0000000000000000e+00  9.9557332706873514e-01 -1.0526123132062071e-02 0.0000000000000000e+00  9.9404455221311050e-01 -5.9702563495184118e-03 0.0000000000000000e+00  9.9266260741088153e-01 -1.8745953004669818e-03 0.0000000000000000e+00  9.9142605600898492e-01 1.7608290465239308e-03 0.0000000000000000e+00  9.9033420824581997e-01 4.9406897183708323e-03 0.0000000000000000e+00  9.8938228064423683e-01 7.6755167287058139e-03 0.0000000000000000e+00  9.8856633402358529e-01 9.9805989715965968e-03 0.0000000000000000e+00  9.8787822710776751e-01 1.1877099405936892e-02 0.0000000000000000e+00  9.8731105037679334e-01 1.3390052704820311e-02 0.0000000000000000e+00  9.8685389716823613e-01 1.4549381615802820e-02 0.0000000000000000e+00  9.8649776076539608e-01 1.5387084316809817e-02 0.0000000000000000e+00  9.8623009163662023e-01 1.5938261861630824e-02 0.0000000000000000e+00  9.8604107179438394e-01 1.6237766185515663e-02 0.0000000000000000e+00  9.8591788486505649e-01 1.6321477601042602e-02 0.0000000000000000e+00  9.8585125643565541e-01 1.6222769989693308e-02 0.0000000000000000e+00  9.8582936036843050e-01 1.5974281712292492e-02 0.0000000000000000e+00  9.8584453206579836e-01 1.5604499603569591e-02 0.0000000000000000e+00  9.8588677162218952e-01 1.5140142337084330e-02 0.0000000000000000e+00  9.8595058599678764e-01 1.4603011022153530e-02 0.0000000000000000e+00  9.8602810341679381e-01 1.4012928626594073e-02 0.0000000000000000e+00  9.8611605039921024e-01 1.3384848262431170e-02 0.0000000000000000e+00  9.8620853277380083e-01 1.2732160260491487e-02 0.0000000000000000e+00  9.8630418043709189e-01 1.2063965163181979e-02 0.0000000000000000e+00  9.8639866384477393e-01 1.1388517452727015e-02 0.0000000000000000e+00  9.8649203882616820e-01 1.0710572151459721e-02 0.0000000000000000e+00  9.8658105787920214e-01 1.0034766184122024e-02 0.0000000000000000e+00  9.8666673003961869e-01 9.3630006855642944e-03 0.0000000000000000e+00  9.8674646749336892e-01 8.6976237929037806e-03 0.0000000000000000e+00  9.8682185521186450e-01 8.0388713417147480e-03 0.0000000000000000e+00  9.8689065696535727e-01 7.3877715117411273e-03 0.0000000000000000e+00  9.8695477474633619e-01 6.7437077016044818e-03 0.0000000000000000e+00  9.8701212916496706e-01 6.1070003145462844e-03 0.0000000000000000e+00  9.8706478149613908e-01 5.4766714557325019e-03 0.0000000000000000e+00  9.8711070109411980e-01 4.8526740191244455e-03 0.0000000000000000e+00  9.8715202121443901e-01 4.2339350061751796e-03 0.0000000000000000e+00  9.8718670767812822e-01 3.6202057444676733e-03 0.0000000000000000e+00  9.8721692058479349e-01 3.0104483159798939e-03 0.0000000000000000e+00  9.8724060135422786e-01 2.4042813110600543e-03 0.0000000000000000e+00  9.8725991401376678e-01 1.8007587881022835e-03 0.0000000000000000e+00  9.8727277041449935e-01 1.1993880336775738e-03 0.0000000000000000e+00  9.8728132601074081e-01 5.9933588959738132e-04 0.0000000000000000e+00  9.8728346495153108e-01 0.0000000000000000e+00 0.0000000000000000e+00  </DataArray> 
</PointData> 
</Piece>
</UnstructuredGrid>
</VTKFile>