<?xml version="1.0"?>
<VTKFile type="UnstructuredGrid"  version="0.1"  >
<UnstructuredGrid>
<Piece  NumberOfPoints="201" NumberOfCells="200">
<Points>
<DataArray  type="Float64"  NumberOfComponents="3"  format="ascii">-5 0 0  -4.95 0 0  -4.9 0 0  -4.85 0 0  -4.8 0 0  -4.75 0 0  -4.7 0 0  -4.65 0 0  -4.6 0 0  -4.55 0 0  -4.5 0 0  -4.45 0 0  -4.4 0 0  -4.35 0 0  -4.3 0 0  -4.25 0 0  -4.2 0 0  -4.15 0 0  -4.1 0 0  -4.05 0 0  -4 0 0  -3.95 0 0  -3.9 0 0  -3.85 0 0  -3.8 0 0  -3.75 0 0  -3.7 0 0  -3.65 0 0  -3.6 0 0  -3.55 0 0  -3.5 0 0  -3.45 0 0  -3.4 0 0  -3.35 0 0  -3.3 0 0  -3.25 0 0  -3.2 0 0  -3.15 0 0  -3.1 0 0  -3.05 0 0  -3 0 0  -2.95 0 0  -2.9 0 0  -2.85 0 0  -2.8 0 0  -2.75 0 0  -2.7 0 0  -2.65 0 0  -2.6 0 0  -2.55 0 0  -2.5 0 0  -2.45 0 0  -2.4 0 0  -2.35 0 0  -2.3 0 0  -2.25 0 0  -2.2 0 0  -2.15 0 0  -2.1 0 0  -2.05 0 0  -2 0 0  -1.95 0 0  -1.9 0 0  -1.85 0 0  -1.8 0 0  -1.75 0 0  -1.7 0 0  -1.65 0 0  -1.6 0 0  -1.55 0 0  -1.5 0 0  -1.45 0 0  -1.4 0 0  -1.35 0 0  -1.3 0 0  -1.25 0 0  -1.2 0 0  -1.15 0 0  -1.1 0 0  -1.05 0 0  -1 0 0  -0.9500000000000002 0 0  -0.9000000000000004 0 0  -0.8499999999999996 0 0  -0.7999999999999998 0 0  -0.75 0 0  -0.7000000000000002 0 0  -0.6500000000000004 0 0  -0.5999999999999996 0 0  -0.5499999999999998 0 0  -0.5 0 0  -0.4500000000000002 0 0  -0.4000000000000004 0 0  -0.3499999999999996 0 0  -0.2999999999999998 0 0  -0.25 0 0  -0.2000000000000002 0 0  -0.1500000000000004 0 0  -0.09999999999999964 0 0  -0.04999999999999982 0 0  0 0 0  0.04999999999999982 0 0  0.09999999999999964 0 0  0.1500000000000004 0 0  0.2000000000000002 0 0  0.25 0 0  0.2999999999999998 0 0  0.3499999999999996 0 0  0.4000000000000004 0 0  0.4500000000000002 0 0  0.5 0 0  0.5499999999999998 0 0  0.5999999999999996 0 0  0.6500000000000004 0 0  0.7000000000000002 0 0  0.75 0 0  0.7999999999999998 0 0  0.8499999999999996 0 0  0.9000000000000004 0 0  0.9500000000000002 0 0  1 0 0  1.05 0 0  1.1 0 0  1.15 0 0  1.2 0 0  1.25 0 0  1.3 0 0  1.35 0 0  1.4 0 0  1.45 0 0  1.5 0 0  1.55 0 0  1.6 0 0  1.65 0 0  1.7 0 0  1.75 0 0  1.8 0 0  1.85 0 0  1.9 0 0  1.95 0 0  2 0 0  2.05 0 0  2.1 0 0  2.15 0 0  2.2 0 0  2.25 0 0  2.3 0 0  2.35 0 0  2.4 0 0  2.45 0 0  2.5 0 0  2.55 0 0  2.6 0 0  2.65 0 0  2.7 0 0  2.75 0 0  2.8 0 0  2.85 0 0  2.9 0 0  2.95 0 0  3 0 0  3.050000000000001 0 0  3.1 0 0  3.15 0 0  3.199999999999999 0 0  3.25 0 0  3.300000000000001 0 0  3.35 0 0  3.4 0 0  3.449999999999999 0 0  3.5 0 0  3.550000000000001 0 0  3.6 0 0  3.65 0 0  3.699999999999999 0 0  3.75 0 0  3.800000000000001 0 0  3.85 0 0  3.9 0 0  3.949999999999999 0 0  4 0 0  4.050000000000001 0 0  4.1 0 0  4.15 0 0  4.199999999999999 0 0  4.25 0 0  4.300000000000001 0 0  4.35 0 0  4.4 0 0  4.449999999999999 0 0  4.5 0 0  4.550000000000001 0 0  4.6 0 0  4.65 0 0  4.699999999999999 0 0  4.75 0 0  4.800000000000001 0 0  4.85 0 0  4.9 0 0  4.949999999999999 0 0  5 0 0  </DataArray>
</Points>
<Cells>
<DataArray  type="UInt32"  Name="connectivity"  format="ascii">0 1  1 2  2 3  3 4  4 5  5 6  6 7  7 8  8 9  9 10  10 11  11 12  12 13  13 14  14 15  15 16  16 17  17 18  18 19  19 20  20 21  21 22  22 23  23 24  24 25  25 26  26 27  27 28  28 29  29 30  30 31  31 32  32 33  33 34  34 35  35 36  36 37  37 38  38 39  39 40  40 41  41 42  42 43  43 44  44 45  45 46  46 47  47 48  48 49  49 50  50 51  51 52  52 53  53 54  54 55  55 56  56 57  57 58  58 59  59 60  60 61  61 62  62 63  63 64  64 65  65 66  66 67  67 68  68 69  69 70  70 71  71 72  72 73  73 74  74 75  75 76  76 77  77 78  78 79  79 80  80 81  81 82  82 83  83 84  84 85  85 86  86 87  87 88  88 89  89 90  90 91  91 92  92 93  93 94  94 95  95 96  96 97  97 98  98 99  99 100  100 101  101 102  102 103  103 104  104 105  105 106  106 107  107 108  108 109  109 110  110 111  111 112  112 113  113 114  114 115  115 116  116 117  117 118  118 119  119 120  120 121  121 122  122 123  123 124  124 125  125 126  126 127  127 128  128 129  129 130  130 131  131 132  132 133  133 134  134 135  135 136  136 137  137 138  138 139  139 140  140 141  141 142  142 143  143 144  144 145  145 146  146 147  147 148  148 149  149 150  150 151  151 152  152 153  153 154  154 155  155 156  156 157  157 158  158 159  159 160  160 161  161 162  162 163  163 164  164 165  165 166  166 167  167 168  168 169  169 170  170 171  171 172  172 173  173 174  174 175  175 176  176 177  177 178  178 179  179 180  180 181  181 182  182 183  183 184  184 185  185 186  186 187  187 188  188 189  189 190  190 191  191 192  192 193  193 194  194 195  195 196  196 197  197 198  198 199  199 200  </DataArray>
<DataArray  type="UInt32"  Name="offsets"  format="ascii">2 4 6 8 10 12 14 16 18 20 22 24 26 28 30 32 34 36 38 40 42 44 46 48 50 52 54 56 58 60 62 64 66 68 70 72 74 76 78 80 82 84 86 88 90 92 94 96 98 100 102 104 106 108 110 112 114 116 118 120 122 124 126 128 130 132 134 136 138 140 142 144 146 148 150 152 154 156 158 160 162 164 166 168 170 172 174 176 178 180 182 184 186 188 190 192 194 196 198 200 202 204 206 208 210 212 214 216 218 220 222 224 226 228 230 232 234 236 238 240 242 244 246 248 250 252 254 256 258 260 262 264 266 268 270 272 274 276 278 280 282 284 286 288 290 292 294 296 298 300 302 304 306 308 310 312 314 316 318 320 322 324 326 328 330 332 334 336 338 340 342 344 346 348 350 352 354 356 358 360 362 364 366 368 370 372 374 376 378 380 382 384 386 388 390 392 394 396 398 400 </DataArray>
<DataArray  type="UInt8"  Name="types"  format="ascii">3 3 3 3 3 3 3 3 3 3 3 3 3 3 3 3 3 3 3 3 3 3 3 3 3 3 3 3 3 3 3 3 3 3 3 3 3 3 3 3 3 3 3 3 3 3 3 3 3 3 3 3 3 3 3 3 3 3 3 3 3 3 3 3 3 3 3 3 3 3 3 3 3 3 3 3 3 3 3 3 3 3 3 3 3 3 3 3 3 3 3 3 3 3 3 3 3 3 3 3 3 3 3 3 3 3 3 3 3 3 3 3 3 3 3 3 3 3 3 3 3 3 3 3 3 3 3 3 3 3 3 3 3 3 3 3 3 3 3 3 3 3 3 3 3 3 3 3 3 3 3 3 3 3 3 3 3 3 3 3 3 3 3 3 3 3 3 3 3 3 3 3 3 3 3 3 3 3 3 3 3 3 3 3 3 3 3 3 3 3 3 3 3 3 3 3 3 3 3 3 </DataArray>
</Cells>
<PointData  Vectors="(h, u)"> 
<DataArray  type="Float64"  Name="(h, u)"  NumberOfComponents="3" format="ascii">9.8856064932522869e-01 0.0000000000000000e+00 0.0000000000000000e+00  9.8855913685632901e-01 -4.9209761854300603e-04 0.0000000000000000e+00  9.8855261437238351e-01 -9.8462789172444761e-04 0.0000000000000000e+00  9.8854304985908281e-01 -1.4782113228933038e-03 0.0000000000000000e+00  9.8852844989659938e-01 -1.9730982750754832e-03 0.0000000000000000e+00  9.8851075647714881e-01 -2.4701019186966025e-03 0.0000000000000000e+00  9.8848797637607877e-01 -2.9692965105259073e-03 0.0000000000000000e+00  9.8846201666653077e-01 -3.4716918230635161e-03 0.0000000000000000e+00  9.8843089267936479e-01 -3.9771924776656926e-03 0.0000000000000000e+00  9.8839646788909452e-01 -4.4870073858400156e-03 0.0000000000000000e+00  9.8835677461958837e-01 -5.0008772465701349e-03 0.0000000000000000e+00  9.8831362493539110e-01 -5.5202096552604170e-03 0.0000000000000000e+00  9.8826507746828751e-01 -6.0445835626034587e-03 0.0000000000000000e+00  9.8821288738498858e-01 -6.5755975943047728e-03 0.0000000000000000e+00  9.8815515184614378e-01 -7.1126609203126696e-03 0.0000000000000000e+00  9.8809356918128055e-01 -7.6575385598342408e-03 0.0000000000000000e+00  9.8802629469596737e-01 -8.2094372334294754e-03 0.0000000000000000e+00  9.8795498203462195e-01 -8.7702264757426006e-03 0.0000000000000000e+00  9.8787788044619773e-01 -9.3388252740650452e-03 0.0000000000000000e+00  9.8779663502076975e-01 -9.9170714180882111e-03 0.0000000000000000e+00  9.8770965602429373e-01 -1.0503410404435363e-02 0.0000000000000000e+00  9.8761865896845358e-01 -1.1099378424839376e-02 0.0000000000000000e+00  9.8752233563324043e-01 -1.1702591136632126e-02 0.0000000000000000e+00  9.8742261879541671e-01 -1.2313800961326879e-02 0.0000000000000000e+00  9.8731868166669423e-01 -1.2929184487704522e-02 0.0000000000000000e+00  9.8721291371784436e-01 -1.3547937969246138e-02 0.0000000000000000e+00  9.8710526831791789e-01 -1.4163875345861275e-02 0.0000000000000000e+00  9.8699893316205101e-01 -1.4773544019803552e-02 0.0000000000000000e+00  9.8689503294012804e-01 -1.5367177231881921e-02 0.0000000000000000e+00  9.8679796917697205e-01 -1.5937349076760032e-02 0.0000000000000000e+00  9.8671046605666723e-01 -1.6469374744289559e-02 0.0000000000000000e+00  9.8663854223552527e-01 -1.6950572144010308e-02 0.0000000000000000e+00  9.8658686837226051e-01 -1.7360256285049551e-02 0.0000000000000000e+00  9.8656332509357603e-01 -1.7679711169826209e-02 0.0000000000000000e+00  9.8657463018757774e-01 -1.7881949377765171e-02 0.0000000000000000e+00  9.8663044327928129e-01 -1.7942487180981178e-02 0.0000000000000000e+00  9.8673922954017890e-01 -1.7829003851125742e-02 0.0000000000000000e+00  9.8691190018569519e-01 -1.7512931007386351e-02 0.0000000000000000e+00  9.8715791031686984e-01 -1.6959040340922264e-02 0.0000000000000000e+00  9.8748847007917806e-01 -1.6137720100589174e-02 0.0000000000000000e+00  9.8791291431632411e-01 -1.5014384481016921e-02 0.0000000000000000e+00  9.8844156248557502e-01 -1.3562178025015583e-02 0.0000000000000000e+00  9.8908242382674549e-01 -1.1751009582485818e-02 0.0000000000000000e+00  9.8984380153477447e-01 -9.5603743029345021e-03 0.0000000000000000e+00  9.9073139096697682e-01 -6.9678289465002138e-03 0.0000000000000000e+00  9.9175070559422907e-01 -3.9616825498108516e-03 0.0000000000000000e+00  9.9290458910825274e-01 -5.2884361967265399e-04 0.0000000000000000e+00  9.9419549949843955e-01 3.3327338413738088e-03 0.0000000000000000e+00  9.9562340912465153e-01 7.6267518494937498e-03 0.0000000000000000e+00  9.9718794284081735e-01 1.2346347306126651e-02 0.0000000000000000e+00  9.9888660620751102e-01 1.7487152772084714e-02 0.0000000000000000e+00  1.0007167520867235e+00 2.3035208022272734e-02 0.0000000000000000e+00  1.0026740671443026e+00 2.8980153602830277e-02 0.0000000000000000e+00  1.0047543422885437e+00 3.5303179519765103e-02 0.0000000000000000e+00  1.0069521584816221e+00 4.1990146318603906e-02 0.0000000000000000e+00  1.0092624530542260e+00 4.9019509667330707e-02 0.0000000000000000e+00  1.0116793695146358e+00 5.6375200626181184e-02 0.0000000000000000e+00  1.0141976380848470e+00 6.4034488792243938e-02 0.0000000000000000e+00  1.0168115889582396e+00 7.1980452696670916e-02 0.0000000000000000e+00  1.0195164075369649e+00 8.0189696033883415e-02 0.0000000000000000e+00  1.0223073738685815e+00 8.8644119708091787e-02 0.0000000000000000e+00  1.0251811460826248e+00 9.7318166425617345e-02 0.0000000000000000e+00  1.0281354426221365e+00 1.0618917776475328e-01 0.0000000000000000e+00  1.0311707572460176e+00 1.1522309853096172e-01 0.0000000000000000e+00  1.0342911219839466e+00 1.2438144344744374e-01 0.0000000000000000e+00  1.0375073553202996e+00 1.3360228204012770e-01 0.0000000000000000e+00  1.0408407042133796e+00 1.4279835317707557e-01 0.0000000000000000e+00  1.0443306125315137e+00 1.5182449042919127e-01 0.0000000000000000e+00  1.0480460260558664e+00 1.6045252485019609e-01 0.0000000000000000e+00  1.0521051277874605e+00 1.6830311894832120e-01 0.0000000000000000e+00  1.0567050403429821e+00 1.7476581446099887e-01 0.0000000000000000e+00  1.0621668310839598e+00 1.7885711265282667e-01 0.0000000000000000e+00  1.0689938419575502e+00 1.7905898697910891e-01 0.0000000000000000e+00  1.0779310690686736e+00 1.7314491715729427e-01 0.0000000000000000e+00  1.0899784712073093e+00 1.5817433559209995e-01 0.0000000000000000e+00  1.1062642560606442e+00 1.3090878069715525e-01 0.0000000000000000e+00  1.1276637713424398e+00 8.9008101838572870e-02 0.0000000000000000e+00  1.1541855568237416e+00 3.2848937101010188e-02 0.0000000000000000e+00  1.1844773536967443e+00 -3.3144474850809298e-02 0.0000000000000000e+00  1.2159909004154148e+00 -1.0126635415376231e-01 0.0000000000000000e+00  1.2458900504691224e+00 -1.6338224946428578e-01 0.0000000000000000e+00  1.2720581674504663e+00 -2.1379629369014683e-01 0.0000000000000000e+00  1.2935361676084944e+00 -2.5025239960426082e-01 0.0000000000000000e+00  1.3103500292521810e+00 -2.7322789855123047e-01 0.0000000000000000e+00  1.3230915039818270e+00 -2.8465069231858564e-01 0.0000000000000000e+00  1.3325484531858529e+00 -2.8687392743025114e-01 0.0000000000000000e+00  1.3394839165201442e+00 -2.8209274664788847e-01 0.0000000000000000e+00  1.3445407205376183e+00 -2.7212292359106693e-01 0.0000000000000000e+00  1.3482219262832265e+00 -2.5836614846258027e-01 0.0000000000000000e+00  1.3509045410639227e+00 -2.4186795799151334e-01 0.0000000000000000e+00  1.3528647094934780e+00 -2.2338925077782579e-01 0.0000000000000000e+00  1.3543016802623917e+00 -2.0348090099949107e-01 0.0000000000000000e+00  1.3553585928346898e+00 -1.8253774302808209e-01 0.0000000000000000e+00  1.3561375843058852e+00 -1.6084531072018649e-01 0.0000000000000000e+00  1.3567117633344550e+00 -1.3860891295095892e-01 0.0000000000000000e+00  1.3571329823634577e+00 -1.1597915979858321e-01 0.0000000000000000e+00  1.3574382045541575e+00 -9.3066248786337485e-02 0.0000000000000000e+00  1.3576531217094963e+00 -6.9953666678496909e-02 0.0000000000000000e+00  1.3577955096529095e+00 -4.6705254784032299e-02 0.0000000000000000e+00  1.3578766464613634e+00 -2.3372779509084743e-02 0.0000000000000000e+00  1.3579030488058708e+00 8.9092554674825567e-16 0.0000000000000000e+00  1.3578766464613636e+00 2.3372779509083817e-02 0.0000000000000000e+00  1.3577955096529095e+00 4.6705254784034332e-02 0.0000000000000000e+00  1.3576531217094967e+00 6.9953666678496312e-02 0.0000000000000000e+00  1.3574382045541573e+00 9.3066248786339553e-02 0.0000000000000000e+00  1.3571329823634577e+00 1.1597915979858192e-01 0.0000000000000000e+00  1.3567117633344545e+00 1.3860891295096056e-01 0.0000000000000000e+00  1.3561375843058854e+00 1.6084531072018393e-01 0.0000000000000000e+00  1.3553585928346892e+00 1.8253774302808215e-01 0.0000000000000000e+00  1.3543016802623915e+00 2.0348090099948798e-01 0.0000000000000000e+00  1.3528647094934778e+00 2.2338925077782515e-01 0.0000000000000000e+00  1.3509045410639229e+00 2.4186795799151117e-01 0.0000000000000000e+00  1.3482219262832265e+00 2.5836614846257844e-01 0.0000000000000000e+00  1.3445407205376187e+00 2.7212292359106516e-01 0.0000000000000000e+00  1.3394839165201444e+00 2.8209274664788619e-01 0.0000000000000000e+00  1.3325484531858538e+00 2.8687392743024959e-01 0.0000000000000000e+00  1.3230915039818272e+00 2.8465069231858525e-01 0.0000000000000000e+00  1.3103500292521817e+00 2.7322789855122975e-01 0.0000000000000000e+00  1.2935361676084951e+00 2.5025239960426154e-01 0.0000000000000000e+00  1.2720581674504674e+00 2.1379629369014636e-01 0.0000000000000000e+00  1.2458900504691235e+00 1.6338224946428756e-01 0.0000000000000000e+00  1.2159909004154159e+00 1.0126635415376156e-01 0.0000000000000000e+00  1.1844773536967457e+00 3.3144474850811172e-02 0.0000000000000000e+00  1.1541855568237422e+00 -3.2848937101011409e-02 0.0000000000000000e+00  1.1276637713424407e+00 -8.9008101838571690e-02 0.0000000000000000e+00  1.1062642560606446e+00 -1.3090878069715620e-01 0.0000000000000000e+00  1.0899784712073100e+00 -1.5817433559209917e-01 0.0000000000000000e+00  1.0779310690686741e+00 -1.7314491715729560e-01 0.0000000000000000e+00  1.0689938419575504e+00 -1.7905898697910813e-01 0.0000000000000000e+00  1.0621668310839600e+00 -1.7885711265282653e-01 0.0000000000000000e+00  1.0567050403429823e+00 -1.7476581446099901e-01 0.0000000000000000e+00  1.0521051277874602e+00 -1.6830311894832087e-01 0.0000000000000000e+00  1.0480460260558664e+00 -1.6045252485019740e-01 0.0000000000000000e+00  1.0443306125315133e+00 -1.5182449042919099e-01 0.0000000000000000e+00  1.0408407042133798e+00 -1.4279835317707709e-01 0.0000000000000000e+00  1.0375073553202996e+00 -1.3360228204012708e-01 0.0000000000000000e+00  1.0342911219839468e+00 -1.2438144344744467e-01 0.0000000000000000e+00  1.0311707572460167e+00 -1.1522309853096112e-01 0.0000000000000000e+00  1.0281354426221365e+00 -1.0618917776475530e-01 0.0000000000000000e+00  1.0251811460826239e+00 -9.7318166425616665e-02 0.0000000000000000e+00  1.0223073738685813e+00 -8.8644119708094438e-02 0.0000000000000000e+00  1.0195164075369645e+00 -8.0189696033884733e-02 0.0000000000000000e+00  1.0168115889582396e+00 -7.1980452696673136e-02 0.0000000000000000e+00  1.0141976380848465e+00 -6.4034488792244368e-02 0.0000000000000000e+00  1.0116793695146360e+00 -5.6375200626182481e-02 0.0000000000000000e+00  1.0092624530542260e+00 -4.9019509667331922e-02 0.0000000000000000e+00  1.0069521584816221e+00 -4.1990146318605502e-02 0.0000000000000000e+00  1.0047543422885439e+00 -3.5303179519765755e-02 0.0000000000000000e+00  1.0026740671443028e+00 -2.8980153602832258e-02 0.0000000000000000e+00  1.0007167520867242e+00 -2.3035208022272269e-02 0.0000000000000000e+00  9.9888660620751135e-01 -1.7487152772084524e-02 0.0000000000000000e+00  9.9718794284081780e-01 -1.2346347306125936e-02 0.0000000000000000e+00  9.9562340912465186e-01 -7.6267518494939034e-03 0.0000000000000000e+00  9.9419549949843977e-01 -3.3327338413727710e-03 0.0000000000000000e+00  9.9290458910825297e-01 5.2884361967177080e-04 0.0000000000000000e+00  9.9175070559422907e-01 3.9616825498112263e-03 0.0000000000000000e+00  9.9073139096697682e-01 6.9678289464983924e-03 0.0000000000000000e+00  9.8984380153477469e-01 9.5603743029345802e-03 0.0000000000000000e+00  9.8908242382674560e-01 1.1751009582484059e-02 0.0000000000000000e+00  9.8844156248557546e-01 1.3562178025015383e-02 0.0000000000000000e+00  9.8791291431632422e-01 1.5014384481015570e-02 0.0000000000000000e+00  9.8748847007917839e-01 1.6137720100589923e-02 0.0000000000000000e+00  9.8715791031686984e-01 1.6959040340922323e-02 0.0000000000000000e+00  9.8691190018569541e-01 1.7512931007388627e-02 0.0000000000000000e+00  9.8673922954017879e-01 1.7829003851125756e-02 0.0000000000000000e+00  9.8663044327928151e-01 1.7942487180983516e-02 0.0000000000000000e+00  9.8657463018757785e-01 1.7881949377766083e-02 0.0000000000000000e+00  9.8656332509357614e-01 1.7679711169828898e-02 0.0000000000000000e+00  9.8658686837226073e-01 1.7360256285049669e-02 0.0000000000000000e+00  9.8663854223552561e-01 1.6950572144012934e-02 0.0000000000000000e+00  9.8671046605666746e-01 1.6469374744289798e-02 0.0000000000000000e+00  9.8679796917697227e-01 1.5937349076762586e-02 0.0000000000000000e+00  9.8689503294012815e-01 1.5367177231881511e-02 0.0000000000000000e+00  9.8699893316205134e-01 1.4773544019805912e-02 0.0000000000000000e+00  9.8710526831791812e-01 1.4163875345860749e-02 0.0000000000000000e+00  9.8721291371784448e-01 1.3547937969248282e-02 0.0000000000000000e+00  9.8731868166669423e-01 1.2929184487704007e-02 0.0000000000000000e+00  9.8742261879541682e-01 1.2313800961328980e-02 0.0000000000000000e+00  9.8752233563324066e-01 1.1702591136631333e-02 0.0000000000000000e+00  9.8761865896845380e-01 1.1099378424841197e-02 0.0000000000000000e+00  9.8770965602429395e-01 1.0503410404434704e-02 0.0000000000000000e+00  9.8779663502076964e-01 9.9170714180894463e-03 0.0000000000000000e+00  9.8787788044619773e-01 9.3388252740637858e-03 0.0000000000000000e+00  9.8795498203462173e-01 8.7702264757424618e-03 0.0000000000000000e+00  9.8802629469596748e-01 8.2094372334273712e-03 0.0000000000000000e+00  9.8809356918128022e-01 7.6575385598338730e-03 0.0000000000000000e+00  9.8815515184614389e-01 7.1126609203109219e-03 0.0000000000000000e+00  9.8821288738498825e-01 6.5755975943042255e-03 0.0000000000000000e+00  9.8826507746828751e-01 6.0445835626025133e-03 0.0000000000000000e+00  9.8831362493539077e-01 5.5202096552600353e-03 0.0000000000000000e+00  9.8835677461958837e-01 5.0008772465692840e-03 0.0000000000000000e+00  9.8839646788909408e-01 4.4870073858400347e-03 0.0000000000000000e+00  9.8843089267936457e-01 3.9771924776658401e-03 0.0000000000000000e+00  9.8846201666653011e-01 3.4716918230640972e-03 0.0000000000000000e+00  9.8848797637607866e-01 2.9692965105263440e-03 0.0000000000000000e+00  9.8851075647714859e-01 2.4701019186974004e-03 0.0000000000000000e+00  9.8852844989659949e-01 1.9730982750761025e-03 0.0000000000000000e+00  9.8854304985908270e-01 1.4782113228942475e-03 0.0000000000000000e+00  9.8855261437238362e-01 9.8462789172481385e-04 0.0000000000000000e+00  9.8855913685632890e-01 4.9209761854336316e-04 0.0000000000000000e+00  9.8856064932522891e-01 0.0000000000000000e+00 0.0000000000000000e+00  </DataArray> 
</PointData> 
</Piece>
</UnstructuredGrid>
</VTKFile>