<?xml version="1.0"?>
<VTKFile type="UnstructuredGrid"  version="0.1"  >
<UnstructuredGrid>
<Piece  NumberOfPoints="201" NumberOfCells="200">
<Points>
<DataArray  type="Float64"  NumberOfComponents="3"  format="ascii">-5 0 0  -4.95 0 0  -4.9 0 0  -4.85 0 0  -4.8 0 0  -4.75 0 0  -4.7 0 0  -4.65 0 0  -4.6 0 0  -4.55 0 0  -4.5 0 0  -4.45 0 0  -4.4 0 0  -4.35 0 0  -4.3 0 0  -4.25 0 0  -4.2 0 0  -4.15 0 0  -4.1 0 0  -4.05 0 0  -4 0 0  -3.95 0 0  -3.9 0 0  -3.85 0 0  -3.8 0 0  -3.75 0 0  -3.7 0 0  -3.65 0 0  -3.6 0 0  -3.55 0 0  -3.5 0 0  -3.45 0 0  -3.4 0 0  -3.35 0 0  -3.3 0 0  -3.25 0 0  -3.2 0 0  -3.15 0 0  -3.1 0 0  -3.05 0 0  -3 0 0  -2.95 0 0  -2.9 0 0  -2.85 0 0  -2.8 0 0  -2.75 0 0  -2.7 0 0  -2.65 0 0  -2.6 0 0  -2.55 0 0  -2.5 0 0  -2.45 0 0  -2.4 0 0  -2.35 0 0  -2.3 0 0  -2.25 0 0  -2.2 0 0  -2.15 0 0  -2.1 0 0  -2.05 0 0  -2 0 0  -1.95 0 0  -1.9 0 0  -1.85 0 0  -1.8 0 0  -1.75 0 0  -1.7 0 0  -1.65 0 0  -1.6 0 0  -1.55 0 0  -1.5 0 0  -1.45 0 0  -1.4 0 0  -1.35 0 0  -1.3 0 0  -1.25 0 0  -1.2 0 0  -1.15 0 0  -1.1 0 0  -1.05 0 0  -1 0 0  -0.9500000000000002 0 0  -0.9000000000000004 0 0  -0.8499999999999996 0 0  -0.7999999999999998 0 0  -0.75 0 0  -0.7000000000000002 0 0  -0.6500000000000004 0 0  -0.5999999999999996 0 0  -0.5499999999999998 0 0  -0.5 0 0  -0.4500000000000002 0 0  -0.4000000000000004 0 0  -0.3499999999999996 0 0  -0.2999999999999998 0 0  -0.25 0 0  -0.2000000000000002 0 0  -0.1500000000000004 0 0  -0.09999999999999964 0 0  -0.04999999999999982 0 0  0 0 0  0.04999999999999982 0 0  0.09999999999999964 0 0  0.1500000000000004 0 0  0.2000000000000002 0 0  0.25 0 0  0.2999999999999998 0 0  0.3499999999999996 0 0  0.4000000000000004 0 0  0.4500000000000002 0 0  0.5 0 0  0.5499999999999998 0 0  0.5999999999999996 0 0  0.6500000000000004 0 0  0.7000000000000002 0 0  0.75 0 0  0.7999999999999998 0 0  0.8499999999999996 0 0  0.9000000000000004 0 0  0.9500000000000002 0 0  1 0 0  1.05 0 0  1.1 0 0  1.15 0 0  1.2 0 0  1.25 0 0  1.3 0 0  1.35 0 0  1.4 0 0  1.45 0 0  1.5 0 0  1.55 0 0  1.6 0 0  1.65 0 0  1.7 0 0  1.75 0 0  1.8 0 0  1.85 0 0  1.9 0 0  1.95 0 0  2 0 0  2.05 0 0  2.1 0 0  2.15 0 0  2.2 0 0  2.25 0 0  2.3 0 0  2.35 0 0  2.4 0 0  2.45 0 0  2.5 0 0  2.55 0 0  2.6 0 0  2.65 0 0  2.7 0 0  2.75 0 0  2.8 0 0  2.85 0 0  2.9 0 0  2.95 0 0  3 0 0  3.050000000000001 0 0  3.1 0 0  3.15 0 0  3.199999999999999 0 0  3.25 0 0  3.300000000000001 0 0  3.35 0 0  3.4 0 0  3.449999999999999 0 0  3.5 0 0  3.550000000000001 0 0  3.6 0 0  3.65 0 0  3.699999999999999 0 0  3.75 0 0  3.800000000000001 0 0  3.85 0 0  3.9 0 0  3.949999999999999 0 0  4 0 0  4.050000000000001 0 0  4.1 0 0  4.15 0 0  4.199999999999999 0 0  4.25 0 0  4.300000000000001 0 0  4.35 0 0  4.4 0 0  4.449999999999999 0 0  4.5 0 0  4.550000000000001 0 0  4.6 0 0  4.65 0 0  4.699999999999999 0 0  4.75 0 0  4.800000000000001 0 0  4.85 0 0  4.9 0 0  4.949999999999999 0 0  5 0 0  </DataArray>
</Points>
<Cells>
<DataArray  type="UInt32"  Name="connectivity"  format="ascii">0 1  1 2  2 3  3 4  4 5  5 6  6 7  7 8  8 9  9 10  10 11  11 12  12 13  13 14  14 15  15 16  16 17  17 18  18 19  19 20  20 21  21 22  22 23  23 24  24 25  25 26  26 27  27 28  28 29  29 30  30 31  31 32  32 33  33 34  34 35  35 36  36 37  37 38  38 39  39 40  40 41  41 42  42 43  43 44  44 45  45 46  46 47  47 48  48 49  49 50  50 51  51 52  52 53  53 54  54 55  55 56  56 57  57 58  58 59  59 60  60 61  61 62  62 63  63 64  64 65  65 66  66 67  67 68  68 69  69 70  70 71  71 72  72 73  73 74  74 75  75 76  76 77  77 78  78 79  79 80  80 81  81 82  82 83  83 84  84 85  85 86  86 87  87 88  88 89  89 90  90 91  91 92  92 93  93 94  94 95  95 96  96 97  97 98  98 99  99 100  100 101  101 102  102 103  103 104  104 105  105 106  106 107  107 108  108 109  109 110  110 111  111 112  112 113  113 114  114 115  115 116  116 117  117 118  118 119  119 120  120 121  121 122  122 123  123 124  124 125  125 126  126 127  127 128  128 129  129 130  130 131  131 132  132 133  133 134  134 135  135 136  136 137  137 138  138 139  139 140  140 141  141 142  142 143  143 144  144 145  145 146  146 147  147 148  148 149  149 150  150 151  151 152  152 153  153 154  154 155  155 156  156 157  157 158  158 159  159 160  160 161  161 162  162 163  163 164  164 165  165 166  166 167  167 168  168 169  169 170  170 171  171 172  172 173  173 174  174 175  175 176  176 177  177 178  178 179  179 180  180 181  181 182  182 183  183 184  184 185  185 186  186 187  187 188  188 189  189 190  190 191  191 192  192 193  193 194  194 195  195 196  196 197  197 198  198 199  199 200  </DataArray>
<DataArray  type="UInt32"  Name="offsets"  format="ascii">2 4 6 8 10 12 14 16 18 20 22 24 26 28 30 32 34 36 38 40 42 44 46 48 50 52 54 56 58 60 62 64 66 68 70 72 74 76 78 80 82 84 86 88 90 92 94 96 98 100 102 104 106 108 110 112 114 116 118 120 122 124 126 128 130 132 134 136 138 140 142 144 146 148 150 152 154 156 158 160 162 164 166 168 170 172 174 176 178 180 182 184 186 188 190 192 194 196 198 200 202 204 206 208 210 212 214 216 218 220 222 224 226 228 230 232 234 236 238 240 242 244 246 248 250 252 254 256 258 260 262 264 266 268 270 272 274 276 278 280 282 284 286 288 290 292 294 296 298 300 302 304 306 308 310 312 314 316 318 320 322 324 326 328 330 332 334 336 338 340 342 344 346 348 350 352 354 356 358 360 362 364 366 368 370 372 374 376 378 380 382 384 386 388 390 392 394 396 398 400 </DataArray>
<DataArray  type="UInt8"  Name="types"  format="ascii">3 3 3 3 3 3 3 3 3 3 3 3 3 3 3 3 3 3 3 3 3 3 3 3 3 3 3 3 3 3 3 3 3 3 3 3 3 3 3 3 3 3 3 3 3 3 3 3 3 3 3 3 3 3 3 3 3 3 3 3 3 3 3 3 3 3 3 3 3 3 3 3 3 3 3 3 3 3 3 3 3 3 3 3 3 3 3 3 3 3 3 3 3 3 3 3 3 3 3 3 3 3 3 3 3 3 3 3 3 3 3 3 3 3 3 3 3 3 3 3 3 3 3 3 3 3 3 3 3 3 3 3 3 3 3 3 3 3 3 3 3 3 3 3 3 3 3 3 3 3 3 3 3 3 3 3 3 3 3 3 3 3 3 3 3 3 3 3 3 3 3 3 3 3 3 3 3 3 3 3 3 3 3 3 3 3 3 3 3 3 3 3 3 3 3 3 3 3 3 3 </DataArray>
</Cells>
<PointData  Vectors="(h, u)"> 
<DataArray  type="Float64"  Name="(h, u)"  NumberOfComponents="3" format="ascii">9.8069106064374889e-01 0.0000000000000000e+00 0.0000000000000000e+00  9.8080991332427969e-01 1.9926188274222447e-03 0.0000000000000000e+00  9.8116691810761980e-01 4.0947758019177693e-03 0.0000000000000000e+00  9.8176075661451234e-01 6.4117501125894030e-03 0.0000000000000000e+00  9.8259088158627461e-01 9.0404969353443821e-03 0.0000000000000000e+00  9.8365478853825150e-01 1.2066632020380564e-02 0.0000000000000000e+00  9.8495046486526228e-01 1.5561789754340064e-02 0.0000000000000000e+00  9.8647371171063691e-01 1.9582713980569912e-02 0.0000000000000000e+00  9.8822057594263668e-01 2.4170439764534653e-02 0.0000000000000000e+00  9.9018483657653655e-01 2.9351436571417016e-02 0.0000000000000000e+00  9.9236045326802713e-01 3.5138165814895268e-02 0.0000000000000000e+00  9.9473927089099823e-01 4.1531570118049865e-02 0.0000000000000000e+00  9.9731345458959242e-01 4.8522165938545053e-02 0.0000000000000000e+00  1.0000734048700592e+00 5.6093046951614982e-02 0.0000000000000000e+00  1.0030101079799756e+00 6.4220769202481751e-02 0.0000000000000000e+00  1.0061132266391251e+00 7.2878288746849790e-02 0.0000000000000000e+00  1.0093732908922477e+00 8.2035227781365405e-02 0.0000000000000000e+00  1.0127799350289188e+00 9.1660508885633360e-02 0.0000000000000000e+00  1.0163238749057852e+00 1.0172189907907776e-01 0.0000000000000000e+00  1.0199952813169764e+00 1.1218834849863456e-01 0.0000000000000000e+00  1.0237855161007408e+00 1.2302888655570096e-01 0.0000000000000000e+00  1.0276856504175453e+00 1.3421478235541631e-01 0.0000000000000000e+00  1.0316879521357529e+00 1.4571792437305919e-01 0.0000000000000000e+00  1.0357845674171429e+00 1.5751293451316173e-01 0.0000000000000000e+00  1.0399687629087313e+00 1.6957515323672970e-01 0.0000000000000000e+00  1.0442337909134438e+00 1.8188281135723777e-01 0.0000000000000000e+00  1.0485738936819309e+00 1.9441471116335957e-01 0.0000000000000000e+00  1.0529833693435104e+00 2.0715252367273579e-01 0.0000000000000000e+00  1.0574573452706304e+00 2.2007822643591296e-01 0.0000000000000000e+00  1.0619910570264548e+00 2.3317656306083490e-01 0.0000000000000000e+00  1.0665803958911209e+00 2.4643227764062434e-01 0.0000000000000000e+00  1.0712214084325047e+00 2.5983275051503602e-01 0.0000000000000000e+00  1.0759106211956790e+00 2.7336505774432041e-01 0.0000000000000000e+00  1.0806447650719773e+00 2.8701878053812485e-01 0.0000000000000000e+00  1.0854208782921286e+00 3.0078291379948885e-01 0.0000000000000000e+00  1.0902362577527123e+00 3.1464883394073329e-01 0.0000000000000000e+00  1.0950883397503806e+00 3.2860708110180165e-01 0.0000000000000000e+00  1.0999748796569568e+00 3.4265045916704301e-01 0.0000000000000000e+00  1.1048936080412011e+00 3.5677072013224981e-01 0.0000000000000000e+00  1.1098426402648869e+00 3.7096175962468708e-01 0.0000000000000000e+00  1.1148199034921336e+00 3.8521623770680935e-01 0.0000000000000000e+00  1.1198237785535894e+00 3.9952882208335855e-01 0.0000000000000000e+00  1.1248522905713436e+00 4.1389278609418434e-01 0.0000000000000000e+00  1.1299039863567164e+00 4.2830323915490298e-01 0.0000000000000000e+00  1.1349768776216909e+00 4.4275374816711938e-01 0.0000000000000000e+00  1.1400695575467341e+00 4.5723947926228292e-01 0.0000000000000000e+00  1.1451798801424229e+00 4.7175389070064588e-01 0.0000000000000000e+00  1.1503063182022319e+00 4.8629168902837883e-01 0.0000000000000000e+00  1.1554463538971427e+00 5.0084563483692002e-01 0.0000000000000000e+00  1.1605980746727491e+00 5.1540918422297499e-01 0.0000000000000000e+00  1.1657582354989349e+00 5.2997342383308799e-01 0.0000000000000000e+00  1.1709240744393368e+00 5.4452921249360819e-01 0.0000000000000000e+00  1.1760909794895735e+00 5.5906419920251516e-01 0.0000000000000000e+00  1.1812544714868229e+00 5.7356417344258082e-01 0.0000000000000000e+00  1.1864073542534528e+00 5.8800997963324086e-01 0.0000000000000000e+00  1.1915417388425371e+00 6.0237757300931061e-01 0.0000000000000000e+00  1.1966454462281730e+00 6.1663434660726979e-01 0.0000000000000000e+00  1.2017037926074701e+00 6.3073696065917639e-01 0.0000000000000000e+00  1.2066947919016917e+00 6.4462598372609381e-01 0.0000000000000000e+00  1.2115901070223325e+00 6.5821969567197114e-01 0.0000000000000000e+00  1.2163481572863322e+00 6.7140470925569551e-01 0.0000000000000000e+00  1.2209130263186128e+00 6.8402224359798103e-01 0.0000000000000000e+00  1.2252037558658440e+00 6.9585005854219206e-01 0.0000000000000000e+00  1.2291089414807739e+00 7.0657468448532390e-01 0.0000000000000000e+00  1.2324692687726642e+00 7.1575636204486748e-01 0.0000000000000000e+00  1.2350643953216545e+00 7.2277711381172083e-01 0.0000000000000000e+00  1.2365855118617197e+00 7.2677856998985257e-01 0.0000000000000000e+00  1.2366134363314176e+00 7.2658024103545849e-01 0.0000000000000000e+00  1.2345865823612341e+00 7.2060027264830939e-01 0.0000000000000000e+00  1.2297907839651081e+00 7.0679251105412499e-01 0.0000000000000000e+00  1.2213730699825034e+00 6.8267868228481632e-01 0.0000000000000000e+00  1.2084429145334215e+00 6.4557290204305617e-01 0.0000000000000000e+00  1.1902911402705654e+00 5.9318370689722477e-01 0.0000000000000000e+00  1.1667815356878963e+00 5.2470552189375674e-01 0.0000000000000000e+00  1.1388109379895273e+00 4.4227440741089807e-01 0.0000000000000000e+00  1.1085748657762335e+00 3.5197195002814269e-01 0.0000000000000000e+00  1.0791942887055974e+00 2.6305026457307179e-01 0.0000000000000000e+00  1.0536531455734237e+00 1.8481487423253620e-01 0.0000000000000000e+00  1.0336786721485149e+00 1.2303082547585159e-01 0.0000000000000000e+00  1.0194200353840654e+00 7.8580528889170359e-02 0.0000000000000000e+00  1.0099437703036358e+00 4.8851930578531058e-02 0.0000000000000000e+00  1.0039687732368312e+00 2.9986307379961122e-02 0.0000000000000000e+00  1.0003362187886149e+00 1.8431819768234544e-02 0.0000000000000000e+00  9.9818510609501454e-01 1.1509028491901486e-02 0.0000000000000000e+00  9.9693356389610699e-01 7.4109985592884864e-03 0.0000000000000000e+00  9.9621736753929291e-01 4.9903867334905681e-03 0.0000000000000000e+00  9.9581172199740542e-01 3.5508753420506090e-03 0.0000000000000000e+00  9.9558646604443335e-01 2.6762642621859871e-03 0.0000000000000000e+00  9.9546231406729813e-01 2.1257106732169716e-03 0.0000000000000000e+00  9.9539678851131319e-01 1.7579379121783693e-03 0.0000000000000000e+00  9.9536232417433856e-01 1.4942266407095457e-03 0.0000000000000000e+00  9.9534656546808598e-01 1.2879413670107340e-03 0.0000000000000000e+00  9.9533926881228352e-01 1.1145844218867404e-03 0.0000000000000000e+00  9.9533798653050876e-01 9.5878143295621918e-04 0.0000000000000000e+00  9.9533807240570238e-01 8.1343029746201452e-04 0.0000000000000000e+00  9.9534024347184424e-01 6.7328291298043809e-04 0.0000000000000000e+00  9.9534161113596153e-01 5.3655027770182140e-04 0.0000000000000000e+00  9.9534387993925821e-01 4.0129602812385214e-04 0.0000000000000000e+00  9.9534469967925809e-01 2.6718596183732113e-04 0.0000000000000000e+00  9.9534607943212894e-01 1.3345269100384640e-04 0.0000000000000000e+00  9.9534583540702670e-01 8.4258372815618446e-16 0.0000000000000000e+00  9.9534607943212894e-01 -1.3345269100729671e-04 0.0000000000000000e+00  9.9534469967925820e-01 -2.6718596183588093e-04 0.0000000000000000e+00  9.9534387993925844e-01 -4.0129602812667562e-04 0.0000000000000000e+00  9.9534161113596153e-01 -5.3655027770047883e-04 0.0000000000000000e+00  9.9534024347184447e-01 -6.7328291298309265e-04 0.0000000000000000e+00  9.9533807240570260e-01 -8.1343029746066252e-04 0.0000000000000000e+00  9.9533798653050887e-01 -9.5878143295737646e-04 0.0000000000000000e+00  9.9533926881228385e-01 -1.1145844218852779e-03 0.0000000000000000e+00  9.9534656546808609e-01 -1.2879413670114188e-03 0.0000000000000000e+00  9.9536232417433868e-01 -1.4942266407082425e-03 0.0000000000000000e+00  9.9539678851131352e-01 -1.7579379121785265e-03 0.0000000000000000e+00  9.9546231406729813e-01 -2.1257106732164603e-03 0.0000000000000000e+00  9.9558646604443368e-01 -2.6762642621863896e-03 0.0000000000000000e+00  9.9581172199740542e-01 -3.5508753420495382e-03 0.0000000000000000e+00  9.9621736753929302e-01 -4.9903867334907346e-03 0.0000000000000000e+00  9.9693356389610699e-01 -7.4109985592871117e-03 0.0000000000000000e+00  9.9818510609501454e-01 -1.1509028491901482e-02 0.0000000000000000e+00  1.0003362187886151e+00 -1.8431819768233278e-02 0.0000000000000000e+00  1.0039687732368312e+00 -2.9986307379960990e-02 0.0000000000000000e+00  1.0099437703036358e+00 -4.8851930578529205e-02 0.0000000000000000e+00  1.0194200353840654e+00 -7.8580528889168902e-02 0.0000000000000000e+00  1.0336786721485145e+00 -1.2303082547584904e-01 0.0000000000000000e+00  1.0536531455734239e+00 -1.8481487423253626e-01 0.0000000000000000e+00  1.0791942887055970e+00 -2.6305026457307018e-01 0.0000000000000000e+00  1.1085748657762331e+00 -3.5197195002814124e-01 0.0000000000000000e+00  1.1388109379895268e+00 -4.4227440741089658e-01 0.0000000000000000e+00  1.1667815356878959e+00 -5.2470552189375241e-01 0.0000000000000000e+00  1.1902911402705652e+00 -5.9318370689722555e-01 0.0000000000000000e+00  1.2084429145334215e+00 -6.4557290204305351e-01 0.0000000000000000e+00  1.2213730699825034e+00 -6.8267868228481665e-01 0.0000000000000000e+00  1.2297907839651085e+00 -7.0679251105412222e-01 0.0000000000000000e+00  1.2345865823612343e+00 -7.2060027264830950e-01 0.0000000000000000e+00  1.2366134363314181e+00 -7.2658024103545638e-01 0.0000000000000000e+00  1.2365855118617197e+00 -7.2677856998985269e-01 0.0000000000000000e+00  1.2350643953216545e+00 -7.2277711381171994e-01 0.0000000000000000e+00  1.2324692687726644e+00 -7.1575636204486837e-01 0.0000000000000000e+00  1.2291089414807737e+00 -7.0657468448532368e-01 0.0000000000000000e+00  1.2252037558658442e+00 -6.9585005854219240e-01 0.0000000000000000e+00  1.2209130263186125e+00 -6.8402224359798158e-01 0.0000000000000000e+00  1.2163481572863328e+00 -6.7140470925569640e-01 0.0000000000000000e+00  1.2115901070223323e+00 -6.5821969567197158e-01 0.0000000000000000e+00  1.2066947919016924e+00 -6.4462598372609381e-01 0.0000000000000000e+00  1.2017037926074698e+00 -6.3073696065917573e-01 0.0000000000000000e+00  1.1966454462281735e+00 -6.1663434660727023e-01 0.0000000000000000e+00  1.1915417388425369e+00 -6.0237757300931016e-01 0.0000000000000000e+00  1.1864073542534530e+00 -5.8800997963324120e-01 0.0000000000000000e+00  1.1812544714868225e+00 -5.7356417344258104e-01 0.0000000000000000e+00  1.1760909794895735e+00 -5.5906419920251693e-01 0.0000000000000000e+00  1.1709240744393363e+00 -5.4452921249360975e-01 0.0000000000000000e+00  1.1657582354989351e+00 -5.2997342383308943e-01 0.0000000000000000e+00  1.1605980746727489e+00 -5.1540918422297544e-01 0.0000000000000000e+00  1.1554463538971427e+00 -5.0084563483692290e-01 0.0000000000000000e+00  1.1503063182022317e+00 -4.8629168902838010e-01 0.0000000000000000e+00  1.1451798801424236e+00 -4.7175389070064805e-01 0.0000000000000000e+00  1.1400695575467341e+00 -4.5723947926228359e-01 0.0000000000000000e+00  1.1349768776216913e+00 -4.4275374816712182e-01 0.0000000000000000e+00  1.1299039863567162e+00 -4.2830323915490298e-01 0.0000000000000000e+00  1.1248522905713436e+00 -4.1389278609418562e-01 0.0000000000000000e+00  1.1198237785535892e+00 -3.9952882208335855e-01 0.0000000000000000e+00  1.1148199034921338e+00 -3.8521623770681079e-01 0.0000000000000000e+00  1.1098426402648869e+00 -3.7096175962468703e-01 0.0000000000000000e+00  1.1048936080412015e+00 -3.5677072013225092e-01 0.0000000000000000e+00  1.0999748796569566e+00 -3.4265045916704279e-01 0.0000000000000000e+00  1.0950883397503812e+00 -3.2860708110180470e-01 0.0000000000000000e+00  1.0902362577527123e+00 -3.1464883394073379e-01 0.0000000000000000e+00  1.0854208782921289e+00 -3.0078291379949174e-01 0.0000000000000000e+00  1.0806447650719770e+00 -2.8701878053812602e-01 0.0000000000000000e+00  1.0759106211956795e+00 -2.7336505774432313e-01 0.0000000000000000e+00  1.0712214084325049e+00 -2.5983275051503646e-01 0.0000000000000000e+00  1.0665803958911215e+00 -2.4643227764062653e-01 0.0000000000000000e+00  1.0619910570264548e+00 -2.3317656306083545e-01 0.0000000000000000e+00  1.0574573452706308e+00 -2.2007822643591510e-01 0.0000000000000000e+00  1.0529833693435102e+00 -2.0715252367273607e-01 0.0000000000000000e+00  1.0485738936819309e+00 -1.9441471116336101e-01 0.0000000000000000e+00  1.0442337909134436e+00 -1.8188281135723655e-01 0.0000000000000000e+00  1.0399687629087311e+00 -1.6957515323673150e-01 0.0000000000000000e+00  1.0357845674171424e+00 -1.5751293451316131e-01 0.0000000000000000e+00  1.0316879521357529e+00 -1.4571792437306030e-01 0.0000000000000000e+00  1.0276856504175451e+00 -1.3421478235541656e-01 0.0000000000000000e+00  1.0237855161007410e+00 -1.2302888655570139e-01 0.0000000000000000e+00  1.0199952813169757e+00 -1.1218834849863485e-01 0.0000000000000000e+00  1.0163238749057857e+00 -1.0172189907907878e-01 0.0000000000000000e+00  1.0127799350289188e+00 -9.1660508885633304e-02 0.0000000000000000e+00  1.0093732908922479e+00 -8.2035227781367293e-02 0.0000000000000000e+00  1.0061132266391251e+00 -7.2878288746849595e-02 0.0000000000000000e+00  1.0030101079799758e+00 -6.4220769202483541e-02 0.0000000000000000e+00  1.0000734048700588e+00 -5.6093046951615745e-02 0.0000000000000000e+00  9.9731345458959253e-01 -4.8522165938547260e-02 0.0000000000000000e+00  9.9473927089099801e-01 -4.1531570118051593e-02 0.0000000000000000e+00  9.9236045326802769e-01 -3.5138165814897940e-02 0.0000000000000000e+00  9.9018483657653633e-01 -2.9351436571418386e-02 0.0000000000000000e+00  9.8822057594263746e-01 -2.4170439764536998e-02 0.0000000000000000e+00  9.8647371171063658e-01 -1.9582713980570529e-02 0.0000000000000000e+00  9.8495046486526283e-01 -1.5561789754341153e-02 0.0000000000000000e+00  9.8365478853825095e-01 -1.2066632020381137e-02 0.0000000000000000e+00  9.8259088158627528e-01 -9.0404969353452078e-03 0.0000000000000000e+00  9.8176075661451168e-01 -6.4117501125892755e-03 0.0000000000000000e+00  9.8116691810762025e-01 -4.0947758019178552e-03 0.0000000000000000e+00  9.8080991332427903e-01 -1.9926188274221280e-03 0.0000000000000000e+00  9.8069106064374933e-01 0.0000000000000000e+00 0.0000000000000000e+00  </DataArray> 
</PointData> 
</Piece>
</UnstructuredGrid>
</VTKFile>