<?xml version="1.0"?>
<VTKFile type="UnstructuredGrid"  version="0.1"  >
<UnstructuredGrid>
<Piece  NumberOfPoints="201" NumberOfCells="200">
<Points>
<DataArray  type="Float64"  NumberOfComponents="3"  format="ascii">-5 0 0  -4.95 0 0  -4.9 0 0  -4.85 0 0  -4.8 0 0  -4.75 0 0  -4.7 0 0  -4.65 0 0  -4.6 0 0  -4.55 0 0  -4.5 0 0  -4.45 0 0  -4.4 0 0  -4.35 0 0  -4.3 0 0  -4.25 0 0  -4.2 0 0  -4.15 0 0  -4.1 0 0  -4.05 0 0  -4 0 0  -3.95 0 0  -3.9 0 0  -3.85 0 0  -3.8 0 0  -3.75 0 0  -3.7 0 0  -3.65 0 0  -3.6 0 0  -3.55 0 0  -3.5 0 0  -3.45 0 0  -3.4 0 0  -3.35 0 0  -3.3 0 0  -3.25 0 0  -3.2 0 0  -3.15 0 0  -3.1 0 0  -3.05 0 0  -3 0 0  -2.95 0 0  -2.9 0 0  -2.85 0 0  -2.8 0 0  -2.75 0 0  -2.7 0 0  -2.65 0 0  -2.6 0 0  -2.55 0 0  -2.5 0 0  -2.45 0 0  -2.4 0 0  -2.35 0 0  -2.3 0 0  -2.25 0 0  -2.2 0 0  -2.15 0 0  -2.1 0 0  -2.05 0 0  -2 0 0  -1.95 0 0  -1.9 0 0  -1.85 0 0  -1.8 0 0  -1.75 0 0  -1.7 0 0  -1.65 0 0  -1.6 0 0  -1.55 0 0  -1.5 0 0  -1.45 0 0  -1.4 0 0  -1.35 0 0  -1.3 0 0  -1.25 0 0  -1.2 0 0  -1.15 0 0  -1.1 0 0  -1.05 0 0  -1 0 0  -0.9500000000000002 0 0  -0.9000000000000004 0 0  -0.8499999999999996 0 0  -0.7999999999999998 0 0  -0.75 0 0  -0.7000000000000002 0 0  -0.6500000000000004 0 0  -0.5999999999999996 0 0  -0.5499999999999998 0 0  -0.5 0 0  -0.4500000000000002 0 0  -0.4000000000000004 0 0  -0.3499999999999996 0 0  -0.2999999999999998 0 0  -0.25 0 0  -0.2000000000000002 0 0  -0.1500000000000004 0 0  -0.09999999999999964 0 0  -0.04999999999999982 0 0  0 0 0  0.04999999999999982 0 0  0.09999999999999964 0 0  0.1500000000000004 0 0  0.2000000000000002 0 0  0.25 0 0  0.2999999999999998 0 0  0.3499999999999996 0 0  0.4000000000000004 0 0  0.4500000000000002 0 0  0.5 0 0  0.5499999999999998 0 0  0.5999999999999996 0 0  0.6500000000000004 0 0  0.7000000000000002 0 0  0.75 0 0  0.7999999999999998 0 0  0.8499999999999996 0 0  0.9000000000000004 0 0  0.9500000000000002 0 0  1 0 0  1.05 0 0  1.1 0 0  1.15 0 0  1.2 0 0  1.25 0 0  1.3 0 0  1.35 0 0  1.4 0 0  1.45 0 0  1.5 0 0  1.55 0 0  1.6 0 0  1.65 0 0  1.7 0 0  1.75 0 0  1.8 0 0  1.85 0 0  1.9 0 0  1.95 0 0  2 0 0  2.05 0 0  2.1 0 0  2.15 0 0  2.2 0 0  2.25 0 0  2.3 0 0  2.35 0 0  2.4 0 0  2.45 0 0  2.5 0 0  2.55 0 0  2.6 0 0  2.65 0 0  2.7 0 0  2.75 0 0  2.8 0 0  2.85 0 0  2.9 0 0  2.95 0 0  3 0 0  3.050000000000001 0 0  3.1 0 0  3.15 0 0  3.199999999999999 0 0  3.25 0 0  3.300000000000001 0 0  3.35 0 0  3.4 0 0  3.449999999999999 0 0  3.5 0 0  3.550000000000001 0 0  3.6 0 0  3.65 0 0  3.699999999999999 0 0  3.75 0 0  3.800000000000001 0 0  3.85 0 0  3.9 0 0  3.949999999999999 0 0  4 0 0  4.050000000000001 0 0  4.1 0 0  4.15 0 0  4.199999999999999 0 0  4.25 0 0  4.300000000000001 0 0  4.35 0 0  4.4 0 0  4.449999999999999 0 0  4.5 0 0  4.550000000000001 0 0  4.6 0 0  4.65 0 0  4.699999999999999 0 0  4.75 0 0  4.800000000000001 0 0  4.85 0 0  4.9 0 0  4.949999999999999 0 0  5 0 0  </DataArray>
</Points>
<Cells>
<DataArray  type="UInt32"  Name="connectivity"  format="ascii">0 1  1 2  2 3  3 4  4 5  5 6  6 7  7 8  8 9  9 10  10 11  11 12  12 13  13 14  14 15  15 16  16 17  17 18  18 19  19 20  20 21  21 22  22 23  23 24  24 25  25 26  26 27  27 28  28 29  29 30  30 31  31 32  32 33  33 34  34 35  35 36  36 37  37 38  38 39  39 40  40 41  41 42  42 43  43 44  44 45  45 46  46 47  47 48  48 49  49 50  50 51  51 52  52 53  53 54  54 55  55 56  56 57  57 58  58 59  59 60  60 61  61 62  62 63  63 64  64 65  65 66  66 67  67 68  68 69  69 70  70 71  71 72  72 73  73 74  74 75  75 76  76 77  77 78  78 79  79 80  80 81  81 82  82 83  83 84  84 85  85 86  86 87  87 88  88 89  89 90  90 91  91 92  92 93  93 94  94 95  95 96  96 97  97 98  98 99  99 100  100 101  101 102  102 103  103 104  104 105  105 106  106 107  107 108  108 109  109 110  110 111  111 112  112 113  113 114  114 115  115 116  116 117  117 118  118 119  119 120  120 121  121 122  122 123  123 124  124 125  125 126  126 127  127 128  128 129  129 130  130 131  131 132  132 133  133 134  134 135  135 136  136 137  137 138  138 139  139 140  140 141  141 142  142 143  143 144  144 145  145 146  146 147  147 148  148 149  149 150  150 151  151 152  152 153  153 154  154 155  155 156  156 157  157 158  158 159  159 160  160 161  161 162  162 163  163 164  164 165  165 166  166 167  167 168  168 169  169 170  170 171  171 172  172 173  173 174  174 175  175 176  176 177  177 178  178 179  179 180  180 181  181 182  182 183  183 184  184 185  185 186  186 187  187 188  188 189  189 190  190 191  191 192  192 193  193 194  194 195  195 196  196 197  197 198  198 199  199 200  </DataArray>
<DataArray  type="UInt32"  Name="offsets"  format="ascii">2 4 6 8 10 12 14 16 18 20 22 24 26 28 30 32 34 36 38 40 42 44 46 48 50 52 54 56 58 60 62 64 66 68 70 72 74 76 78 80 82 84 86 88 90 92 94 96 98 100 102 104 106 108 110 112 114 116 118 120 122 124 126 128 130 132 134 136 138 140 142 144 146 148 150 152 154 156 158 160 162 164 166 168 170 172 174 176 178 180 182 184 186 188 190 192 194 196 198 200 202 204 206 208 210 212 214 216 218 220 222 224 226 228 230 232 234 236 238 240 242 244 246 248 250 252 254 256 258 260 262 264 266 268 270 272 274 276 278 280 282 284 286 288 290 292 294 296 298 300 302 304 306 308 310 312 314 316 318 320 322 324 326 328 330 332 334 336 338 340 342 344 346 348 350 352 354 356 358 360 362 364 366 368 370 372 374 376 378 380 382 384 386 388 390 392 394 396 398 400 </DataArray>
<DataArray  type="UInt8"  Name="types"  format="ascii">3 3 3 3 3 3 3 3 3 3 3 3 3 3 3 3 3 3 3 3 3 3 3 3 3 3 3 3 3 3 3 3 3 3 3 3 3 3 3 3 3 3 3 3 3 3 3 3 3 3 3 3 3 3 3 3 3 3 3 3 3 3 3 3 3 3 3 3 3 3 3 3 3 3 3 3 3 3 3 3 3 3 3 3 3 3 3 3 3 3 3 3 3 3 3 3 3 3 3 3 3 3 3 3 3 3 3 3 3 3 3 3 3 3 3 3 3 3 3 3 3 3 3 3 3 3 3 3 3 3 3 3 3 3 3 3 3 3 3 3 3 3 3 3 3 3 3 3 3 3 3 3 3 3 3 3 3 3 3 3 3 3 3 3 3 3 3 3 3 3 3 3 3 3 3 3 3 3 3 3 3 3 3 3 3 3 3 3 3 3 3 3 3 3 3 3 3 3 3 3 </DataArray>
</Cells>
<PointData  Vectors="(h, u)"> 
<DataArray  type="Float64"  Name="(h, u)"  NumberOfComponents="3" format="ascii">9.9182255255031948e-01 0.0000000000000000e+00 0.0000000000000000e+00  9.9182170277757553e-01 -2.6356237440264713e-04 0.0000000000000000e+00  9.9181934739071020e-01 -5.2731781171835553e-04 0.0000000000000000e+00  9.9181528979781275e-01 -7.9126144847232777e-04 0.0000000000000000e+00  9.9180971810337504e-01 -1.0557848988957575e-03 0.0000000000000000e+00  9.9180243618266961e-01 -1.3206876975664504e-03 0.0000000000000000e+00  9.9179362314698993e-01 -1.5865589738613881e-03 0.0000000000000000e+00  9.9178308639888735e-01 -1.8530067452336395e-03 0.0000000000000000e+00  9.9177099294179760e-01 -2.1208150138074680e-03 0.0000000000000000e+00  9.9175715668932540e-01 -2.3894062578652827e-03 0.0000000000000000e+00  9.9174172956054496e-01 -2.6597552547416104e-03 0.0000000000000000e+00  9.9172453493856494e-01 -2.9311071455414288e-03 0.0000000000000000e+00  9.9170570700909189e-01 -3.2046223991987113e-03 0.0000000000000000e+00  9.9168508178673354e-01 -3.4793801422872833e-03 0.0000000000000000e+00  9.9166277389468471e-01 -3.7567218918101580e-03 0.0000000000000000e+00  9.9163863609467096e-01 -4.0355777363561274e-03 0.0000000000000000e+00  9.9161276381232977e-01 -4.3174702545333617e-03 0.0000000000000000e+00  9.9158503387962404e-01 -4.6012103743672443e-03 0.0000000000000000e+00  9.9155552898962096e-01 -4.8885186216375848e-03 0.0000000000000000e+00  9.9152416710835267e-01 -5.1781502159680979e-03 0.0000000000000000e+00  9.9149104183483405e-01 -5.4720922060884549e-03 0.0000000000000000e+00  9.9145615762025330e-01 -5.7691995400450139e-03 0.0000000000000000e+00  9.9141969085455806e-01 -6.0719438714983871e-03 0.0000000000000000e+00  9.9138185789692512e-01 -6.3796901962457301e-03 0.0000000000000000e+00  9.9134312405765057e-01 -6.6960330856191460e-03 0.0000000000000000e+00  9.9130426533256588e-01 -7.0219601506659500e-03 0.0000000000000000e+00  9.9126661042543507e-01 -7.3639842438351548e-03 0.0000000000000000e+00  9.9123244850620718e-01 -7.7277367272967114e-03 0.0000000000000000e+00  9.9120553899195263e-01 -8.1275663660567293e-03 0.0000000000000000e+00  9.9119225418382995e-01 -8.5818568672796913e-03 0.0000000000000000e+00  9.9120296674595776e-01 -9.1259365516017064e-03 0.0000000000000000e+00  9.9125489818381707e-01 -9.8122490879367485e-03 0.0000000000000000e+00  9.9137588148206734e-01 -1.0731199977173953e-02 0.0000000000000000e+00  9.9161119400381925e-01 -1.2023407182509216e-02 0.0000000000000000e+00  9.9203301648396580e-01 -1.3918798086689546e-02 0.0000000000000000e+00  9.9275581795136525e-01 -1.6775236431514035e-02 0.0000000000000000e+00  9.9395704805278318e-01 -2.1152833552990791e-02 0.0000000000000000e+00  9.9590598949034370e-01 -2.7893563200108194e-02 0.0000000000000000e+00  9.9899511687117204e-01 -3.8226866631474787e-02 0.0000000000000000e+00  1.0037652728503399e+00 -5.3832193586921304e-02 0.0000000000000000e+00  1.0108941465396328e+00 -7.6800467350632576e-02 0.0000000000000000e+00  1.0211057195943107e+00 -1.0931981020036470e-01 0.0000000000000000e+00  1.0349524448011884e+00 -1.5298271162145904e-01 0.0000000000000000e+00  1.0524929936296017e+00 -2.0776905934019077e-01 0.0000000000000000e+00  1.0730127037879578e+00 -2.7124224064284075e-01 0.0000000000000000e+00  1.0950292999208855e+00 -3.3867416509290005e-01 0.0000000000000000e+00  1.1166781579453964e+00 -4.0435910959286603e-01 0.0000000000000000e+00  1.1362793209166999e+00 -4.6335730210484966e-01 0.0000000000000000e+00  1.1527430799427854e+00 -5.1264526399752519e-01 0.0000000000000000e+00  1.1656601237049866e+00 -5.5124757514283229e-01 0.0000000000000000e+00  1.1751497530608657e+00 -5.7970778176720472e-01 0.0000000000000000e+00  1.1816362794521063e+00 -5.9938453118660551e-01 0.0000000000000000e+00  1.1856558331102103e+00 -6.1190357850527688e-01 0.0000000000000000e+00  1.1877378075442298e+00 -6.1881845291454385e-01 0.0000000000000000e+00  1.1883433477605585e+00 -6.2146301685219685e-01 0.0000000000000000e+00  1.1878494377942830e+00 -6.2090444231823760e-01 0.0000000000000000e+00  1.1865492760132637e+00 -6.1796537621353109e-01 0.0000000000000000e+00  1.1846673714735354e+00 -6.1325690475790917e-01 0.0000000000000000e+00  1.1823708848144481e+00 -6.0722744898187342e-01 0.0000000000000000e+00  1.1797860671047233e+00 -6.0019578241397542e-01 0.0000000000000000e+00  1.1770059187549728e+00 -5.9238882169679030e-01 0.0000000000000000e+00  1.1741021887674703e+00 -5.8396083181581659e-01 0.0000000000000000e+00  1.1711281290208626e+00 -5.7501812465322388e-01 0.0000000000000000e+00  1.1681268630331332e+00 -5.6562754574769425e-01 0.0000000000000000e+00  1.1651307384494127e+00 -5.5583264394856247e-01 0.0000000000000000e+00  1.1621676343554961e+00 -5.4565593686944236e-01 0.0000000000000000e+00  1.1592582958734294e+00 -5.3511028378025249e-01 0.0000000000000000e+00  1.1564217032659372e+00 -5.2419785220408532e-01 0.0000000000000000e+00  1.1536712672165736e+00 -5.1291880336932760e-01 0.0000000000000000e+00  1.1510199188805548e+00 -5.0126849338719803e-01 0.0000000000000000e+00  1.1484756598012320e+00 -4.8924450596817454e-01 0.0000000000000000e+00  1.1460467209951080e+00 -4.7684284668872107e-01 0.0000000000000000e+00  1.1437367196392965e+00 -4.6406383288678676e-01 0.0000000000000000e+00  1.1415500442203399e+00 -4.5090770305448036e-01 0.0000000000000000e+00  1.1394867261772363e+00 -4.3737966909153120e-01 0.0000000000000000e+00  1.1375480968964020e+00 -4.2348524076145611e-01 0.0000000000000000e+00  1.1357314046131128e+00 -4.0923466975453499e-01 0.0000000000000000e+00  1.1340357328150454e+00 -3.9463823375083962e-01 0.0000000000000000e+00  1.1324563602783300e+00 -3.7971025180428392e-01 0.0000000000000000e+00  1.1309909107529510e+00 -3.6446452010664693e-01 0.0000000000000000e+00  1.1296334495238582e+00 -3.4891802207840145e-01 0.0000000000000000e+00  1.1283808345979034e+00 -3.3308664885806138e-01 0.0000000000000000e+00  1.1272265515823978e+00 -3.1698866951293136e-01 0.0000000000000000e+00  1.1261672440730930e+00 -3.0064081428131006e-01 0.0000000000000000e+00  1.1251962995758971e+00 -2.8406152246649313e-01 0.0000000000000000e+00  1.1243105438163037e+00 -2.6726742531936537e-01 0.0000000000000000e+00  1.1235035988499629e+00 -2.5027635774933399e-01 0.0000000000000000e+00  1.1227727297572272e+00 -2.3310425288566453e-01 0.0000000000000000e+00  1.1221120008438323e+00 -2.1576788801747598e-01 0.0000000000000000e+00  1.1215192637128142e+00 -1.9828219124963622e-01 0.0000000000000000e+00  1.1209891393038631e+00 -1.8066268771819641e-01 0.0000000000000000e+00  1.1205201347942648e+00 -1.6292321546641089e-01 0.0000000000000000e+00  1.1201074793738015e+00 -1.4507804019886289e-01 0.0000000000000000e+00  1.1197503549835501e+00 -1.2713997825107110e-01 0.0000000000000000e+00  1.1194446131440536e+00 -1.0912215333118447e-01 0.0000000000000000e+00  1.1191901019953663e+00 -9.1036526386389996e-02 0.0000000000000000e+00  1.1189832907602197e+00 -7.2895273752015516e-02 0.0000000000000000e+00  1.1188246733174547e+00 -5.4709725301641518e-02 0.0000000000000000e+00  1.1187113262317250e+00 -3.6491349098487447e-02 0.0000000000000000e+00  1.1186443673228972e+00 -1.8251099826801453e-02 0.0000000000000000e+00  1.1186214726692991e+00 2.2636584658538138e-16 0.0000000000000000e+00  1.1186443673228970e+00 1.8251099826800763e-02 0.0000000000000000e+00  1.1187113262317248e+00 3.6491349098489140e-02 0.0000000000000000e+00  1.1188246733174545e+00 5.4709725301641123e-02 0.0000000000000000e+00  1.1189832907602193e+00 7.2895273752016196e-02 0.0000000000000000e+00  1.1191901019953661e+00 9.1036526386389899e-02 0.0000000000000000e+00  1.1194446131440527e+00 1.0912215333118426e-01 0.0000000000000000e+00  1.1197503549835492e+00 1.2713997825107123e-01 0.0000000000000000e+00  1.1201074793738006e+00 1.4507804019886186e-01 0.0000000000000000e+00  1.1205201347942644e+00 1.6292321546641075e-01 0.0000000000000000e+00  1.1209891393038629e+00 1.8066268771819488e-01 0.0000000000000000e+00  1.1215192637128140e+00 1.9828219124963631e-01 0.0000000000000000e+00  1.1221120008438323e+00 2.1576788801747451e-01 0.0000000000000000e+00  1.1227727297572270e+00 2.3310425288566450e-01 0.0000000000000000e+00  1.1235035988499631e+00 2.5027635774933232e-01 0.0000000000000000e+00  1.1243105438163032e+00 2.6726742531936476e-01 0.0000000000000000e+00  1.1251962995758971e+00 2.8406152246649069e-01 0.0000000000000000e+00  1.1261672440730923e+00 3.0064081428130973e-01 0.0000000000000000e+00  1.1272265515823976e+00 3.1698866951292870e-01 0.0000000000000000e+00  1.1283808345979029e+00 3.3308664885805972e-01 0.0000000000000000e+00  1.1296334495238580e+00 3.4891802207839950e-01 0.0000000000000000e+00  1.1309909107529506e+00 3.6446452010664504e-01 0.0000000000000000e+00  1.1324563602783297e+00 3.7971025180428242e-01 0.0000000000000000e+00  1.1340357328150450e+00 3.9463823375083901e-01 0.0000000000000000e+00  1.1357314046131128e+00 4.0923466975453304e-01 0.0000000000000000e+00  1.1375480968964018e+00 4.2348524076145466e-01 0.0000000000000000e+00  1.1394867261772366e+00 4.3737966909152981e-01 0.0000000000000000e+00  1.1415500442203399e+00 4.5090770305447858e-01 0.0000000000000000e+00  1.1437367196392969e+00 4.6406383288678654e-01 0.0000000000000000e+00  1.1460467209951080e+00 4.7684284668872007e-01 0.0000000000000000e+00  1.1484756598012325e+00 4.8924450596817481e-01 0.0000000000000000e+00  1.1510199188805548e+00 5.0126849338719659e-01 0.0000000000000000e+00  1.1536712672165743e+00 5.1291880336932660e-01 0.0000000000000000e+00  1.1564217032659374e+00 5.2419785220408499e-01 0.0000000000000000e+00  1.1592582958734301e+00 5.3511028378025249e-01 0.0000000000000000e+00  1.1621676343554961e+00 5.4565593686944214e-01 0.0000000000000000e+00  1.1651307384494127e+00 5.5583264394856247e-01 0.0000000000000000e+00  1.1681268630331334e+00 5.6562754574769392e-01 0.0000000000000000e+00  1.1711281290208626e+00 5.7501812465322366e-01 0.0000000000000000e+00  1.1741021887674701e+00 5.8396083181581715e-01 0.0000000000000000e+00  1.1770059187549726e+00 5.9238882169679075e-01 0.0000000000000000e+00  1.1797860671047224e+00 6.0019578241397575e-01 0.0000000000000000e+00  1.1823708848144481e+00 6.0722744898187286e-01 0.0000000000000000e+00  1.1846673714735347e+00 6.1325690475791017e-01 0.0000000000000000e+00  1.1865492760132639e+00 6.1796537621352932e-01 0.0000000000000000e+00  1.1878494377942823e+00 6.2090444231823871e-01 0.0000000000000000e+00  1.1883433477605587e+00 6.2146301685219529e-01 0.0000000000000000e+00  1.1877378075442293e+00 6.1881845291454596e-01 0.0000000000000000e+00  1.1856558331102105e+00 6.1190357850527610e-01 0.0000000000000000e+00  1.1816362794521058e+00 5.9938453118660684e-01 0.0000000000000000e+00  1.1751497530608663e+00 5.7970778176720283e-01 0.0000000000000000e+00  1.1656601237049864e+00 5.5124757514283362e-01 0.0000000000000000e+00  1.1527430799427865e+00 5.1264526399752441e-01 0.0000000000000000e+00  1.1362793209166999e+00 4.6335730210485104e-01 0.0000000000000000e+00  1.1166781579453973e+00 4.0435910959286625e-01 0.0000000000000000e+00  1.0950292999208859e+00 3.3867416509290255e-01 0.0000000000000000e+00  1.0730127037879584e+00 2.7124224064284180e-01 0.0000000000000000e+00  1.0524929936296019e+00 2.0776905934019263e-01 0.0000000000000000e+00  1.0349524448011882e+00 1.5298271162145780e-01 0.0000000000000000e+00  1.0211057195943107e+00 1.0931981020036431e-01 0.0000000000000000e+00  1.0108941465396326e+00 7.6800467350632007e-02 0.0000000000000000e+00  1.0037652728503397e+00 5.3832193586921137e-02 0.0000000000000000e+00  9.9899511687117171e-01 3.8226866631473663e-02 0.0000000000000000e+00  9.9590598949034337e-01 2.7893563200107389e-02 0.0000000000000000e+00  9.9395704805278262e-01 2.1152833552990628e-02 0.0000000000000000e+00  9.9275581795136503e-01 1.6775236431513574e-02 0.0000000000000000e+00  9.9203301648396536e-01 1.3918798086689719e-02 0.0000000000000000e+00  9.9161119400381903e-01 1.2023407182508604e-02 0.0000000000000000e+00  9.9137588148206712e-01 1.0731199977174500e-02 0.0000000000000000e+00  9.9125489818381685e-01 9.8122490879361587e-03 0.0000000000000000e+00  9.9120296674595743e-01 9.1259365516022217e-03 0.0000000000000000e+00  9.9119225418382972e-01 8.5818568672794467e-03 0.0000000000000000e+00  9.9120553899195230e-01 8.1275663660572567e-03 0.0000000000000000e+00  9.9123244850620706e-01 7.7277367272964373e-03 0.0000000000000000e+00  9.9126661042543496e-01 7.3639842438356440e-03 0.0000000000000000e+00  9.9130426533256599e-01 7.0219601506651668e-03 0.0000000000000000e+00  9.9134312405765013e-01 6.6960330856200376e-03 0.0000000000000000e+00  9.9138185789692523e-01 6.3796901962453068e-03 0.0000000000000000e+00  9.9141969085455783e-01 6.0719438714993777e-03 0.0000000000000000e+00  9.9145615762025341e-01 5.7691995400452577e-03 0.0000000000000000e+00  9.9149104183483361e-01 5.4720922060901445e-03 0.0000000000000000e+00  9.9152416710835278e-01 5.1781502159681412e-03 0.0000000000000000e+00  9.9155552898962063e-01 4.8885186216384843e-03 0.0000000000000000e+00  9.9158503387962449e-01 4.6012103743670327e-03 0.0000000000000000e+00  9.9161276381232943e-01 4.3174702545348224e-03 0.0000000000000000e+00  9.9163863609467118e-01 4.0355777363570069e-03 0.0000000000000000e+00  9.9166277389468438e-01 3.7567218918114010e-03 0.0000000000000000e+00  9.9168508178673387e-01 3.4793801422878306e-03 0.0000000000000000e+00  9.9170570700909155e-01 3.2046223992001945e-03 0.0000000000000000e+00  9.9172453493856549e-01 2.9311071455424506e-03 0.0000000000000000e+00  9.9174172956054474e-01 2.6597552547431413e-03 0.0000000000000000e+00  9.9175715668932596e-01 2.3894062578662194e-03 0.0000000000000000e+00  9.9177099294179760e-01 2.1208150138084469e-03 0.0000000000000000e+00  9.9178308639888813e-01 1.8530067452345532e-03 0.0000000000000000e+00  9.9179362314698971e-01 1.5865589738626213e-03 0.0000000000000000e+00  9.9180243618267061e-01 1.3206876975672154e-03 0.0000000000000000e+00  9.9180971810337515e-01 1.0557848988965606e-03 0.0000000000000000e+00  9.9181528979781375e-01 7.9126144847302361e-04 0.0000000000000000e+00  9.9181934739071020e-01 5.2731781171873337e-04 0.0000000000000000e+00  9.9182170277757631e-01 2.6356237440276065e-04 0.0000000000000000e+00  9.9182255255031937e-01 0.0000000000000000e+00 0.0000000000000000e+00  </DataArray> 
</PointData> 
</Piece>
</UnstructuredGrid>
</VTKFile>