<?xml version="1.0"?>
<VTKFile type="UnstructuredGrid"  version="0.1"  >
<UnstructuredGrid>
<Piece  NumberOfPoints="201" NumberOfCells="200">
<Points>
<DataArray  type="Float64"  NumberOfComponents="3"  format="ascii">-5 0 0  -4.95 0 0  -4.9 0 0  -4.85 0 0  -4.8 0 0  -4.75 0 0  -4.7 0 0  -4.65 0 0  -4.6 0 0  -4.55 0 0  -4.5 0 0  -4.45 0 0  -4.4 0 0  -4.35 0 0  -4.3 0 0  -4.25 0 0  -4.2 0 0  -4.15 0 0  -4.1 0 0  -4.05 0 0  -4 0 0  -3.95 0 0  -3.9 0 0  -3.85 0 0  -3.8 0 0  -3.75 0 0  -3.7 0 0  -3.65 0 0  -3.6 0 0  -3.55 0 0  -3.5 0 0  -3.45 0 0  -3.4 0 0  -3.35 0 0  -3.3 0 0  -3.25 0 0  -3.2 0 0  -3.15 0 0  -3.1 0 0  -3.05 0 0  -3 0 0  -2.95 0 0  -2.9 0 0  -2.85 0 0  -2.8 0 0  -2.75 0 0  -2.7 0 0  -2.65 0 0  -2.6 0 0  -2.55 0 0  -2.5 0 0  -2.45 0 0  -2.4 0 0  -2.35 0 0  -2.3 0 0  -2.25 0 0  -2.2 0 0  -2.15 0 0  -2.1 0 0  -2.05 0 0  -2 0 0  -1.95 0 0  -1.9 0 0  -1.85 0 0  -1.8 0 0  -1.75 0 0  -1.7 0 0  -1.65 0 0  -1.6 0 0  -1.55 0 0  -1.5 0 0  -1.45 0 0  -1.4 0 0  -1.35 0 0  -1.3 0 0  -1.25 0 0  -1.2 0 0  -1.15 0 0  -1.1 0 0  -1.05 0 0  -1 0 0  -0.9500000000000002 0 0  -0.9000000000000004 0 0  -0.8499999999999996 0 0  -0.7999999999999998 0 0  -0.75 0 0  -0.7000000000000002 0 0  -0.6500000000000004 0 0  -0.5999999999999996 0 0  -0.5499999999999998 0 0  -0.5 0 0  -0.4500000000000002 0 0  -0.4000000000000004 0 0  -0.3499999999999996 0 0  -0.2999999999999998 0 0  -0.25 0 0  -0.2000000000000002 0 0  -0.1500000000000004 0 0  -0.09999999999999964 0 0  -0.04999999999999982 0 0  0 0 0  0.04999999999999982 0 0  0.09999999999999964 0 0  0.1500000000000004 0 0  0.2000000000000002 0 0  0.25 0 0  0.2999999999999998 0 0  0.3499999999999996 0 0  0.4000000000000004 0 0  0.4500000000000002 0 0  0.5 0 0  0.5499999999999998 0 0  0.5999999999999996 0 0  0.6500000000000004 0 0  0.7000000000000002 0 0  0.75 0 0  0.7999999999999998 0 0  0.8499999999999996 0 0  0.9000000000000004 0 0  0.9500000000000002 0 0  1 0 0  1.05 0 0  1.1 0 0  1.15 0 0  1.2 0 0  1.25 0 0  1.3 0 0  1.35 0 0  1.4 0 0  1.45 0 0  1.5 0 0  1.55 0 0  1.6 0 0  1.65 0 0  1.7 0 0  1.75 0 0  1.8 0 0  1.85 0 0  1.9 0 0  1.95 0 0  2 0 0  2.05 0 0  2.1 0 0  2.15 0 0  2.2 0 0  2.25 0 0  2.3 0 0  2.35 0 0  2.4 0 0  2.45 0 0  2.5 0 0  2.55 0 0  2.6 0 0  2.65 0 0  2.7 0 0  2.75 0 0  2.8 0 0  2.85 0 0  2.9 0 0  2.95 0 0  3 0 0  3.050000000000001 0 0  3.1 0 0  3.15 0 0  3.199999999999999 0 0  3.25 0 0  3.300000000000001 0 0  3.35 0 0  3.4 0 0  3.449999999999999 0 0  3.5 0 0  3.550000000000001 0 0  3.6 0 0  3.65 0 0  3.699999999999999 0 0  3.75 0 0  3.800000000000001 0 0  3.85 0 0  3.9 0 0  3.949999999999999 0 0  4 0 0  4.050000000000001 0 0  4.1 0 0  4.15 0 0  4.199999999999999 0 0  4.25 0 0  4.300000000000001 0 0  4.35 0 0  4.4 0 0  4.449999999999999 0 0  4.5 0 0  4.550000000000001 0 0  4.6 0 0  4.65 0 0  4.699999999999999 0 0  4.75 0 0  4.800000000000001 0 0  4.85 0 0  4.9 0 0  4.949999999999999 0 0  5 0 0  </DataArray>
</Points>
<Cells>
<DataArray  type="UInt32"  Name="connectivity"  format="ascii">0 1  1 2  2 3  3 4  4 5  5 6  6 7  7 8  8 9  9 10  10 11  11 12  12 13  13 14  14 15  15 16  16 17  17 18  18 19  19 20  20 21  21 22  22 23  23 24  24 25  25 26  26 27  27 28  28 29  29 30  30 31  31 32  32 33  33 34  34 35  35 36  36 37  37 38  38 39  39 40  40 41  41 42  42 43  43 44  44 45  45 46  46 47  47 48  48 49  49 50  50 51  51 52  52 53  53 54  54 55  55 56  56 57  57 58  58 59  59 60  60 61  61 62  62 63  63 64  64 65  65 66  66 67  67 68  68 69  69 70  70 71  71 72  72 73  73 74  74 75  75 76  76 77  77 78  78 79  79 80  80 81  81 82  82 83  83 84  84 85  85 86  86 87  87 88  88 89  89 90  90 91  91 92  92 93  93 94  94 95  95 96  96 97  97 98  98 99  99 100  100 101  101 102  102 103  103 104  104 105  105 106  106 107  107 108  108 109  109 110  110 111  111 112  112 113  113 114  114 115  115 116  116 117  117 118  118 119  119 120  120 121  121 122  122 123  123 124  124 125  125 126  126 127  127 128  128 129  129 130  130 131  131 132  132 133  133 134  134 135  135 136  136 137  137 138  138 139  139 140  140 141  141 142  142 143  143 144  144 145  145 146  146 147  147 148  148 149  149 150  150 151  151 152  152 153  153 154  154 155  155 156  156 157  157 158  158 159  159 160  160 161  161 162  162 163  163 164  164 165  165 166  166 167  167 168  168 169  169 170  170 171  171 172  172 173  173 174  174 175  175 176  176 177  177 178  178 179  179 180  180 181  181 182  182 183  183 184  184 185  185 186  186 187  187 188  188 189  189 190  190 191  191 192  192 193  193 194  194 195  195 196  196 197  197 198  198 199  199 200  </DataArray>
<DataArray  type="UInt32"  Name="offsets"  format="ascii">2 4 6 8 10 12 14 16 18 20 22 24 26 28 30 32 34 36 38 40 42 44 46 48 50 52 54 56 58 60 62 64 66 68 70 72 74 76 78 80 82 84 86 88 90 92 94 96 98 100 102 104 106 108 110 112 114 116 118 120 122 124 126 128 130 132 134 136 138 140 142 144 146 148 150 152 154 156 158 160 162 164 166 168 170 172 174 176 178 180 182 184 186 188 190 192 194 196 198 200 202 204 206 208 210 212 214 216 218 220 222 224 226 228 230 232 234 236 238 240 242 244 246 248 250 252 254 256 258 260 262 264 266 268 270 272 274 276 278 280 282 284 286 288 290 292 294 296 298 300 302 304 306 308 310 312 314 316 318 320 322 324 326 328 330 332 334 336 338 340 342 344 346 348 350 352 354 356 358 360 362 364 366 368 370 372 374 376 378 380 382 384 386 388 390 392 394 396 398 400 </DataArray>
<DataArray  type="UInt8"  Name="types"  format="ascii">3 3 3 3 3 3 3 3 3 3 3 3 3 3 3 3 3 3 3 3 3 3 3 3 3 3 3 3 3 3 3 3 3 3 3 3 3 3 3 3 3 3 3 3 3 3 3 3 3 3 3 3 3 3 3 3 3 3 3 3 3 3 3 3 3 3 3 3 3 3 3 3 3 3 3 3 3 3 3 3 3 3 3 3 3 3 3 3 3 3 3 3 3 3 3 3 3 3 3 3 3 3 3 3 3 3 3 3 3 3 3 3 3 3 3 3 3 3 3 3 3 3 3 3 3 3 3 3 3 3 3 3 3 3 3 3 3 3 3 3 3 3 3 3 3 3 3 3 3 3 3 3 3 3 3 3 3 3 3 3 3 3 3 3 3 3 3 3 3 3 3 3 3 3 3 3 3 3 3 3 3 3 3 3 3 3 3 3 3 3 3 3 3 3 3 3 3 3 3 3 </DataArray>
</Cells>
<PointData  Vectors="(h, u)"> 
<DataArray  type="Float64"  Name="(h, u)"  NumberOfComponents="3" format="ascii">9.9323811309269927e-01 0.0000000000000000e+00 0.0000000000000000e+00  9.9323996072680809e-01 -2.1203819144961412e-04 0.0000000000000000e+00  9.9324486290300051e-01 -4.3089163578414205e-04 0.0000000000000000e+00  9.9325565195766641e-01 -6.6485269582404157e-04 0.0000000000000000e+00  9.9327439034487097e-01 -9.2619836735771427e-04 0.0000000000000000e+00  9.9330776398830178e-01 -1.2331950283241567e-03 0.0000000000000000e+00  9.9336368384531548e-01 -1.6154980007119753e-03 0.0000000000000000e+00  9.9345798496618476e-01 -2.1192107949675096e-03 0.0000000000000000e+00  9.9361291292905141e-01 -2.8187830458288781e-03 0.0000000000000000e+00  9.9386675529709001e-01 -3.8303672854731372e-03 0.0000000000000000e+00  9.9427654328345483e-01 -5.3376443601389724e-03 0.0000000000000000e+00  9.9493383399335278e-01 -7.6235303973731282e-03 0.0000000000000000e+00  9.9597555893308332e-01 -1.1122097284228735e-02 0.0000000000000000e+00  9.9760975413570385e-01 -1.6479994406155045e-02 0.0000000000000000e+00  1.0001354664314852e+00 -2.4636079288143736e-02 0.0000000000000000e+00  1.0039701244214523e+00 -3.6883921669510863e-02 0.0000000000000000e+00  1.0096490316761055e+00 -5.4882150212966850e-02 0.0000000000000000e+00  1.0177876835090027e+00 -8.0502959049990219e-02 0.0000000000000000e+00  1.0289503584751314e+00 -1.1542440342820824e-01 0.0000000000000000e+00  1.0434308995173798e+00 -1.6041465855158982e-01 0.0000000000000000e+00  1.0609872170057406e+00 -2.1454532799435080e-01 0.0000000000000000e+00  1.0807070904338503e+00 -2.7482143567424355e-01 0.0000000000000000e+00  1.1011399829530923e+00 -3.3670935095253079e-01 0.0000000000000000e+00  1.1206968503496577e+00 -3.9540875216867322e-01 0.0000000000000000e+00  1.1380785025193110e+00 -4.4716150590211035e-01 0.0000000000000000e+00  1.1525265683961645e+00 -4.8990131585741559e-01 0.0000000000000000e+00  1.1638211846041209e+00 -5.2317607787815357e-01 0.0000000000000000e+00  1.1721387901887763e+00 -5.4764679150339080e-01 0.0000000000000000e+00  1.1778674188953526e+00 -5.6454961569463424e-01 0.0000000000000000e+00  1.1814692547290861e+00 -5.7527838131682407e-01 0.0000000000000000e+00  1.1833877863547266e+00 -5.8115167141727675e-01 0.0000000000000000e+00  1.1840108542046799e+00 -5.8329633367707390e-01 0.0000000000000000e+00  1.1836528303051317e+00 -5.8262824873259822e-01 0.0000000000000000e+00  1.1825627200361106e+00 -5.7985854535357673e-01 0.0000000000000000e+00  1.1809286748368615e+00 -5.7553272449394011e-01 0.0000000000000000e+00  1.1788943431667234e+00 -5.7005625185134412e-01 0.0000000000000000e+00  1.1765642922231943e+00 -5.6373388891272802e-01 0.0000000000000000e+00  1.1740178923942333e+00 -5.5678678741505416e-01 0.0000000000000000e+00  1.1713113370578137e+00 -5.4938138426466587e-01 0.0000000000000000e+00  1.1684880281855690e+00 -5.4163618777080202e-01 0.0000000000000000e+00  1.1655777111450194e+00 -5.3364218731039170e-01 0.0000000000000000e+00  1.1626043761658695e+00 -5.2546261694357810e-01 0.0000000000000000e+00  1.1595836412522986e+00 -5.1714815911854917e-01 0.0000000000000000e+00  1.1565291403752092e+00 -5.0873261744769660e-01 0.0000000000000000e+00  1.1534489904713110e+00 -5.0024522871851484e-01 0.0000000000000000e+00  1.1503512813988552e+00 -4.9170410591551567e-01 0.0000000000000000e+00  1.1472401322835200e+00 -4.8312700420793064e-01 0.0000000000000000e+00  1.1441206220589291e+00 -4.7452359673860584e-01 0.0000000000000000e+00  1.1409947212317757e+00 -4.6590541243083655e-01 0.0000000000000000e+00  1.1378658350785165e+00 -4.5727752941730093e-01 0.0000000000000000e+00  1.1347347709854478e+00 -4.4864804542782882e-01 0.0000000000000000e+00  1.1316039749703608e+00 -4.4001951103840581e-01 0.0000000000000000e+00  1.1284736265567217e+00 -4.3139810185406718e-01 0.0000000000000000e+00  1.1253456018507892e+00 -4.2278497484002242e-01 0.0000000000000000e+00  1.1222197518394859e+00 -4.1418521184307439e-01 0.0000000000000000e+00  1.1190976017725083e+00 -4.0559920977419756e-01 0.0000000000000000e+00  1.1159788496760068e+00 -3.9703141377976076e-01 0.0000000000000000e+00  1.1128648009644111e+00 -3.8848181360826911e-01 0.0000000000000000e+00  1.1097551135862489e+00 -3.7995445820504103e-01 0.0000000000000000e+00  1.1066509626006924e+00 -3.7144910900836320e-01 0.0000000000000000e+00  1.1035520524063884e+00 -3.6296951358707696e-01 0.0000000000000000e+00  1.1004595052985164e+00 -3.5451525325475147e-01 0.0000000000000000e+00  1.0973731573854866e+00 -3.4608974570342255e-01 0.0000000000000000e+00  1.0942941661018875e+00 -3.3769231545050943e-01 0.0000000000000000e+00  1.0912226032934218e+00 -3.2932589208042867e-01 0.0000000000000000e+00  1.0881597780465033e+00 -3.2098932684604048e-01 0.0000000000000000e+00  1.0851061369231607e+00 -3.1268475427334647e-01 0.0000000000000000e+00  1.0820632991895565e+00 -3.0441017773917928e-01 0.0000000000000000e+00  1.0790322693397700e+00 -2.9616646924915480e-01 0.0000000000000000e+00  1.0760151809551399e+00 -2.8795025266284618e-01 0.0000000000000000e+00  1.0730138198311674e+00 -2.7976053070749618e-01 0.0000000000000000e+00  1.0700310699343625e+00 -2.7159190729869070e-01 0.0000000000000000e+00  1.0670697368583979e+00 -2.6344085143641777e-01 0.0000000000000000e+00  1.0641336854877359e+00 -2.5529931710240111e-01 0.0000000000000000e+00  1.0612269448017109e+00 -2.4716067554160909e-01 0.0000000000000000e+00  1.0583545242914478e+00 -2.3901380507603456e-01 0.0000000000000000e+00  1.0555217754267685e+00 -2.3084873669122227e-01 0.0000000000000000e+00  1.0527348760978759e+00 -2.2265128571673817e-01 0.0000000000000000e+00  1.0500004248647712e+00 -2.1440844935915754e-01 0.0000000000000000e+00  1.0473255925495262e+00 -2.0610362807503105e-01 0.0000000000000000e+00  1.0447179342956241e+00 -1.9772178192961254e-01 0.0000000000000000e+00  1.0421852245953569e+00 -1.8924524161463929e-01 0.0000000000000000e+00  1.0397354866249491e+00 -1.8065858023497008e-01 0.0000000000000000e+00  1.0373765465384091e+00 -1.7194495668133561e-01 0.0000000000000000e+00  1.0351162927239781e+00 -1.6309061117830995e-01 0.0000000000000000e+00  1.0329619992685486e+00 -1.5408164142519329e-01 0.0000000000000000e+00  1.0309208320185008e+00 -1.4490800824565417e-01 0.0000000000000000e+00  1.0289989934411592e+00 -1.3556063793582587e-01 0.0000000000000000e+00  1.0272024839984348e+00 -1.2603484123449410e-01 0.0000000000000000e+00  1.0255361107444187e+00 -1.1632766638561434e-01 0.0000000000000000e+00  1.0240044944682820e+00 -1.0644068243129762e-01 0.0000000000000000e+00  1.0226109679566286e+00 -9.6377559703510640e-02 0.0000000000000000e+00  1.0213587991558646e+00 -8.6146224082209705e-02 0.0000000000000000e+00  1.0202499900525128e+00 -7.5756690030608434e-02 0.0000000000000000e+00  1.0192866710191568e+00 -6.5222632852222573e-02 0.0000000000000000e+00  1.0184698032282644e+00 -5.4559526101418863e-02 0.0000000000000000e+00  1.0178006927063903e+00 -4.3785693121799391e-02 0.0000000000000000e+00  1.0172795990671384e+00 -3.2920802303352682e-02 0.0000000000000000e+00  1.0169073186563251e+00 -2.1986450584259482e-02 0.0000000000000000e+00  1.0166837077797537e+00 -1.1005054847263629e-02 0.0000000000000000e+00  1.0166092896076147e+00 -1.0712917434098254e-15 0.0000000000000000e+00  1.0166837077797537e+00 1.1005054847263647e-02 0.0000000000000000e+00  1.0169073186563251e+00 2.1986450584257317e-02 0.0000000000000000e+00  1.0172795990671384e+00 3.2920802303353272e-02 0.0000000000000000e+00  1.0178006927063898e+00 4.3785693121797531e-02 0.0000000000000000e+00  1.0184698032282642e+00 5.4559526101420092e-02 0.0000000000000000e+00  1.0192866710191566e+00 6.5222632852220214e-02 0.0000000000000000e+00  1.0202499900525130e+00 7.5756690030609294e-02 0.0000000000000000e+00  1.0213587991558644e+00 8.6146224082208150e-02 0.0000000000000000e+00  1.0226109679566286e+00 9.6377559703510973e-02 0.0000000000000000e+00  1.0240044944682820e+00 1.0644068243129549e-01 0.0000000000000000e+00  1.0255361107444192e+00 1.1632766638561540e-01 0.0000000000000000e+00  1.0272024839984353e+00 1.2603484123449310e-01 0.0000000000000000e+00  1.0289989934411599e+00 1.3556063793582665e-01 0.0000000000000000e+00  1.0309208320185010e+00 1.4490800824565350e-01 0.0000000000000000e+00  1.0329619992685493e+00 1.5408164142519321e-01 0.0000000000000000e+00  1.0351162927239783e+00 1.6309061117830903e-01 0.0000000000000000e+00  1.0373765465384093e+00 1.7194495668133525e-01 0.0000000000000000e+00  1.0397354866249489e+00 1.8065858023496892e-01 0.0000000000000000e+00  1.0421852245953569e+00 1.8924524161463965e-01 0.0000000000000000e+00  1.0447179342956239e+00 1.9772178192961271e-01 0.0000000000000000e+00  1.0473255925495264e+00 2.0610362807503199e-01 0.0000000000000000e+00  1.0500004248647707e+00 2.1440844935915712e-01 0.0000000000000000e+00  1.0527348760978763e+00 2.2265128571673812e-01 0.0000000000000000e+00  1.0555217754267683e+00 2.3084873669122274e-01 0.0000000000000000e+00  1.0583545242914483e+00 2.3901380507603523e-01 0.0000000000000000e+00  1.0612269448017106e+00 2.4716067554160978e-01 0.0000000000000000e+00  1.0641336854877361e+00 2.5529931710240134e-01 0.0000000000000000e+00  1.0670697368583975e+00 2.6344085143641727e-01 0.0000000000000000e+00  1.0700310699343627e+00 2.7159190729868921e-01 0.0000000000000000e+00  1.0730138198311669e+00 2.7976053070749451e-01 0.0000000000000000e+00  1.0760151809551404e+00 2.8795025266284485e-01 0.0000000000000000e+00  1.0790322693397694e+00 2.9616646924915319e-01 0.0000000000000000e+00  1.0820632991895569e+00 3.0441017773917822e-01 0.0000000000000000e+00  1.0851061369231600e+00 3.1268475427334358e-01 0.0000000000000000e+00  1.0881597780465040e+00 3.2098932684603909e-01 0.0000000000000000e+00  1.0912226032934216e+00 3.2932589208042584e-01 0.0000000000000000e+00  1.0942941661018879e+00 3.3769231545050926e-01 0.0000000000000000e+00  1.0973731573854861e+00 3.4608974570342033e-01 0.0000000000000000e+00  1.1004595052985169e+00 3.5451525325475147e-01 0.0000000000000000e+00  1.1035520524063878e+00 3.6296951358707419e-01 0.0000000000000000e+00  1.1066509626006928e+00 3.7144910900836231e-01 0.0000000000000000e+00  1.1097551135862482e+00 3.7995445820503793e-01 0.0000000000000000e+00  1.1128648009644115e+00 3.8848181360826955e-01 0.0000000000000000e+00  1.1159788496760059e+00 3.9703141377975820e-01 0.0000000000000000e+00  1.1190976017725087e+00 4.0559920977419800e-01 0.0000000000000000e+00  1.1222197518394850e+00 4.1418521184307217e-01 0.0000000000000000e+00  1.1253456018507892e+00 4.2278497484002187e-01 0.0000000000000000e+00  1.1284736265567208e+00 4.3139810185406474e-01 0.0000000000000000e+00  1.1316039749703608e+00 4.4001951103840509e-01 0.0000000000000000e+00  1.1347347709854472e+00 4.4864804542782616e-01 0.0000000000000000e+00  1.1378658350785165e+00 4.5727752941730127e-01 0.0000000000000000e+00  1.1409947212317753e+00 4.6590541243083522e-01 0.0000000000000000e+00  1.1441206220589293e+00 4.7452359673860733e-01 0.0000000000000000e+00  1.1472401322835204e+00 4.8312700420792953e-01 0.0000000000000000e+00  1.1503512813988555e+00 4.9170410591551722e-01 0.0000000000000000e+00  1.1534489904713112e+00 5.0024522871851429e-01 0.0000000000000000e+00  1.1565291403752092e+00 5.0873261744769827e-01 0.0000000000000000e+00  1.1595836412522986e+00 5.1714815911855039e-01 0.0000000000000000e+00  1.1626043761658689e+00 5.2546261694358043e-01 0.0000000000000000e+00  1.1655777111450192e+00 5.3364218731039248e-01 0.0000000000000000e+00  1.1684880281855685e+00 5.4163618777080347e-01 0.0000000000000000e+00  1.1713113370578134e+00 5.4938138426466587e-01 0.0000000000000000e+00  1.1740178923942324e+00 5.5678678741505527e-01 0.0000000000000000e+00  1.1765642922231940e+00 5.6373388891272747e-01 0.0000000000000000e+00  1.1788943431667227e+00 5.7005625185134479e-01 0.0000000000000000e+00  1.1809286748368613e+00 5.7553272449394011e-01 0.0000000000000000e+00  1.1825627200361104e+00 5.7985854535357884e-01 0.0000000000000000e+00  1.1836528303051317e+00 5.8262824873259944e-01 0.0000000000000000e+00  1.1840108542046797e+00 5.8329633367707445e-01 0.0000000000000000e+00  1.1833877863547271e+00 5.8115167141727686e-01 0.0000000000000000e+00  1.1814692547290859e+00 5.7527838131682452e-01 0.0000000000000000e+00  1.1778674188953528e+00 5.6454961569463491e-01 0.0000000000000000e+00  1.1721387901887765e+00 5.4764679150339157e-01 0.0000000000000000e+00  1.1638211846041215e+00 5.2317607787815357e-01 0.0000000000000000e+00  1.1525265683961654e+00 4.8990131585741625e-01 0.0000000000000000e+00  1.1380785025193112e+00 4.4716150590210896e-01 0.0000000000000000e+00  1.1206968503496586e+00 3.9540875216867416e-01 0.0000000000000000e+00  1.1011399829530926e+00 3.3670935095253129e-01 0.0000000000000000e+00  1.0807070904338514e+00 2.7482143567424361e-01 0.0000000000000000e+00  1.0609872170057413e+00 2.1454532799435089e-01 0.0000000000000000e+00  1.0434308995173800e+00 1.6041465855158799e-01 0.0000000000000000e+00  1.0289503584751316e+00 1.1542440342820801e-01 0.0000000000000000e+00  1.0177876835090032e+00 8.0502959049988693e-02 0.0000000000000000e+00  1.0096490316761060e+00 5.4882150212967037e-02 0.0000000000000000e+00  1.0039701244214527e+00 3.6883921669508553e-02 0.0000000000000000e+00  1.0001354664314854e+00 2.4636079288143729e-02 0.0000000000000000e+00  9.9760975413570385e-01 1.6479994406153227e-02 0.0000000000000000e+00  9.9597555893308332e-01 1.1122097284228886e-02 0.0000000000000000e+00  9.9493383399335278e-01 7.6235303973712703e-03 0.0000000000000000e+00  9.9427654328345494e-01 5.3376443601393046e-03 0.0000000000000000e+00  9.9386675529708990e-01 3.8303672854712902e-03 0.0000000000000000e+00  9.9361291292905152e-01 2.8187830458292549e-03 0.0000000000000000e+00  9.9345798496618498e-01 2.1192107949658014e-03 0.0000000000000000e+00  9.9336368384531570e-01 1.6154980007123626e-03 0.0000000000000000e+00  9.9330776398830189e-01 1.2331950283231876e-03 0.0000000000000000e+00  9.9327439034487108e-01 9.2619836735798728e-04 0.0000000000000000e+00  9.9325565195766619e-01 6.6485269582317106e-04 0.0000000000000000e+00  9.9324486290300074e-01 4.3089163578391253e-04 0.0000000000000000e+00  9.9323996072680787e-01 2.1203819144924362e-04 0.0000000000000000e+00  9.9323811309269960e-01 0.0000000000000000e+00 0.0000000000000000e+00  </DataArray> 
</PointData> 
</Piece>
</UnstructuredGrid>
</VTKFile>