<?xml version="1.0"?>
<VTKFile type="UnstructuredGrid"  version="0.1"  >
<UnstructuredGrid>
<Piece  NumberOfPoints="201" NumberOfCells="200">
<Points>
<DataArray  type="Float64"  NumberOfComponents="3"  format="ascii">-5 0 0  -4.95 0 0  -4.9 0 0  -4.85 0 0  -4.8 0 0  -4.75 0 0  -4.7 0 0  -4.65 0 0  -4.6 0 0  -4.55 0 0  -4.5 0 0  -4.45 0 0  -4.4 0 0  -4.35 0 0  -4.3 0 0  -4.25 0 0  -4.2 0 0  -4.15 0 0  -4.1 0 0  -4.05 0 0  -4 0 0  -3.95 0 0  -3.9 0 0  -3.85 0 0  -3.8 0 0  -3.75 0 0  -3.7 0 0  -3.65 0 0  -3.6 0 0  -3.55 0 0  -3.5 0 0  -3.45 0 0  -3.4 0 0  -3.35 0 0  -3.3 0 0  -3.25 0 0  -3.2 0 0  -3.15 0 0  -3.1 0 0  -3.05 0 0  -3 0 0  -2.95 0 0  -2.9 0 0  -2.85 0 0  -2.8 0 0  -2.75 0 0  -2.7 0 0  -2.65 0 0  -2.6 0 0  -2.55 0 0  -2.5 0 0  -2.45 0 0  -2.4 0 0  -2.35 0 0  -2.3 0 0  -2.25 0 0  -2.2 0 0  -2.15 0 0  -2.1 0 0  -2.05 0 0  -2 0 0  -1.95 0 0  -1.9 0 0  -1.85 0 0  -1.8 0 0  -1.75 0 0  -1.7 0 0  -1.65 0 0  -1.6 0 0  -1.55 0 0  -1.5 0 0  -1.45 0 0  -1.4 0 0  -1.35 0 0  -1.3 0 0  -1.25 0 0  -1.2 0 0  -1.15 0 0  -1.1 0 0  -1.05 0 0  -1 0 0  -0.9500000000000002 0 0  -0.9000000000000004 0 0  -0.8499999999999996 0 0  -0.7999999999999998 0 0  -0.75 0 0  -0.7000000000000002 0 0  -0.6500000000000004 0 0  -0.5999999999999996 0 0  -0.5499999999999998 0 0  -0.5 0 0  -0.4500000000000002 0 0  -0.4000000000000004 0 0  -0.3499999999999996 0 0  -0.2999999999999998 0 0  -0.25 0 0  -0.2000000000000002 0 0  -0.1500000000000004 0 0  -0.09999999999999964 0 0  -0.04999999999999982 0 0  0 0 0  0.04999999999999982 0 0  0.09999999999999964 0 0  0.1500000000000004 0 0  0.2000000000000002 0 0  0.25 0 0  0.2999999999999998 0 0  0.3499999999999996 0 0  0.4000000000000004 0 0  0.4500000000000002 0 0  0.5 0 0  0.5499999999999998 0 0  0.5999999999999996 0 0  0.6500000000000004 0 0  0.7000000000000002 0 0  0.75 0 0  0.7999999999999998 0 0  0.8499999999999996 0 0  0.9000000000000004 0 0  0.9500000000000002 0 0  1 0 0  1.05 0 0  1.1 0 0  1.15 0 0  1.2 0 0  1.25 0 0  1.3 0 0  1.35 0 0  1.4 0 0  1.45 0 0  1.5 0 0  1.55 0 0  1.6 0 0  1.65 0 0  1.7 0 0  1.75 0 0  1.8 0 0  1.85 0 0  1.9 0 0  1.95 0 0  2 0 0  2.05 0 0  2.1 0 0  2.15 0 0  2.2 0 0  2.25 0 0  2.3 0 0  2.35 0 0  2.4 0 0  2.45 0 0  2.5 0 0  2.55 0 0  2.6 0 0  2.65 0 0  2.7 0 0  2.75 0 0  2.8 0 0  2.85 0 0  2.9 0 0  2.95 0 0  3 0 0  3.050000000000001 0 0  3.1 0 0  3.15 0 0  3.199999999999999 0 0  3.25 0 0  3.300000000000001 0 0  3.35 0 0  3.4 0 0  3.449999999999999 0 0  3.5 0 0  3.550000000000001 0 0  3.6 0 0  3.65 0 0  3.699999999999999 0 0  3.75 0 0  3.800000000000001 0 0  3.85 0 0  3.9 0 0  3.949999999999999 0 0  4 0 0  4.050000000000001 0 0  4.1 0 0  4.15 0 0  4.199999999999999 0 0  4.25 0 0  4.300000000000001 0 0  4.35 0 0  4.4 0 0  4.449999999999999 0 0  4.5 0 0  4.550000000000001 0 0  4.6 0 0  4.65 0 0  4.699999999999999 0 0  4.75 0 0  4.800000000000001 0 0  4.85 0 0  4.9 0 0  4.949999999999999 0 0  5 0 0  </DataArray>
</Points>
<Cells>
<DataArray  type="UInt32"  Name="connectivity"  format="ascii">0 1  1 2  2 3  3 4  4 5  5 6  6 7  7 8  8 9  9 10  10 11  11 12  12 13  13 14  14 15  15 16  16 17  17 18  18 19  19 20  20 21  21 22  22 23  23 24  24 25  25 26  26 27  27 28  28 29  29 30  30 31  31 32  32 33  33 34  34 35  35 36  36 37  37 38  38 39  39 40  40 41  41 42  42 43  43 44  44 45  45 46  46 47  47 48  48 49  49 50  50 51  51 52  52 53  53 54  54 55  55 56  56 57  57 58  58 59  59 60  60 61  61 62  62 63  63 64  64 65  65 66  66 67  67 68  68 69  69 70  70 71  71 72  72 73  73 74  74 75  75 76  76 77  77 78  78 79  79 80  80 81  81 82  82 83  83 84  84 85  85 86  86 87  87 88  88 89  89 90  90 91  91 92  92 93  93 94  94 95  95 96  96 97  97 98  98 99  99 100  100 101  101 102  102 103  103 104  104 105  105 106  106 107  107 108  108 109  109 110  110 111  111 112  112 113  113 114  114 115  115 116  116 117  117 118  118 119  119 120  120 121  121 122  122 123  123 124  124 125  125 126  126 127  127 128  128 129  129 130  130 131  131 132  132 133  133 134  134 135  135 136  136 137  137 138  138 139  139 140  140 141  141 142  142 143  143 144  144 145  145 146  146 147  147 148  148 149  149 150  150 151  151 152  152 153  153 154  154 155  155 156  156 157  157 158  158 159  159 160  160 161  161 162  162 163  163 164  164 165  165 166  166 167  167 168  168 169  169 170  170 171  171 172  172 173  173 174  174 175  175 176  176 177  177 178  178 179  179 180  180 181  181 182  182 183  183 184  184 185  185 186  186 187  187 188  188 189  189 190  190 191  191 192  192 193  193 194  194 195  195 196  196 197  197 198  198 199  199 200  </DataArray>
<DataArray  type="UInt32"  Name="offsets"  format="ascii">2 4 6 8 10 12 14 16 18 20 22 24 26 28 30 32 34 36 38 40 42 44 46 48 50 52 54 56 58 60 62 64 66 68 70 72 74 76 78 80 82 84 86 88 90 92 94 96 98 100 102 104 106 108 110 112 114 116 118 120 122 124 126 128 130 132 134 136 138 140 142 144 146 148 150 152 154 156 158 160 162 164 166 168 170 172 174 176 178 180 182 184 186 188 190 192 194 196 198 200 202 204 206 208 210 212 214 216 218 220 222 224 226 228 230 232 234 236 238 240 242 244 246 248 250 252 254 256 258 260 262 264 266 268 270 272 274 276 278 280 282 284 286 288 290 292 294 296 298 300 302 304 306 308 310 312 314 316 318 320 322 324 326 328 330 332 334 336 338 340 342 344 346 348 350 352 354 356 358 360 362 364 366 368 370 372 374 376 378 380 382 384 386 388 390 392 394 396 398 400 </DataArray>
<DataArray  type="UInt8"  Name="types"  format="ascii">3 3 3 3 3 3 3 3 3 3 3 3 3 3 3 3 3 3 3 3 3 3 3 3 3 3 3 3 3 3 3 3 3 3 3 3 3 3 3 3 3 3 3 3 3 3 3 3 3 3 3 3 3 3 3 3 3 3 3 3 3 3 3 3 3 3 3 3 3 3 3 3 3 3 3 3 3 3 3 3 3 3 3 3 3 3 3 3 3 3 3 3 3 3 3 3 3 3 3 3 3 3 3 3 3 3 3 3 3 3 3 3 3 3 3 3 3 3 3 3 3 3 3 3 3 3 3 3 3 3 3 3 3 3 3 3 3 3 3 3 3 3 3 3 3 3 3 3 3 3 3 3 3 3 3 3 3 3 3 3 3 3 3 3 3 3 3 3 3 3 3 3 3 3 3 3 3 3 3 3 3 3 3 3 3 3 3 3 3 3 3 3 3 3 3 3 3 3 3 3 </DataArray>
</Cells>
<PointData  Vectors="(h, u)"> 
<DataArray  type="Float64"  Name="(h, u)"  NumberOfComponents="3" format="ascii">9.8376494830357175e-01 0.0000000000000000e+00 0.0000000000000000e+00  9.8376101336129640e-01 -9.3001650112975584e-04 0.0000000000000000e+00  9.8374838309512413e-01 -1.8590237040382650e-03 0.0000000000000000e+00  9.8372849776364446e-01 -2.7854851526541925e-03 0.0000000000000000e+00  9.8370121483413075e-01 -3.7074431153290639e-03 0.0000000000000000e+00  9.8366878406633207e-01 -4.6212879455677855e-03 0.0000000000000000e+00  9.8363207021991617e-01 -5.5224429094055567e-03 0.0000000000000000e+00  9.8359456842582560e-01 -6.4033922155010128e-03 0.0000000000000000e+00  9.8355868727617490e-01 -7.2549551403927577e-03 0.0000000000000000e+00  9.8352976777629120e-01 -8.0636130815617737e-03 0.0000000000000000e+00  9.8351239089227127e-01 -8.8134860248311343e-03 0.0000000000000000e+00  9.8351433681050282e-01 -9.4831021038283957e-03 0.0000000000000000e+00  9.8354285338549763e-01 -1.0048293932745268e-02 0.0000000000000000e+00  9.8360847330611445e-01 -1.0478628515087263e-02 0.0000000000000000e+00  9.8372117114890822e-01 -1.0741478182290534e-02 0.0000000000000000e+00  9.8389396823011865e-01 -1.0798298882007363e-02 0.0000000000000000e+00  9.8413893795513185e-01 -1.0610032421641409e-02 0.0000000000000000e+00  9.8447058501104878e-01 -1.0133245586482272e-02 0.0000000000000000e+00  9.8490173105446044e-01 -9.3267892044610525e-03 0.0000000000000000e+00  9.8544673832222196e-01 -8.1475474475009805e-03 0.0000000000000000e+00  9.8611738508121305e-01 -6.5580283577863930e-03 0.0000000000000000e+00  9.8692606582660969e-01 -4.5212759191164895e-03 0.0000000000000000e+00  9.8788179748634630e-01 -2.0089603846311513e-03 0.0000000000000000e+00  9.8899352653078076e-01 1.0049860617803972e-03 0.0000000000000000e+00  9.9026636885577535e-01 4.5360936720973723e-03 0.0000000000000000e+00  9.9170508928334700e-01 8.5972224324901026e-03 0.0000000000000000e+00  9.9331059587759474e-01 1.3190155503021521e-02 0.0000000000000000e+00  9.9508357320544893e-01 1.8314918983833785e-02 0.0000000000000000e+00  9.9702117689702108e-01 2.3961061526414449e-02 0.0000000000000000e+00  9.9912074629613523e-01 3.0118189278492268e-02 0.0000000000000000e+00  1.0013766121904228e+00 3.6766648182433345e-02 0.0000000000000000e+00  1.0037838046178624e+00 4.3888998088679208e-02 0.0000000000000000e+00  1.0063348960522729e+00 5.1459851802319392e-02 0.0000000000000000e+00  1.0090236429161266e+00 5.9458079316265518e-02 0.0000000000000000e+00  1.0118418170154111e+00 6.7855664802492263e-02 0.0000000000000000e+00  1.0147827515286052e+00 7.6630529106201134e-02 0.0000000000000000e+00  1.0178381441533866e+00 8.5754373931600486e-02 0.0000000000000000e+00  1.0210015039214162e+00 9.5206085791363596e-02 0.0000000000000000e+00  1.0242649299819664e+00 1.0495861151020072e-01 0.0000000000000000e+00  1.0276224695377061e+00 1.1499294362655899e-01 0.0000000000000000e+00  1.0310668855954979e+00 1.2528411007919726e-01 0.0000000000000000e+00  1.0345929406249705e+00 1.3581574641730110e-01 0.0000000000000000e+00  1.0381941684286098e+00 1.4656529636429175e-01 0.0000000000000000e+00  1.0418660968366451e+00 1.5751916361690538e-01 0.0000000000000000e+00  1.0456030369365095e+00 1.6865722131609728e-01 0.0000000000000000e+00  1.0494012545977702e+00 1.7996851694579616e-01 0.0000000000000000e+00  1.0532557872908619e+00 1.9143518599510589e-01 0.0000000000000000e+00  1.0571635704655402e+00 2.0304866418150036e-01 0.0000000000000000e+00  1.0611202894119591e+00 2.1479309788813522e-01 0.0000000000000000e+00  1.0651234633564437e+00 2.2666200162251926e-01 0.0000000000000000e+00  1.0691693377301377e+00 2.3864125642578510e-01 0.0000000000000000e+00  1.0732559265025996e+00 2.5072613796512444e-01 0.0000000000000000e+00  1.0773799488330547e+00 2.6290399387115204e-01 0.0000000000000000e+00  1.0815398285446409e+00 2.7517155899155099e-01 0.0000000000000000e+00  1.0857326782796559e+00 2.8751740283714899e-01 0.0000000000000000e+00  1.0899572539414348e+00 2.9993944280566387e-01 0.0000000000000000e+00  1.0942109889645875e+00 3.1242725287408024e-01 0.0000000000000000e+00  1.0984929008300575e+00 3.2497968249521592e-01 0.0000000000000000e+00  1.1028006777167940e+00 3.3758711674923192e-01 0.0000000000000000e+00  1.1071335336599857e+00 3.5024910759562700e-01 0.0000000000000000e+00  1.1114893495089941e+00 3.6295667340462578e-01 0.0000000000000000e+00  1.1158674727846378e+00 3.7570984974769683e-01 0.0000000000000000e+00  1.1202659143494116e+00 3.8850011212971153e-01 0.0000000000000000e+00  1.1246840883237355e+00 4.0132775478473953e-01 0.0000000000000000e+00  1.1291200649190638e+00 4.1418451395378247e-01 0.0000000000000000e+00  1.1335732445722759e+00 4.2707068407468712e-01 0.0000000000000000e+00  1.1380416655488494e+00 4.3997800908482160e-01 0.0000000000000000e+00  1.1425246041551831e+00 4.5290644397632646e-01 0.0000000000000000e+00  1.1470199321324208e+00 4.6584736629462037e-01 0.0000000000000000e+00  1.1515266302509604e+00 4.7879988364706988e-01 0.0000000000000000e+00  1.1560421835126418e+00 4.9175439255756415e-01 0.0000000000000000e+00  1.1605649863151108e+00 5.0470831226980717e-01 0.0000000000000000e+00  1.1650917497351994e+00 5.1764997458819328e-01 0.0000000000000000e+00  1.1696197581292584e+00 5.3057361769127254e-01 0.0000000000000000e+00  1.1741442355916618e+00 5.4346351029715789e-01 0.0000000000000000e+00  1.1786603768953643e+00 5.5630793907794973e-01 0.0000000000000000e+00  1.1831605660430713e+00 5.6908331564332471e-01 0.0000000000000000e+00  1.1876360296822221e+00 5.8176668235211926e-01 0.0000000000000000e+00  1.1920736922005535e+00 5.9431924341604780e-01 0.0000000000000000e+00  1.1964571490857634e+00 6.0669648499039841e-01 0.0000000000000000e+00  1.2007627275600870e+00 6.1882995678997477e-01 0.0000000000000000e+00  1.2049591805150310e+00 6.3063323887937228e-01 0.0000000000000000e+00  1.2090021095598953e+00 6.4197959413038386e-01 0.0000000000000000e+00  1.2128312341683254e+00 6.5270036260911990e-01 0.0000000000000000e+00  1.2163616311064946e+00 6.6255392262807311e-01 0.0000000000000000e+00  1.2194766171948159e+00 6.7121036101690335e-01 0.0000000000000000e+00  1.2220134654048824e+00 6.7820415040064552e-01 0.0000000000000000e+00  1.2237495994263383e+00 6.8289642856283417e-01 0.0000000000000000e+00  1.2243815038393813e+00 6.8440397345433357e-01 0.0000000000000000e+00  1.2235064146059436e+00 6.8153799747917776e-01 0.0000000000000000e+00  1.2206048040338764e+00 6.7272645415367238e-01 0.0000000000000000e+00  1.2150448576365427e+00 6.5598604936722815e-01 0.0000000000000000e+00  1.2061254785989299e+00 6.2896983042102539e-01 0.0000000000000000e+00  1.1932033664409609e+00 5.8922077622561309e-01 0.0000000000000000e+00  1.1759356783088730e+00 5.3471849143397643e-01 0.0000000000000000e+00  1.1546505282565673e+00 4.6478304826092592e-01 0.0000000000000000e+00  1.1307321430549095e+00 3.8105471482788406e-01 0.0000000000000000e+00  1.1067688485366876e+00 2.8782749625080911e-01 0.0000000000000000e+00  1.0861629695835826e+00 1.9081544231671516e-01 0.0000000000000000e+00  1.0722402936962294e+00 9.4503863670400243e-02 0.0000000000000000e+00  1.0673266741146115e+00 1.2728055517484975e-15 0.0000000000000000e+00  1.0722402936962290e+00 -9.4503863670397620e-02 0.0000000000000000e+00  1.0861629695835822e+00 -1.9081544231671244e-01 0.0000000000000000e+00  1.1067688485366869e+00 -2.8782749625080595e-01 0.0000000000000000e+00  1.1307321430549087e+00 -3.8105471482788189e-01 0.0000000000000000e+00  1.1546505282565662e+00 -4.6478304826092404e-01 0.0000000000000000e+00  1.1759356783088726e+00 -5.3471849143397676e-01 0.0000000000000000e+00  1.1932033664409603e+00 -5.8922077622561198e-01 0.0000000000000000e+00  1.2061254785989297e+00 -6.2896983042102594e-01 0.0000000000000000e+00  1.2150448576365425e+00 -6.5598604936722782e-01 0.0000000000000000e+00  1.2206048040338766e+00 -6.7272645415367327e-01 0.0000000000000000e+00  1.2235064146059438e+00 -6.8153799747917887e-01 0.0000000000000000e+00  1.2243815038393817e+00 -6.8440397345433579e-01 0.0000000000000000e+00  1.2237495994263388e+00 -6.8289642856283395e-01 0.0000000000000000e+00  1.2220134654048824e+00 -6.7820415040064908e-01 0.0000000000000000e+00  1.2194766171948161e+00 -6.7121036101690279e-01 0.0000000000000000e+00  1.2163616311064946e+00 -6.6255392262807578e-01 0.0000000000000000e+00  1.2128312341683258e+00 -6.5270036260911890e-01 0.0000000000000000e+00  1.2090021095598948e+00 -6.4197959413038597e-01 0.0000000000000000e+00  1.2049591805150308e+00 -6.3063323887937273e-01 0.0000000000000000e+00  1.2007627275600867e+00 -6.1882995678997665e-01 0.0000000000000000e+00  1.1964571490857636e+00 -6.0669648499039786e-01 0.0000000000000000e+00  1.1920736922005537e+00 -5.9431924341604969e-01 0.0000000000000000e+00  1.1876360296822226e+00 -5.8176668235211837e-01 0.0000000000000000e+00  1.1831605660430717e+00 -5.6908331564332537e-01 0.0000000000000000e+00  1.1786603768953647e+00 -5.5630793907794884e-01 0.0000000000000000e+00  1.1741442355916623e+00 -5.4346351029715723e-01 0.0000000000000000e+00  1.1696197581292587e+00 -5.3057361769127187e-01 0.0000000000000000e+00  1.1650917497351998e+00 -5.1764997458819240e-01 0.0000000000000000e+00  1.1605649863151111e+00 -5.0470831226980639e-01 0.0000000000000000e+00  1.1560421835126422e+00 -4.9175439255756354e-01 0.0000000000000000e+00  1.1515266302509604e+00 -4.7879988364706944e-01 0.0000000000000000e+00  1.1470199321324213e+00 -4.6584736629462048e-01 0.0000000000000000e+00  1.1425246041551833e+00 -4.5290644397632673e-01 0.0000000000000000e+00  1.1380416655488499e+00 -4.3997800908482126e-01 0.0000000000000000e+00  1.1335732445722759e+00 -4.2707068407468779e-01 0.0000000000000000e+00  1.1291200649190642e+00 -4.1418451395378242e-01 0.0000000000000000e+00  1.1246840883237355e+00 -4.0132775478474036e-01 0.0000000000000000e+00  1.1202659143494118e+00 -3.8850011212971131e-01 0.0000000000000000e+00  1.1158674727846378e+00 -3.7570984974769778e-01 0.0000000000000000e+00  1.1114893495089948e+00 -3.6295667340462656e-01 0.0000000000000000e+00  1.1071335336599861e+00 -3.5024910759562761e-01 0.0000000000000000e+00  1.1028006777167949e+00 -3.3758711674923159e-01 0.0000000000000000e+00  1.0984929008300579e+00 -3.2497968249521575e-01 0.0000000000000000e+00  1.0942109889645881e+00 -3.1242725287407952e-01 0.0000000000000000e+00  1.0899572539414353e+00 -2.9993944280566426e-01 0.0000000000000000e+00  1.0857326782796566e+00 -2.8751740283714877e-01 0.0000000000000000e+00  1.0815398285446414e+00 -2.7517155899155210e-01 0.0000000000000000e+00  1.0773799488330553e+00 -2.6290399387115004e-01 0.0000000000000000e+00  1.0732559265026003e+00 -2.5072613796512588e-01 0.0000000000000000e+00  1.0691693377301383e+00 -2.3864125642578449e-01 0.0000000000000000e+00  1.0651234633564444e+00 -2.2666200162251993e-01 0.0000000000000000e+00  1.0611202894119598e+00 -2.1479309788813492e-01 0.0000000000000000e+00  1.0571635704655404e+00 -2.0304866418150094e-01 0.0000000000000000e+00  1.0532557872908621e+00 -1.9143518599510545e-01 0.0000000000000000e+00  1.0494012545977704e+00 -1.7996851694579696e-01 0.0000000000000000e+00  1.0456030369365095e+00 -1.6865722131609642e-01 0.0000000000000000e+00  1.0418660968366453e+00 -1.5751916361690627e-01 0.0000000000000000e+00  1.0381941684286096e+00 -1.4656529636429166e-01 0.0000000000000000e+00  1.0345929406249705e+00 -1.3581574641730260e-01 0.0000000000000000e+00  1.0310668855954976e+00 -1.2528411007919704e-01 0.0000000000000000e+00  1.0276224695377061e+00 -1.1499294362656066e-01 0.0000000000000000e+00  1.0242649299819657e+00 -1.0495861151020143e-01 0.0000000000000000e+00  1.0210015039214162e+00 -9.5206085791366649e-02 0.0000000000000000e+00  1.0178381441533861e+00 -8.5754373931600361e-02 0.0000000000000000e+00  1.0147827515286054e+00 -7.6630529106204548e-02 0.0000000000000000e+00  1.0118418170154109e+00 -6.7855664802491972e-02 0.0000000000000000e+00  1.0090236429161268e+00 -5.9458079316268501e-02 0.0000000000000000e+00  1.0063348960522729e+00 -5.1459851802319566e-02 0.0000000000000000e+00  1.0037838046178631e+00 -4.3888998088682740e-02 0.0000000000000000e+00  1.0013766121904228e+00 -3.6766648182432658e-02 0.0000000000000000e+00  9.9912074629613579e-01 -3.0118189278495133e-02 0.0000000000000000e+00  9.9702117689702097e-01 -2.3961061526414817e-02 0.0000000000000000e+00  9.9508357320544938e-01 -1.8314918983837174e-02 0.0000000000000000e+00  9.9331059587759463e-01 -1.3190155503021311e-02 0.0000000000000000e+00  9.9170508928334744e-01 -8.5972224324921964e-03 0.0000000000000000e+00  9.9026636885577535e-01 -4.5360936720956948e-03 0.0000000000000000e+00  9.8899352653078121e-01 -1.0049860617815239e-03 0.0000000000000000e+00  9.8788179748634630e-01 2.0089603846325261e-03 0.0000000000000000e+00  9.8692606582660991e-01 4.5212759191151797e-03 0.0000000000000000e+00  9.8611738508121327e-01 6.5580283577871623e-03 0.0000000000000000e+00  9.8544673832222185e-01 8.1475474474995493e-03 0.0000000000000000e+00  9.8490173105446033e-01 9.3267892044610386e-03 0.0000000000000000e+00  9.8447058501104845e-01 1.0133245586480677e-02 0.0000000000000000e+00  9.8413893795513163e-01 1.0610032421641293e-02 0.0000000000000000e+00  9.8389396823011810e-01 1.0798298882006197e-02 0.0000000000000000e+00  9.8372117114890822e-01 1.0741478182291077e-02 0.0000000000000000e+00  9.8360847330611401e-01 1.0478628515086984e-02 0.0000000000000000e+00  9.8354285338549752e-01 1.0048293932745634e-02 0.0000000000000000e+00  9.8351433681050227e-01 9.4831021038284686e-03 0.0000000000000000e+00  9.8351239089227127e-01 8.8134860248320710e-03 0.0000000000000000e+00  9.8352976777629075e-01 8.0636130815621536e-03 0.0000000000000000e+00  9.8355868727617490e-01 7.2549551403935392e-03 0.0000000000000000e+00  9.8359456842582527e-01 6.4033922155006858e-03 0.0000000000000000e+00  9.8363207021991617e-01 5.5224429094058742e-03 0.0000000000000000e+00  9.8366878406633163e-01 4.6212879455667568e-03 0.0000000000000000e+00  9.8370121483413064e-01 3.7074431153290709e-03 0.0000000000000000e+00  9.8372849776364402e-01 2.7854851526538356e-03 0.0000000000000000e+00  9.8374838309512413e-01 1.8590237040382962e-03 0.0000000000000000e+00  9.8376101336129596e-01 9.3001650112962367e-04 0.0000000000000000e+00  9.8376494830357175e-01 0.0000000000000000e+00 0.0000000000000000e+00  </DataArray> 
</PointData> 
</Piece>
</UnstructuredGrid>
</VTKFile>