<?xml version="1.0"?>
<VTKFile type="UnstructuredGrid"  version="0.1"  >
<UnstructuredGrid>
<Piece  NumberOfPoints="201" NumberOfCells="200">
<Points>
<DataArray  type="Float64"  NumberOfComponents="3"  format="ascii">-5 0 0  -4.95 0 0  -4.9 0 0  -4.85 0 0  -4.8 0 0  -4.75 0 0  -4.7 0 0  -4.65 0 0  -4.6 0 0  -4.55 0 0  -4.5 0 0  -4.45 0 0  -4.4 0 0  -4.35 0 0  -4.3 0 0  -4.25 0 0  -4.2 0 0  -4.15 0 0  -4.1 0 0  -4.05 0 0  -4 0 0  -3.95 0 0  -3.9 0 0  -3.85 0 0  -3.8 0 0  -3.75 0 0  -3.7 0 0  -3.65 0 0  -3.6 0 0  -3.55 0 0  -3.5 0 0  -3.45 0 0  -3.4 0 0  -3.35 0 0  -3.3 0 0  -3.25 0 0  -3.2 0 0  -3.15 0 0  -3.1 0 0  -3.05 0 0  -3 0 0  -2.95 0 0  -2.9 0 0  -2.85 0 0  -2.8 0 0  -2.75 0 0  -2.7 0 0  -2.65 0 0  -2.6 0 0  -2.55 0 0  -2.5 0 0  -2.45 0 0  -2.4 0 0  -2.35 0 0  -2.3 0 0  -2.25 0 0  -2.2 0 0  -2.15 0 0  -2.1 0 0  -2.05 0 0  -2 0 0  -1.95 0 0  -1.9 0 0  -1.85 0 0  -1.8 0 0  -1.75 0 0  -1.7 0 0  -1.65 0 0  -1.6 0 0  -1.55 0 0  -1.5 0 0  -1.45 0 0  -1.4 0 0  -1.35 0 0  -1.3 0 0  -1.25 0 0  -1.2 0 0  -1.15 0 0  -1.1 0 0  -1.05 0 0  -1 0 0  -0.9500000000000002 0 0  -0.9000000000000004 0 0  -0.8499999999999996 0 0  -0.7999999999999998 0 0  -0.75 0 0  -0.7000000000000002 0 0  -0.6500000000000004 0 0  -0.5999999999999996 0 0  -0.5499999999999998 0 0  -0.5 0 0  -0.4500000000000002 0 0  -0.4000000000000004 0 0  -0.3499999999999996 0 0  -0.2999999999999998 0 0  -0.25 0 0  -0.2000000000000002 0 0  -0.1500000000000004 0 0  -0.09999999999999964 0 0  -0.04999999999999982 0 0  0 0 0  0.04999999999999982 0 0  0.09999999999999964 0 0  0.1500000000000004 0 0  0.2000000000000002 0 0  0.25 0 0  0.2999999999999998 0 0  0.3499999999999996 0 0  0.4000000000000004 0 0  0.4500000000000002 0 0  0.5 0 0  0.5499999999999998 0 0  0.5999999999999996 0 0  0.6500000000000004 0 0  0.7000000000000002 0 0  0.75 0 0  0.7999999999999998 0 0  0.8499999999999996 0 0  0.9000000000000004 0 0  0.9500000000000002 0 0  1 0 0  1.05 0 0  1.1 0 0  1.15 0 0  1.2 0 0  1.25 0 0  1.3 0 0  1.35 0 0  1.4 0 0  1.45 0 0  1.5 0 0  1.55 0 0  1.6 0 0  1.65 0 0  1.7 0 0  1.75 0 0  1.8 0 0  1.85 0 0  1.9 0 0  1.95 0 0  2 0 0  2.05 0 0  2.1 0 0  2.15 0 0  2.2 0 0  2.25 0 0  2.3 0 0  2.35 0 0  2.4 0 0  2.45 0 0  2.5 0 0  2.55 0 0  2.6 0 0  2.65 0 0  2.7 0 0  2.75 0 0  2.8 0 0  2.85 0 0  2.9 0 0  2.95 0 0  3 0 0  3.050000000000001 0 0  3.1 0 0  3.15 0 0  3.199999999999999 0 0  3.25 0 0  3.300000000000001 0 0  3.35 0 0  3.4 0 0  3.449999999999999 0 0  3.5 0 0  3.550000000000001 0 0  3.6 0 0  3.65 0 0  3.699999999999999 0 0  3.75 0 0  3.800000000000001 0 0  3.85 0 0  3.9 0 0  3.949999999999999 0 0  4 0 0  4.050000000000001 0 0  4.1 0 0  4.15 0 0  4.199999999999999 0 0  4.25 0 0  4.300000000000001 0 0  4.35 0 0  4.4 0 0  4.449999999999999 0 0  4.5 0 0  4.550000000000001 0 0  4.6 0 0  4.65 0 0  4.699999999999999 0 0  4.75 0 0  4.800000000000001 0 0  4.85 0 0  4.9 0 0  4.949999999999999 0 0  5 0 0  </DataArray>
</Points>
<Cells>
<DataArray  type="UInt32"  Name="connectivity"  format="ascii">0 1  1 2  2 3  3 4  4 5  5 6  6 7  7 8  8 9  9 10  10 11  11 12  12 13  13 14  14 15  15 16  16 17  17 18  18 19  19 20  20 21  21 22  22 23  23 24  24 25  25 26  26 27  27 28  28 29  29 30  30 31  31 32  32 33  33 34  34 35  35 36  36 37  37 38  38 39  39 40  40 41  41 42  42 43  43 44  44 45  45 46  46 47  47 48  48 49  49 50  50 51  51 52  52 53  53 54  54 55  55 56  56 57  57 58  58 59  59 60  60 61  61 62  62 63  63 64  64 65  65 66  66 67  67 68  68 69  69 70  70 71  71 72  72 73  73 74  74 75  75 76  76 77  77 78  78 79  79 80  80 81  81 82  82 83  83 84  84 85  85 86  86 87  87 88  88 89  89 90  90 91  91 92  92 93  93 94  94 95  95 96  96 97  97 98  98 99  99 100  100 101  101 102  102 103  103 104  104 105  105 106  106 107  107 108  108 109  109 110  110 111  111 112  112 113  113 114  114 115  115 116  116 117  117 118  118 119  119 120  120 121  121 122  122 123  123 124  124 125  125 126  126 127  127 128  128 129  129 130  130 131  131 132  132 133  133 134  134 135  135 136  136 137  137 138  138 139  139 140  140 141  141 142  142 143  143 144  144 145  145 146  146 147  147 148  148 149  149 150  150 151  151 152  152 153  153 154  154 155  155 156  156 157  157 158  158 159  159 160  160 161  161 162  162 163  163 164  164 165  165 166  166 167  167 168  168 169  169 170  170 171  171 172  172 173  173 174  174 175  175 176  176 177  177 178  178 179  179 180  180 181  181 182  182 183  183 184  184 185  185 186  186 187  187 188  188 189  189 190  190 191  191 192  192 193  193 194  194 195  195 196  196 197  197 198  198 199  199 200  </DataArray>
<DataArray  type="UInt32"  Name="offsets"  format="ascii">2 4 6 8 10 12 14 16 18 20 22 24 26 28 30 32 34 36 38 40 42 44 46 48 50 52 54 56 58 60 62 64 66 68 70 72 74 76 78 80 82 84 86 88 90 92 94 96 98 100 102 104 106 108 110 112 114 116 118 120 122 124 126 128 130 132 134 136 138 140 142 144 146 148 150 152 154 156 158 160 162 164 166 168 170 172 174 176 178 180 182 184 186 188 190 192 194 196 198 200 202 204 206 208 210 212 214 216 218 220 222 224 226 228 230 232 234 236 238 240 242 244 246 248 250 252 254 256 258 260 262 264 266 268 270 272 274 276 278 280 282 284 286 288 290 292 294 296 298 300 302 304 306 308 310 312 314 316 318 320 322 324 326 328 330 332 334 336 338 340 342 344 346 348 350 352 354 356 358 360 362 364 366 368 370 372 374 376 378 380 382 384 386 388 390 392 394 396 398 400 </DataArray>
<DataArray  type="UInt8"  Name="types"  format="ascii">3 3 3 3 3 3 3 3 3 3 3 3 3 3 3 3 3 3 3 3 3 3 3 3 3 3 3 3 3 3 3 3 3 3 3 3 3 3 3 3 3 3 3 3 3 3 3 3 3 3 3 3 3 3 3 3 3 3 3 3 3 3 3 3 3 3 3 3 3 3 3 3 3 3 3 3 3 3 3 3 3 3 3 3 3 3 3 3 3 3 3 3 3 3 3 3 3 3 3 3 3 3 3 3 3 3 3 3 3 3 3 3 3 3 3 3 3 3 3 3 3 3 3 3 3 3 3 3 3 3 3 3 3 3 3 3 3 3 3 3 3 3 3 3 3 3 3 3 3 3 3 3 3 3 3 3 3 3 3 3 3 3 3 3 3 3 3 3 3 3 3 3 3 3 3 3 3 3 3 3 3 3 3 3 3 3 3 3 3 3 3 3 3 3 3 3 3 3 3 3 </DataArray>
</Cells>
<PointData  Vectors="(h, u)"> 
<DataArray  type="Float64"  Name="(h, u)"  NumberOfComponents="3" format="ascii">9.8301425492524053e-01 0.0000000000000000e+00 0.0000000000000000e+00  9.8301106707968688e-01 -9.9130063715323043e-04 0.0000000000000000e+00  9.8300106380090313e-01 -1.9782961775216055e-03 0.0000000000000000e+00  9.8298603450342825e-01 -2.9558277068194678e-03 0.0000000000000000e+00  9.8296698039450459e-01 -3.9177918183570665e-03 0.0000000000000000e+00  9.8294729574493067e-01 -4.8555099063044681e-03 0.0000000000000000e+00  9.8292982934385931e-01 -5.7584073794659692e-03 0.0000000000000000e+00  9.8292008812448761e-01 -6.6116538603642376e-03 0.0000000000000000e+00  9.8292333172866597e-01 -7.3977103115039451e-03 0.0000000000000000e+00  9.8294771687658988e-01 -8.0933973465156066e-03 0.0000000000000000e+00  9.8300135100046560e-01 -8.6725138223426191e-03 0.0000000000000000e+00  9.8309527902258698e-01 -9.1025709149041758e-03 0.0000000000000000e+00  9.8324041924835781e-01 -9.3487150566054361e-03 0.0000000000000000e+00  9.8345031531457128e-01 -9.3703247882339011e-03 0.0000000000000000e+00  9.8373792056964604e-01 -9.1263480353244424e-03 0.0000000000000000e+00  9.8411810703532387e-01 -8.5717576791961656e-03 0.0000000000000000e+00  9.8460434749727366e-01 -7.6641537536621318e-03 0.0000000000000000e+00  9.8521106498870115e-01 -6.3597924854125517e-03 0.0000000000000000e+00  9.8595034151567229e-01 -4.6210475432951837e-03 0.0000000000000000e+00  9.8683425140819725e-01 -2.4115424916883797e-03 0.0000000000000000e+00  9.8787174787845711e-01 2.9601136471410445e-04 0.0000000000000000e+00  9.8907111032655326e-01 3.5260011967782304e-03 0.0000000000000000e+00  9.9043710691722808e-01 7.2920160988797899e-03 0.0000000000000000e+00  9.9197360974577420e-01 1.1604522534923943e-02 0.0000000000000000e+00  9.9368103904077787e-01 1.6462934054286286e-02 0.0000000000000000e+00  9.9555911317684664e-01 2.1864658599219287e-02 0.0000000000000000e+00  9.9760450424180402e-01 2.7796920099318716e-02 0.0000000000000000e+00  9.9981364036309084e-01 3.4246892382763919e-02 0.0000000000000000e+00  1.0021804748976375e+00 4.1192976192227122e-02 0.0000000000000000e+00  1.0046992582638501e+00 4.8615726078661242e-02 0.0000000000000000e+00  1.0073623380023584e+00 5.6488343061257537e-02 0.0000000000000000e+00  1.0101628476011359e+00 6.4788191811061366e-02 0.0000000000000000e+00  1.0130924874893630e+00 7.3486384317279912e-02 0.0000000000000000e+00  1.0161441142038876e+00 8.2559793506892951e-02 0.0000000000000000e+00  1.0193094820731790e+00 9.1979708232922425e-02 0.0000000000000000e+00  1.0225817424232504e+00 1.0172432714216441e-01 0.0000000000000000e+00  1.0259531436224376e+00 1.1176653149411959e-01 0.0000000000000000e+00  1.0294174635076012e+00 1.2208687889044498e-01 0.0000000000000000e+00  1.0329676722804209e+00 1.3266056992351941e-01 0.0000000000000000e+00  1.0365983250022799e+00 1.4347096564609185e-01 0.0000000000000000e+00  1.0403031917949943e+00 1.5449583051997121e-01 0.0000000000000000e+00  1.0440776354963808e+00 1.6572138491555816e-01 0.0000000000000000e+00  1.0479162107279316e+00 1.7712790318569430e-01 0.0000000000000000e+00  1.0518150479315493e+00 1.8870429411776432e-01 0.0000000000000000e+00  1.0557694196409499e+00 2.0043312720697351e-01 0.0000000000000000e+00  1.0597761479449304e+00 2.1230571595047737e-01 0.0000000000000000e+00  1.0638311338949018e+00 2.2430664110688656e-01 0.0000000000000000e+00  1.0679318016810004e+00 2.3642929651076955e-01 0.0000000000000000e+00  1.0720745858351333e+00 2.4865997612002319e-01 0.0000000000000000e+00  1.0762574221941692e+00 2.6099383015666738e-01 0.0000000000000000e+00  1.0804771873198666e+00 2.7341858263317725e-01 0.0000000000000000e+00  1.0847322435510132e+00 2.8593083677936049e-01 0.0000000000000000e+00  1.0890198256188115e+00 2.9851949068341016e-01 0.0000000000000000e+00  1.0933386445961675e+00 3.1118232459776757e-01 0.0000000000000000e+00  1.0976862177769662e+00 3.2390918352424680e-01 0.0000000000000000e+00  1.1020615339733917e+00 3.3669877455065828e-01 0.0000000000000000e+00  1.1064623240994986e+00 3.4954168598221014e-01 0.0000000000000000e+00  1.1108877879319736e+00 3.6243731981200505e-01 0.0000000000000000e+00  1.1153358042420722e+00 3.7537681679125084e-01 0.0000000000000000e+00  1.1198057167069408e+00 3.8836004688357778e-01 0.0000000000000000e+00  1.1242954835751535e+00 4.0137850789269902e-01 0.0000000000000000e+00  1.1288045177179766e+00 4.1443229445508423e-01 0.0000000000000000e+00  1.1333307762715892e+00 4.2751303366278187e-01 0.0000000000000000e+00  1.1378736464968966e+00 4.4062074941386226e-01 0.0000000000000000e+00  1.1424309749147827e+00 4.5374689033356130e-01 0.0000000000000000e+00  1.1470019859512968e+00 4.6689099857474586e-01 0.0000000000000000e+00  1.1515842464923494e+00 4.8004387016066752e-01 0.0000000000000000e+00  1.1561765966621782e+00 4.9320392074177138e-01 0.0000000000000000e+00  1.1607760370236682e+00 5.0636048996352134e-01 0.0000000000000000e+00  1.1653806370371507e+00 5.1950976172664232e-01 0.0000000000000000e+00  1.1699863134986193e+00 5.3263816945933007e-01 0.0000000000000000e+00  1.1745896556052577e+00 5.4573765612075209e-01 0.0000000000000000e+00  1.1791845249549053e+00 5.5878902993199875e-01 0.0000000000000000e+00  1.1837646830469688e+00 5.7177620129033502e-01 0.0000000000000000e+00  1.1883200655675350e+00 5.8466912436847107e-01 0.0000000000000000e+00  1.1928389907421402e+00 5.9743634629855502e-01 0.0000000000000000e+00  1.1973038042167079e+00 6.1002673934606255e-01 0.0000000000000000e+00  1.2016922301921167e+00 6.2237908805259390e-01 0.0000000000000000e+00  1.2059717734556159e+00 6.3440095922632844e-01 0.0000000000000000e+00  1.2100993530669413e+00 6.4597285765811252e-01 0.0000000000000000e+00  1.2140132689916232e+00 6.5692095630538661e-01 0.0000000000000000e+00  1.2176295145797227e+00 6.6701120722302432e-01 0.0000000000000000e+00  1.2208292075404072e+00 6.7591001260429429e-01 0.0000000000000000e+00  1.2234490511240637e+00 6.8316079315938727e-01 0.0000000000000000e+00  1.2252615382783538e+00 6.8812447650348774e-01 0.0000000000000000e+00  1.2259577147496534e+00 6.8993174824805814e-01 0.0000000000000000e+00  1.2251213323242929e+00 6.8740392319753829e-01 0.0000000000000000e+00  1.2222128844343336e+00 6.7900064794412107e-01 0.0000000000000000e+00  1.2165628578666332e+00 6.6278366359721108e-01 0.0000000000000000e+00  1.2074114984778976e+00 6.3650243411992213e-01 0.0000000000000000e+00  1.1940182873455349e+00 5.9786926460423706e-01 0.0000000000000000e+00  1.1758950417687040e+00 5.4519040786516548e-01 0.0000000000000000e+00  1.1531518777735859e+00 4.7837115637507444e-01 0.0000000000000000e+00  1.1268644982043650e+00 4.0007504104956942e-01 0.0000000000000000e+00  1.0991792088522103e+00 3.1623039171885647e-01 0.0000000000000000e+00  1.0728794864505438e+00 2.3490459638213090e-01 0.0000000000000000e+00  1.0504658673479947e+00 1.6349317303175617e-01 0.0000000000000000e+00  1.0333600805152128e+00 1.0596388836035392e-01 0.0000000000000000e+00  1.0217774853765180e+00 6.2043801062598956e-02 0.0000000000000000e+00  1.0152235226830504e+00 2.8350277350887375e-02 0.0000000000000000e+00  1.0131180747208854e+00 2.5456879892951983e-16 0.0000000000000000e+00  1.0152235226830502e+00 -2.8350277350885734e-02 0.0000000000000000e+00  1.0217774853765180e+00 -6.2043801062599435e-02 0.0000000000000000e+00  1.0333600805152119e+00 -1.0596388836035235e-01 0.0000000000000000e+00  1.0504658673479947e+00 -1.6349317303175565e-01 0.0000000000000000e+00  1.0728794864505427e+00 -2.3490459638212813e-01 0.0000000000000000e+00  1.0991792088522094e+00 -3.1623039171885459e-01 0.0000000000000000e+00  1.1268644982043639e+00 -4.0007504104956737e-01 0.0000000000000000e+00  1.1531518777735850e+00 -4.7837115637507299e-01 0.0000000000000000e+00  1.1758950417687033e+00 -5.4519040786516304e-01 0.0000000000000000e+00  1.1940182873455345e+00 -5.9786926460423750e-01 0.0000000000000000e+00  1.2074114984778972e+00 -6.3650243411992047e-01 0.0000000000000000e+00  1.2165628578666330e+00 -6.6278366359721264e-01 0.0000000000000000e+00  1.2222128844343334e+00 -6.7900064794412163e-01 0.0000000000000000e+00  1.2251213323242929e+00 -6.8740392319754107e-01 0.0000000000000000e+00  1.2259577147496539e+00 -6.8993174824805792e-01 0.0000000000000000e+00  1.2252615382783540e+00 -6.8812447650348973e-01 0.0000000000000000e+00  1.2234490511240641e+00 -6.8316079315938794e-01 0.0000000000000000e+00  1.2208292075404072e+00 -6.7591001260429728e-01 0.0000000000000000e+00  1.2176295145797233e+00 -6.6701120722302376e-01 0.0000000000000000e+00  1.2140132689916230e+00 -6.5692095630538816e-01 0.0000000000000000e+00  1.2100993530669422e+00 -6.4597285765811208e-01 0.0000000000000000e+00  1.2059717734556159e+00 -6.3440095922632977e-01 0.0000000000000000e+00  1.2016922301921171e+00 -6.2237908805259301e-01 0.0000000000000000e+00  1.1973038042167079e+00 -6.1002673934606311e-01 0.0000000000000000e+00  1.1928389907421406e+00 -5.9743634629855336e-01 0.0000000000000000e+00  1.1883200655675350e+00 -5.8466912436847107e-01 0.0000000000000000e+00  1.1837646830469692e+00 -5.7177620129033413e-01 0.0000000000000000e+00  1.1791845249549056e+00 -5.5878902993199797e-01 0.0000000000000000e+00  1.1745896556052580e+00 -5.4573765612075154e-01 0.0000000000000000e+00  1.1699863134986195e+00 -5.3263816945932974e-01 0.0000000000000000e+00  1.1653806370371507e+00 -5.1950976172664154e-01 0.0000000000000000e+00  1.1607760370236688e+00 -5.0636048996352157e-01 0.0000000000000000e+00  1.1561765966621782e+00 -4.9320392074177055e-01 0.0000000000000000e+00  1.1515842464923496e+00 -4.8004387016066852e-01 0.0000000000000000e+00  1.1470019859512968e+00 -4.6689099857474514e-01 0.0000000000000000e+00  1.1424309749147827e+00 -4.5374689033356208e-01 0.0000000000000000e+00  1.1378736464968973e+00 -4.4062074941386292e-01 0.0000000000000000e+00  1.1333307762715894e+00 -4.2751303366278093e-01 0.0000000000000000e+00  1.1288045177179771e+00 -4.1443229445508539e-01 0.0000000000000000e+00  1.1242954835751540e+00 -4.0137850789269769e-01 0.0000000000000000e+00  1.1198057167069415e+00 -3.8836004688357817e-01 0.0000000000000000e+00  1.1153358042420725e+00 -3.7537681679124951e-01 0.0000000000000000e+00  1.1108877879319738e+00 -3.6243731981200644e-01 0.0000000000000000e+00  1.1064623240994991e+00 -3.4954168598220992e-01 0.0000000000000000e+00  1.1020615339733921e+00 -3.3669877455065972e-01 0.0000000000000000e+00  1.0976862177769662e+00 -3.2390918352424614e-01 0.0000000000000000e+00  1.0933386445961681e+00 -3.1118232459776818e-01 0.0000000000000000e+00  1.0890198256188117e+00 -2.9851949068340849e-01 0.0000000000000000e+00  1.0847322435510136e+00 -2.8593083677936160e-01 0.0000000000000000e+00  1.0804771873198669e+00 -2.7341858263317603e-01 0.0000000000000000e+00  1.0762574221941694e+00 -2.6099383015666944e-01 0.0000000000000000e+00  1.0720745858351335e+00 -2.4865997612002344e-01 0.0000000000000000e+00  1.0679318016810011e+00 -2.3642929651077091e-01 0.0000000000000000e+00  1.0638311338949020e+00 -2.2430664110688567e-01 0.0000000000000000e+00  1.0597761479449308e+00 -2.1230571595047965e-01 0.0000000000000000e+00  1.0557694196409497e+00 -2.0043312720697348e-01 0.0000000000000000e+00  1.0518150479315498e+00 -1.8870429411776718e-01 0.0000000000000000e+00  1.0479162107279312e+00 -1.7712790318569299e-01 0.0000000000000000e+00  1.0440776354963810e+00 -1.6572138491556027e-01 0.0000000000000000e+00  1.0403031917949934e+00 -1.5449583051997134e-01 0.0000000000000000e+00  1.0365983250022799e+00 -1.4347096564609516e-01 0.0000000000000000e+00  1.0329676722804204e+00 -1.3266056992351949e-01 0.0000000000000000e+00  1.0294174635076012e+00 -1.2208687889044791e-01 0.0000000000000000e+00  1.0259531436224374e+00 -1.1176653149411905e-01 0.0000000000000000e+00  1.0225817424232504e+00 -1.0172432714216616e-01 0.0000000000000000e+00  1.0193094820731785e+00 -9.1979708232921384e-02 0.0000000000000000e+00  1.0161441142038878e+00 -8.2559793506895976e-02 0.0000000000000000e+00  1.0130924874893630e+00 -7.3486384317279871e-02 0.0000000000000000e+00  1.0101628476011364e+00 -6.4788191811063531e-02 0.0000000000000000e+00  1.0073623380023584e+00 -5.6488343061257953e-02 0.0000000000000000e+00  1.0046992582638505e+00 -4.8615726078664240e-02 0.0000000000000000e+00  1.0021804748976377e+00 -4.1192976192227518e-02 0.0000000000000000e+00  9.9981364036309128e-01 -3.4246892382766417e-02 0.0000000000000000e+00  9.9760450424180447e-01 -2.7796920099318879e-02 0.0000000000000000e+00  9.9555911317684709e-01 -2.1864658599220703e-02 0.0000000000000000e+00  9.9368103904077820e-01 -1.6462934054285776e-02 0.0000000000000000e+00  9.9197360974577453e-01 -1.1604522534924673e-02 0.0000000000000000e+00  9.9043710691722830e-01 -7.2920160988794681e-03 0.0000000000000000e+00  9.8907111032655304e-01 -3.5260011967793523e-03 0.0000000000000000e+00  9.8787174787845700e-01 -2.9601136471513553e-04 0.0000000000000000e+00  9.8683425140819703e-01 2.4115424916874204e-03 0.0000000000000000e+00  9.8595034151567229e-01 4.6210475432937395e-03 0.0000000000000000e+00  9.8521106498870104e-01 6.3597924854117988e-03 0.0000000000000000e+00  9.8460434749727388e-01 7.6641537536612245e-03 0.0000000000000000e+00  9.8411810703532387e-01 8.5717576791958603e-03 0.0000000000000000e+00  9.8373792056964604e-01 9.1263480353239810e-03 0.0000000000000000e+00  9.8345031531457117e-01 9.3703247882333217e-03 0.0000000000000000e+00  9.8324041924835792e-01 9.3487150566064024e-03 0.0000000000000000e+00  9.8309527902258675e-01 9.1025709149042140e-03 0.0000000000000000e+00  9.8300135100046571e-01 8.6725138223435576e-03 0.0000000000000000e+00  9.8294771687658933e-01 8.0933973465153984e-03 0.0000000000000000e+00  9.8292333172866586e-01 7.3977103115045609e-03 0.0000000000000000e+00  9.8292008812448683e-01 6.6116538603640746e-03 0.0000000000000000e+00  9.8292982934385931e-01 5.7584073794656231e-03 0.0000000000000000e+00  9.8294729574493012e-01 4.8555099063043268e-03 0.0000000000000000e+00  9.8296698039450470e-01 3.9177918183569450e-03 0.0000000000000000e+00  9.8298603450342770e-01 2.9558277068195029e-03 0.0000000000000000e+00  9.8300106380090357e-01 1.9782961775218818e-03 0.0000000000000000e+00  9.8301106707968633e-01 9.9130063715351146e-04 0.0000000000000000e+00  9.8301425492524108e-01 0.0000000000000000e+00 0.0000000000000000e+00  </DataArray> 
</PointData> 
</Piece>
</UnstructuredGrid>
</VTKFile>