<?xml version="1.0"?>
<VTKFile type="UnstructuredGrid"  version="0.1"  >
<UnstructuredGrid>
<Piece  NumberOfPoints="201" NumberOfCells="200">
<Points>
<DataArray  type="Float64"  NumberOfComponents="3"  format="ascii">-5 0 0  -4.95 0 0  -4.9 0 0  -4.85 0 0  -4.8 0 0  -4.75 0 0  -4.7 0 0  -4.65 0 0  -4.6 0 0  -4.55 0 0  -4.5 0 0  -4.45 0 0  -4.4 0 0  -4.35 0 0  -4.3 0 0  -4.25 0 0  -4.2 0 0  -4.15 0 0  -4.1 0 0  -4.05 0 0  -4 0 0  -3.95 0 0  -3.9 0 0  -3.85 0 0  -3.8 0 0  -3.75 0 0  -3.7 0 0  -3.65 0 0  -3.6 0 0  -3.55 0 0  -3.5 0 0  -3.45 0 0  -3.4 0 0  -3.35 0 0  -3.3 0 0  -3.25 0 0  -3.2 0 0  -3.15 0 0  -3.1 0 0  -3.05 0 0  -3 0 0  -2.95 0 0  -2.9 0 0  -2.85 0 0  -2.8 0 0  -2.75 0 0  -2.7 0 0  -2.65 0 0  -2.6 0 0  -2.55 0 0  -2.5 0 0  -2.45 0 0  -2.4 0 0  -2.35 0 0  -2.3 0 0  -2.25 0 0  -2.2 0 0  -2.15 0 0  -2.1 0 0  -2.05 0 0  -2 0 0  -1.95 0 0  -1.9 0 0  -1.85 0 0  -1.8 0 0  -1.75 0 0  -1.7 0 0  -1.65 0 0  -1.6 0 0  -1.55 0 0  -1.5 0 0  -1.45 0 0  -1.4 0 0  -1.35 0 0  -1.3 0 0  -1.25 0 0  -1.2 0 0  -1.15 0 0  -1.1 0 0  -1.05 0 0  -1 0 0  -0.9500000000000002 0 0  -0.9000000000000004 0 0  -0.8499999999999996 0 0  -0.7999999999999998 0 0  -0.75 0 0  -0.7000000000000002 0 0  -0.6500000000000004 0 0  -0.5999999999999996 0 0  -0.5499999999999998 0 0  -0.5 0 0  -0.4500000000000002 0 0  -0.4000000000000004 0 0  -0.3499999999999996 0 0  -0.2999999999999998 0 0  -0.25 0 0  -0.2000000000000002 0 0  -0.1500000000000004 0 0  -0.09999999999999964 0 0  -0.04999999999999982 0 0  0 0 0  0.04999999999999982 0 0  0.09999999999999964 0 0  0.1500000000000004 0 0  0.2000000000000002 0 0  0.25 0 0  0.2999999999999998 0 0  0.3499999999999996 0 0  0.4000000000000004 0 0  0.4500000000000002 0 0  0.5 0 0  0.5499999999999998 0 0  0.5999999999999996 0 0  0.6500000000000004 0 0  0.7000000000000002 0 0  0.75 0 0  0.7999999999999998 0 0  0.8499999999999996 0 0  0.9000000000000004 0 0  0.9500000000000002 0 0  1 0 0  1.05 0 0  1.1 0 0  1.15 0 0  1.2 0 0  1.25 0 0  1.3 0 0  1.35 0 0  1.4 0 0  1.45 0 0  1.5 0 0  1.55 0 0  1.6 0 0  1.65 0 0  1.7 0 0  1.75 0 0  1.8 0 0  1.85 0 0  1.9 0 0  1.95 0 0  2 0 0  2.05 0 0  2.1 0 0  2.15 0 0  2.2 0 0  2.25 0 0  2.3 0 0  2.35 0 0  2.4 0 0  2.45 0 0  2.5 0 0  2.55 0 0  2.6 0 0  2.65 0 0  2.7 0 0  2.75 0 0  2.8 0 0  2.85 0 0  2.9 0 0  2.95 0 0  3 0 0  3.050000000000001 0 0  3.1 0 0  3.15 0 0  3.199999999999999 0 0  3.25 0 0  3.300000000000001 0 0  3.35 0 0  3.4 0 0  3.449999999999999 0 0  3.5 0 0  3.550000000000001 0 0  3.6 0 0  3.65 0 0  3.699999999999999 0 0  3.75 0 0  3.800000000000001 0 0  3.85 0 0  3.9 0 0  3.949999999999999 0 0  4 0 0  4.050000000000001 0 0  4.1 0 0  4.15 0 0  4.199999999999999 0 0  4.25 0 0  4.300000000000001 0 0  4.35 0 0  4.4 0 0  4.449999999999999 0 0  4.5 0 0  4.550000000000001 0 0  4.6 0 0  4.65 0 0  4.699999999999999 0 0  4.75 0 0  4.800000000000001 0 0  4.85 0 0  4.9 0 0  4.949999999999999 0 0  5 0 0  </DataArray>
</Points>
<Cells>
<DataArray  type="UInt32"  Name="connectivity"  format="ascii">0 1  1 2  2 3  3 4  4 5  5 6  6 7  7 8  8 9  9 10  10 11  11 12  12 13  13 14  14 15  15 16  16 17  17 18  18 19  19 20  20 21  21 22  22 23  23 24  24 25  25 26  26 27  27 28  28 29  29 30  30 31  31 32  32 33  33 34  34 35  35 36  36 37  37 38  38 39  39 40  40 41  41 42  42 43  43 44  44 45  45 46  46 47  47 48  48 49  49 50  50 51  51 52  52 53  53 54  54 55  55 56  56 57  57 58  58 59  59 60  60 61  61 62  62 63  63 64  64 65  65 66  66 67  67 68  68 69  69 70  70 71  71 72  72 73  73 74  74 75  75 76  76 77  77 78  78 79  79 80  80 81  81 82  82 83  83 84  84 85  85 86  86 87  87 88  88 89  89 90  90 91  91 92  92 93  93 94  94 95  95 96  96 97  97 98  98 99  99 100  100 101  101 102  102 103  103 104  104 105  105 106  106 107  107 108  108 109  109 110  110 111  111 112  112 113  113 114  114 115  115 116  116 117  117 118  118 119  119 120  120 121  121 122  122 123  123 124  124 125  125 126  126 127  127 128  128 129  129 130  130 131  131 132  132 133  133 134  134 135  135 136  136 137  137 138  138 139  139 140  140 141  141 142  142 143  143 144  144 145  145 146  146 147  147 148  148 149  149 150  150 151  151 152  152 153  153 154  154 155  155 156  156 157  157 158  158 159  159 160  160 161  161 162  162 163  163 164  164 165  165 166  166 167  167 168  168 169  169 170  170 171  171 172  172 173  173 174  174 175  175 176  176 177  177 178  178 179  179 180  180 181  181 182  182 183  183 184  184 185  185 186  186 187  187 188  188 189  189 190  190 191  191 192  192 193  193 194  194 195  195 196  196 197  197 198  198 199  199 200  </DataArray>
<DataArray  type="UInt32"  Name="offsets"  format="ascii">2 4 6 8 10 12 14 16 18 20 22 24 26 28 30 32 34 36 38 40 42 44 46 48 50 52 54 56 58 60 62 64 66 68 70 72 74 76 78 80 82 84 86 88 90 92 94 96 98 100 102 104 106 108 110 112 114 116 118 120 122 124 126 128 130 132 134 136 138 140 142 144 146 148 150 152 154 156 158 160 162 164 166 168 170 172 174 176 178 180 182 184 186 188 190 192 194 196 198 200 202 204 206 208 210 212 214 216 218 220 222 224 226 228 230 232 234 236 238 240 242 244 246 248 250 252 254 256 258 260 262 264 266 268 270 272 274 276 278 280 282 284 286 288 290 292 294 296 298 300 302 304 306 308 310 312 314 316 318 320 322 324 326 328 330 332 334 336 338 340 342 344 346 348 350 352 354 356 358 360 362 364 366 368 370 372 374 376 378 380 382 384 386 388 390 392 394 396 398 400 </DataArray>
<DataArray  type="UInt8"  Name="types"  format="ascii">3 3 3 3 3 3 3 3 3 3 3 3 3 3 3 3 3 3 3 3 3 3 3 3 3 3 3 3 3 3 3 3 3 3 3 3 3 3 3 3 3 3 3 3 3 3 3 3 3 3 3 3 3 3 3 3 3 3 3 3 3 3 3 3 3 3 3 3 3 3 3 3 3 3 3 3 3 3 3 3 3 3 3 3 3 3 3 3 3 3 3 3 3 3 3 3 3 3 3 3 3 3 3 3 3 3 3 3 3 3 3 3 3 3 3 3 3 3 3 3 3 3 3 3 3 3 3 3 3 3 3 3 3 3 3 3 3 3 3 3 3 3 3 3 3 3 3 3 3 3 3 3 3 3 3 3 3 3 3 3 3 3 3 3 3 3 3 3 3 3 3 3 3 3 3 3 3 3 3 3 3 3 3 3 3 3 3 3 3 3 3 3 3 3 3 3 3 3 3 3 </DataArray>
</Cells>
<PointData  Vectors="(h, u)"> 
<DataArray  type="Float64"  Name="(h, u)"  NumberOfComponents="3" format="ascii">1.3322656938350868e+00 0.0000000000000000e+00 0.0000000000000000e+00  1.3322707696507621e+00 4.2830022366210363e-02 0.0000000000000000e+00  1.3322840989047959e+00 8.5629416935875738e-02 0.0000000000000000e+00  1.3323071351309663e+00 1.2836689910805199e-01 0.0000000000000000e+00  1.3323374022394290e+00 1.7100840883701454e-01 0.0000000000000000e+00  1.3323754733526452e+00 2.1351758285253558e-01 0.0000000000000000e+00  1.3324175103699263e+00 2.5585181423163211e-01 0.0000000000000000e+00  1.3324619428547027e+00 2.9796337137162737e-01 0.0000000000000000e+00  1.3325016586605209e+00 3.3979304134549621e-01 0.0000000000000000e+00  1.3325300792546877e+00 3.8127098951947247e-01 0.0000000000000000e+00  1.3325325757727582e+00 4.2230676212488166e-01 0.0000000000000000e+00  1.3324912530827602e+00 4.6278796118416621e-01 0.0000000000000000e+00  1.3323745724940046e+00 5.0256382581485015e-01 0.0000000000000000e+00  1.3321392397919669e+00 5.4143732494669894e-01 0.0000000000000000e+00  1.3317155872128339e+00 5.7913570061096842e-01 0.0000000000000000e+00  1.3310027785697014e+00 6.1528562083648619e-01 0.0000000000000000e+00  1.3298442786436928e+00 6.4935519381546425e-01 0.0000000000000000e+00  1.3280082093341219e+00 6.8058943853866161e-01 0.0000000000000000e+00  1.3251422295788948e+00 7.0789343636865365e-01 0.0000000000000000e+00  1.3207277048173318e+00 7.2969360733828359e-01 0.0000000000000000e+00  1.3140087406915046e+00 7.4373951578649311e-01 0.0000000000000000e+00  1.3039382647626481e+00 7.4692275409270825e-01 0.0000000000000000e+00  1.2891583870694476e+00 7.3517761157270500e-01 0.0000000000000000e+00  1.2681337409036773e+00 7.0375376899946507e-01 0.0000000000000000e+00  1.2395548344726868e+00 6.4823846602671764e-01 0.0000000000000000e+00  1.2031547130272784e+00 5.6682761169999052e-01 0.0000000000000000e+00  1.1607410390098560e+00 4.6357406975452548e-01 0.0000000000000000e+00  1.1166699913451668e+00 3.5050576259454097e-01 0.0000000000000000e+00  1.0765998334088731e+00 2.4471928913720348e-01 0.0000000000000000e+00  1.0448256839384398e+00 1.6027814349894789e-01 0.0000000000000000e+00  1.0224980048679593e+00 1.0190660147383827e-01 0.0000000000000000e+00  1.0081889330834832e+00 6.6038414355199346e-02 0.0000000000000000e+00  9.9955709220699962e-01 4.5898333287091295e-02 0.0000000000000000e+00  9.9453284369858852e-01 3.5339537899966175e-02 0.0000000000000000e+00  9.9166680912362870e-01 3.0078393148418998e-02 0.0000000000000000e+00  9.9006205589530893e-01 2.7531386966081112e-02 0.0000000000000000e+00  9.8918922439359358e-01 2.6261936984705556e-02 0.0000000000000000e+00  9.8874735520985368e-01 2.5532324546561434e-02 0.0000000000000000e+00  9.8856030017649843e-01 2.4981198992923101e-02 0.0000000000000000e+00  9.8852787799587893e-01 2.4456650835711784e-02 0.0000000000000000e+00  9.8858717316553035e-01 2.3899263745634319e-02 0.0000000000000000e+00  9.8870225971671155e-01 2.3303082011587126e-02 0.0000000000000000e+00  9.8884796756714810e-01 2.2672758074088400e-02 0.0000000000000000e+00  9.8901096913108999e-01 2.2025244605781688e-02 0.0000000000000000e+00  9.8918043365606867e-01 2.1369281928892078e-02 0.0000000000000000e+00  9.8935197581194823e-01 2.0718007040123606e-02 0.0000000000000000e+00  9.8952078657860021e-01 2.0074505388271293e-02 0.0000000000000000e+00  9.8968612353383068e-01 1.9446247507272873e-02 0.0000000000000000e+00  9.8984573945267196e-01 1.8832164119939671e-02 0.0000000000000000e+00  9.9000023927880532e-01 1.8236444170503990e-02 0.0000000000000000e+00  9.9014843237615835e-01 1.7656204634247333e-02 0.0000000000000000e+00  9.9029129446815267e-01 1.7094173320821238e-02 0.0000000000000000e+00  9.9042807913263498e-01 1.6546983679303406e-02 0.0000000000000000e+00  9.9055975821150766e-01 1.6016760470059146e-02 0.0000000000000000e+00  9.9068580901475467e-01 1.5500197875512657e-02 0.0000000000000000e+00  9.9080707559268943e-01 1.4999133343943611e-02 0.0000000000000000e+00  9.9092318966709725e-01 1.4510491914068613e-02 0.0000000000000000e+00  9.9103483458629349e-01 1.4035925149085148e-02 0.0000000000000000e+00  9.9114177648379220e-01 1.3572618887103025e-02 0.0000000000000000e+00  9.9124453412023295e-01 1.3122076247026528e-02 0.0000000000000000e+00  9.9134300081825633e-01 1.2681728192793566e-02 0.0000000000000000e+00  9.9143753584212191e-01 1.2252953630651977e-02 0.0000000000000000e+00  9.9152815402657790e-01 1.1833399114938695e-02 0.0000000000000000e+00  9.9161506388558396e-01 1.1424342555911486e-02 0.0000000000000000e+00  9.9169839455884023e-01 1.1023613192439139e-02 0.0000000000000000e+00  9.9177821507423858e-01 1.0632410841546676e-02 0.0000000000000000e+00  9.9185475939242362e-01 1.0248715560108871e-02 0.0000000000000000e+00  9.9192797055183757e-01 9.8736699476540749e-03 0.0000000000000000e+00  9.9199817556308811e-01 9.5053765390312791e-03 0.0000000000000000e+00  9.9206520689119182e-01 9.1449379443203863e-03 0.0000000000000000e+00  9.9212947089045567e-01 8.7905558156464933e-03 0.0000000000000000e+00  9.9219070627996886e-01 8.4433053802557816e-03 0.0000000000000000e+00  9.9224938370829385e-01 8.1014696712439094e-03 0.0000000000000000e+00  9.9230516571320582e-01 7.7661041933255320e-03 0.0000000000000000e+00  9.9235857157951968e-01 7.4355612752033855e-03 0.0000000000000000e+00  9.9240920520950959e-01 7.1108795701646833e-03 0.0000000000000000e+00  9.9245761903324758e-01 6.7904738939954532e-03 0.0000000000000000e+00  9.9250337510035280e-01 6.4753645678419323e-03 0.0000000000000000e+00  9.9254704438719721e-01 6.1640267901628635e-03 0.0000000000000000e+00  9.9258816245612969e-01 5.8574572662230097e-03 0.0000000000000000e+00  9.9262730572999192e-01 5.5541935502259826e-03 0.0000000000000000e+00  9.9266399671796790e-01 5.2552002013958703e-03 0.0000000000000000e+00  9.9269880614020789e-01 4.9590825718164935e-03 0.0000000000000000e+00  9.9273125460450506e-01 4.6667618276011371e-03 0.0000000000000000e+00  9.9276189821591654e-01 4.3769194478823466e-03 0.0000000000000000e+00  9.9279026436000573e-01 4.0904197611570138e-03 0.0000000000000000e+00  9.9281688798237533e-01 3.8060310019903836e-03 0.0000000000000000e+00  9.9284130940549564e-01 3.5245455712960127e-03 0.0000000000000000e+00  9.9286403823805947e-01 3.2448307483934576e-03 0.0000000000000000e+00  9.9288463144875316e-01 2.9675908972411533e-03 0.0000000000000000e+00  9.9290357139145846e-01 2.6918055702603830e-03 0.0000000000000000e+00  9.9292043310250833e-01 2.4180746867264891e-03 0.0000000000000000e+00  9.9293567183352094e-01 2.1455034275286839e-03 0.0000000000000000e+00  9.9294888005339044e-01 1.8745713673699925e-03 0.0000000000000000e+00  9.9296048788355851e-01 1.6045219213035864e-03 0.0000000000000000e+00  9.9297010281732945e-01 1.3356997778347255e-03 0.0000000000000000e+00  9.9297813333985863e-01 1.0674975544231558e-03 0.0000000000000000e+00  9.9298419811043137e-01 8.0011269986938333e-04 0.0000000000000000e+00  9.9298868866011025e-01 5.3309553782880919e-04 0.0000000000000000e+00  9.9299122985795474e-01 2.6648684450805661e-04 0.0000000000000000e+00  9.9299220179092496e-01 8.1006242212509499e-17 0.0000000000000000e+00  9.9299122985795485e-01 -2.6648684450810328e-04 0.0000000000000000e+00  9.9298868866011036e-01 -5.3309553782858487e-04 0.0000000000000000e+00  9.9298419811043148e-01 -8.0011269986914860e-04 0.0000000000000000e+00  9.9297813333985840e-01 -1.0674975544233409e-03 0.0000000000000000e+00  9.9297010281732945e-01 -1.3356997778347570e-03 0.0000000000000000e+00  9.9296048788355817e-01 -1.6045219213038299e-03 0.0000000000000000e+00  9.9294888005339033e-01 -1.8745713673701584e-03 0.0000000000000000e+00  9.9293567183352061e-01 -2.1455034275287385e-03 0.0000000000000000e+00  9.9292043310250799e-01 -2.4180746867261157e-03 0.0000000000000000e+00  9.9290357139145802e-01 -2.6918055702604177e-03 0.0000000000000000e+00  9.9288463144875283e-01 -2.9675908972404707e-03 0.0000000000000000e+00  9.9286403823805891e-01 -3.2448307483925755e-03 0.0000000000000000e+00  9.9284130940549531e-01 -3.5245455712950911e-03 0.0000000000000000e+00  9.9281688798237466e-01 -3.8060310019893658e-03 0.0000000000000000e+00  9.9279026436000550e-01 -4.0904197611559409e-03 0.0000000000000000e+00  9.9276189821591598e-01 -4.3769194478810690e-03 0.0000000000000000e+00  9.9273125460450484e-01 -4.6667618276005161e-03 0.0000000000000000e+00  9.9269880614020733e-01 -4.9590825718156392e-03 0.0000000000000000e+00  9.9266399671796768e-01 -5.2552002013951243e-03 0.0000000000000000e+00  9.9262730572999136e-01 -5.5541935502244249e-03 0.0000000000000000e+00  9.9258816245612969e-01 -5.8574572662222118e-03 0.0000000000000000e+00  9.9254704438719676e-01 -6.1640267901614315e-03 0.0000000000000000e+00  9.9250337510035291e-01 -6.4753645678412436e-03 0.0000000000000000e+00  9.9245761903324736e-01 -6.7904738939946977e-03 0.0000000000000000e+00  9.9240920520950981e-01 -7.1108795701638082e-03 0.0000000000000000e+00  9.9235857157951934e-01 -7.4355612752027133e-03 0.0000000000000000e+00  9.9230516571320615e-01 -7.7661041933253100e-03 0.0000000000000000e+00  9.9224938370829363e-01 -8.1014696712434150e-03 0.0000000000000000e+00  9.9219070627996919e-01 -8.4433053802548310e-03 0.0000000000000000e+00  9.9212947089045511e-01 -8.7905558156458410e-03 0.0000000000000000e+00  9.9206520689119204e-01 -9.1449379443196196e-03 0.0000000000000000e+00  9.9199817556308789e-01 -9.5053765390307587e-03 0.0000000000000000e+00  9.9192797055183779e-01 -9.8736699476533307e-03 0.0000000000000000e+00  9.9185475939242373e-01 -1.0248715560108989e-02 0.0000000000000000e+00  9.9177821507423880e-01 -1.0632410841547320e-02 0.0000000000000000e+00  9.9169839455884068e-01 -1.1023613192439814e-02 0.0000000000000000e+00  9.9161506388558407e-01 -1.1424342555911703e-02 0.0000000000000000e+00  9.9152815402657812e-01 -1.1833399114939884e-02 0.0000000000000000e+00  9.9143753584212191e-01 -1.2252953630652272e-02 0.0000000000000000e+00  9.9134300081825644e-01 -1.2681728192795024e-02 0.0000000000000000e+00  9.9124453412023306e-01 -1.3122076247027556e-02 0.0000000000000000e+00  9.9114177648379265e-01 -1.3572618887104695e-02 0.0000000000000000e+00  9.9103483458629382e-01 -1.4035925149085681e-02 0.0000000000000000e+00  9.9092318966709736e-01 -1.4510491914069874e-02 0.0000000000000000e+00  9.9080707559268966e-01 -1.4999133343943694e-02 0.0000000000000000e+00  9.9068580901475456e-01 -1.5500197875513365e-02 0.0000000000000000e+00  9.9055975821150777e-01 -1.6016760470058268e-02 0.0000000000000000e+00  9.9042807913263486e-01 -1.6546983679303851e-02 0.0000000000000000e+00  9.9029129446815256e-01 -1.7094173320820392e-02 0.0000000000000000e+00  9.9014843237615824e-01 -1.7656204634247871e-02 0.0000000000000000e+00  9.9000023927880509e-01 -1.8236444170502603e-02 0.0000000000000000e+00  9.8984573945267185e-01 -1.8832164119940629e-02 0.0000000000000000e+00  9.8968612353383068e-01 -1.9446247507272359e-02 0.0000000000000000e+00  9.8952078657859999e-01 -2.0074505388272140e-02 0.0000000000000000e+00  9.8935197581194823e-01 -2.0718007040122135e-02 0.0000000000000000e+00  9.8918043365606845e-01 -2.1369281928893431e-02 0.0000000000000000e+00  9.8901096913108977e-01 -2.2025244605781053e-02 0.0000000000000000e+00  9.8884796756714788e-01 -2.2672758074090357e-02 0.0000000000000000e+00  9.8870225971671144e-01 -2.3303082011586169e-02 0.0000000000000000e+00  9.8858717316553013e-01 -2.3899263745636251e-02 0.0000000000000000e+00  9.8852787799587893e-01 -2.4456650835710983e-02 0.0000000000000000e+00  9.8856030017649821e-01 -2.4981198992924718e-02 0.0000000000000000e+00  9.8874735520985357e-01 -2.5532324546560726e-02 0.0000000000000000e+00  9.8918922439359347e-01 -2.6261936984706691e-02 0.0000000000000000e+00  9.9006205589530893e-01 -2.7531386966079822e-02 0.0000000000000000e+00  9.9166680912362881e-01 -3.0078393148420323e-02 0.0000000000000000e+00  9.9453284369858908e-01 -3.5339537899964898e-02 0.0000000000000000e+00  9.9955709220699995e-01 -4.5898333287092329e-02 0.0000000000000000e+00  1.0081889330834837e+00 -6.6038414355198041e-02 0.0000000000000000e+00  1.0224980048679593e+00 -1.0190660147383850e-01 0.0000000000000000e+00  1.0448256839384407e+00 -1.6027814349894773e-01 0.0000000000000000e+00  1.0765998334088727e+00 -2.4471928913720351e-01 0.0000000000000000e+00  1.1166699913451679e+00 -3.5050576259454064e-01 0.0000000000000000e+00  1.1607410390098556e+00 -4.6357406975452436e-01 0.0000000000000000e+00  1.2031547130272791e+00 -5.6682761169998919e-01 0.0000000000000000e+00  1.2395548344726874e+00 -6.4823846602671931e-01 0.0000000000000000e+00  1.2681337409036775e+00 -7.0375376899946251e-01 0.0000000000000000e+00  1.2891583870694481e+00 -7.3517761157270567e-01 0.0000000000000000e+00  1.3039382647626481e+00 -7.4692275409270603e-01 0.0000000000000000e+00  1.3140087406915049e+00 -7.4373951578649333e-01 0.0000000000000000e+00  1.3207277048173323e+00 -7.2969360733828148e-01 0.0000000000000000e+00  1.3251422295788948e+00 -7.0789343636865443e-01 0.0000000000000000e+00  1.3280082093341221e+00 -6.8058943853866094e-01 0.0000000000000000e+00  1.3298442786436926e+00 -6.4935519381546569e-01 0.0000000000000000e+00  1.3310027785697016e+00 -6.1528562083648597e-01 0.0000000000000000e+00  1.3317155872128339e+00 -5.7913570061096742e-01 0.0000000000000000e+00  1.3321392397919674e+00 -5.4143732494669827e-01 0.0000000000000000e+00  1.3323745724940044e+00 -5.0256382581484926e-01 0.0000000000000000e+00  1.3324912530827611e+00 -4.6278796118416671e-01 0.0000000000000000e+00  1.3325325757727582e+00 -4.2230676212488044e-01 0.0000000000000000e+00  1.3325300792546884e+00 -3.8127098951947241e-01 0.0000000000000000e+00  1.3325016586605212e+00 -3.3979304134549543e-01 0.0000000000000000e+00  1.3324619428547033e+00 -2.9796337137162837e-01 0.0000000000000000e+00  1.3324175103699263e+00 -2.5585181423163356e-01 0.0000000000000000e+00  1.3323754733526461e+00 -2.1351758285253636e-01 0.0000000000000000e+00  1.3323374022394290e+00 -1.7100840883701460e-01 0.0000000000000000e+00  1.3323071351309679e+00 -1.2836689910805310e-01 0.0000000000000000e+00  1.3322840989047962e+00 -8.5629416935876210e-02 0.0000000000000000e+00  1.3322707696507643e+00 -4.2830022366211550e-02 0.0000000000000000e+00  1.3322656938350874e+00 0.0000000000000000e+00 0.0000000000000000e+00  </DataArray> 
</PointData> 
</Piece>
</UnstructuredGrid>
</VTKFile>