<?xml version="1.0"?>
<VTKFile type="UnstructuredGrid"  version="0.1"  >
<UnstructuredGrid>
<Piece  NumberOfPoints="201" NumberOfCells="200">
<Points>
<DataArray  type="Float64"  NumberOfComponents="3"  format="ascii">-5 0 0  -4.95 0 0  -4.9 0 0  -4.85 0 0  -4.8 0 0  -4.75 0 0  -4.7 0 0  -4.65 0 0  -4.6 0 0  -4.55 0 0  -4.5 0 0  -4.45 0 0  -4.4 0 0  -4.35 0 0  -4.3 0 0  -4.25 0 0  -4.2 0 0  -4.15 0 0  -4.1 0 0  -4.05 0 0  -4 0 0  -3.95 0 0  -3.9 0 0  -3.85 0 0  -3.8 0 0  -3.75 0 0  -3.7 0 0  -3.65 0 0  -3.6 0 0  -3.55 0 0  -3.5 0 0  -3.45 0 0  -3.4 0 0  -3.35 0 0  -3.3 0 0  -3.25 0 0  -3.2 0 0  -3.15 0 0  -3.1 0 0  -3.05 0 0  -3 0 0  -2.95 0 0  -2.9 0 0  -2.85 0 0  -2.8 0 0  -2.75 0 0  -2.7 0 0  -2.65 0 0  -2.6 0 0  -2.55 0 0  -2.5 0 0  -2.45 0 0  -2.4 0 0  -2.35 0 0  -2.3 0 0  -2.25 0 0  -2.2 0 0  -2.15 0 0  -2.1 0 0  -2.05 0 0  -2 0 0  -1.95 0 0  -1.9 0 0  -1.85 0 0  -1.8 0 0  -1.75 0 0  -1.7 0 0  -1.65 0 0  -1.6 0 0  -1.55 0 0  -1.5 0 0  -1.45 0 0  -1.4 0 0  -1.35 0 0  -1.3 0 0  -1.25 0 0  -1.2 0 0  -1.15 0 0  -1.1 0 0  -1.05 0 0  -1 0 0  -0.9500000000000002 0 0  -0.9000000000000004 0 0  -0.8499999999999996 0 0  -0.7999999999999998 0 0  -0.75 0 0  -0.7000000000000002 0 0  -0.6500000000000004 0 0  -0.5999999999999996 0 0  -0.5499999999999998 0 0  -0.5 0 0  -0.4500000000000002 0 0  -0.4000000000000004 0 0  -0.3499999999999996 0 0  -0.2999999999999998 0 0  -0.25 0 0  -0.2000000000000002 0 0  -0.1500000000000004 0 0  -0.09999999999999964 0 0  -0.04999999999999982 0 0  0 0 0  0.04999999999999982 0 0  0.09999999999999964 0 0  0.1500000000000004 0 0  0.2000000000000002 0 0  0.25 0 0  0.2999999999999998 0 0  0.3499999999999996 0 0  0.4000000000000004 0 0  0.4500000000000002 0 0  0.5 0 0  0.5499999999999998 0 0  0.5999999999999996 0 0  0.6500000000000004 0 0  0.7000000000000002 0 0  0.75 0 0  0.7999999999999998 0 0  0.8499999999999996 0 0  0.9000000000000004 0 0  0.9500000000000002 0 0  1 0 0  1.05 0 0  1.1 0 0  1.15 0 0  1.2 0 0  1.25 0 0  1.3 0 0  1.35 0 0  1.4 0 0  1.45 0 0  1.5 0 0  1.55 0 0  1.6 0 0  1.65 0 0  1.7 0 0  1.75 0 0  1.8 0 0  1.85 0 0  1.9 0 0  1.95 0 0  2 0 0  2.05 0 0  2.1 0 0  2.15 0 0  2.2 0 0  2.25 0 0  2.3 0 0  2.35 0 0  2.4 0 0  2.45 0 0  2.5 0 0  2.55 0 0  2.6 0 0  2.65 0 0  2.7 0 0  2.75 0 0  2.8 0 0  2.85 0 0  2.9 0 0  2.95 0 0  3 0 0  3.050000000000001 0 0  3.1 0 0  3.15 0 0  3.199999999999999 0 0  3.25 0 0  3.300000000000001 0 0  3.35 0 0  3.4 0 0  3.449999999999999 0 0  3.5 0 0  3.550000000000001 0 0  3.6 0 0  3.65 0 0  3.699999999999999 0 0  3.75 0 0  3.800000000000001 0 0  3.85 0 0  3.9 0 0  3.949999999999999 0 0  4 0 0  4.050000000000001 0 0  4.1 0 0  4.15 0 0  4.199999999999999 0 0  4.25 0 0  4.300000000000001 0 0  4.35 0 0  4.4 0 0  4.449999999999999 0 0  4.5 0 0  4.550000000000001 0 0  4.6 0 0  4.65 0 0  4.699999999999999 0 0  4.75 0 0  4.800000000000001 0 0  4.85 0 0  4.9 0 0  4.949999999999999 0 0  5 0 0  </DataArray>
</Points>
<Cells>
<DataArray  type="UInt32"  Name="connectivity"  format="ascii">0 1  1 2  2 3  3 4  4 5  5 6  6 7  7 8  8 9  9 10  10 11  11 12  12 13  13 14  14 15  15 16  16 17  17 18  18 19  19 20  20 21  21 22  22 23  23 24  24 25  25 26  26 27  27 28  28 29  29 30  30 31  31 32  32 33  33 34  34 35  35 36  36 37  37 38  38 39  39 40  40 41  41 42  42 43  43 44  44 45  45 46  46 47  47 48  48 49  49 50  50 51  51 52  52 53  53 54  54 55  55 56  56 57  57 58  58 59  59 60  60 61  61 62  62 63  63 64  64 65  65 66  66 67  67 68  68 69  69 70  70 71  71 72  72 73  73 74  74 75  75 76  76 77  77 78  78 79  79 80  80 81  81 82  82 83  83 84  84 85  85 86  86 87  87 88  88 89  89 90  90 91  91 92  92 93  93 94  94 95  95 96  96 97  97 98  98 99  99 100  100 101  101 102  102 103  103 104  104 105  105 106  106 107  107 108  108 109  109 110  110 111  111 112  112 113  113 114  114 115  115 116  116 117  117 118  118 119  119 120  120 121  121 122  122 123  123 124  124 125  125 126  126 127  127 128  128 129  129 130  130 131  131 132  132 133  133 134  134 135  135 136  136 137  137 138  138 139  139 140  140 141  141 142  142 143  143 144  144 145  145 146  146 147  147 148  148 149  149 150  150 151  151 152  152 153  153 154  154 155  155 156  156 157  157 158  158 159  159 160  160 161  161 162  162 163  163 164  164 165  165 166  166 167  167 168  168 169  169 170  170 171  171 172  172 173  173 174  174 175  175 176  176 177  177 178  178 179  179 180  180 181  181 182  182 183  183 184  184 185  185 186  186 187  187 188  188 189  189 190  190 191  191 192  192 193  193 194  194 195  195 196  196 197  197 198  198 199  199 200  </DataArray>
<DataArray  type="UInt32"  Name="offsets"  format="ascii">2 4 6 8 10 12 14 16 18 20 22 24 26 28 30 32 34 36 38 40 42 44 46 48 50 52 54 56 58 60 62 64 66 68 70 72 74 76 78 80 82 84 86 88 90 92 94 96 98 100 102 104 106 108 110 112 114 116 118 120 122 124 126 128 130 132 134 136 138 140 142 144 146 148 150 152 154 156 158 160 162 164 166 168 170 172 174 176 178 180 182 184 186 188 190 192 194 196 198 200 202 204 206 208 210 212 214 216 218 220 222 224 226 228 230 232 234 236 238 240 242 244 246 248 250 252 254 256 258 260 262 264 266 268 270 272 274 276 278 280 282 284 286 288 290 292 294 296 298 300 302 304 306 308 310 312 314 316 318 320 322 324 326 328 330 332 334 336 338 340 342 344 346 348 350 352 354 356 358 360 362 364 366 368 370 372 374 376 378 380 382 384 386 388 390 392 394 396 398 400 </DataArray>
<DataArray  type="UInt8"  Name="types"  format="ascii">3 3 3 3 3 3 3 3 3 3 3 3 3 3 3 3 3 3 3 3 3 3 3 3 3 3 3 3 3 3 3 3 3 3 3 3 3 3 3 3 3 3 3 3 3 3 3 3 3 3 3 3 3 3 3 3 3 3 3 3 3 3 3 3 3 3 3 3 3 3 3 3 3 3 3 3 3 3 3 3 3 3 3 3 3 3 3 3 3 3 3 3 3 3 3 3 3 3 3 3 3 3 3 3 3 3 3 3 3 3 3 3 3 3 3 3 3 3 3 3 3 3 3 3 3 3 3 3 3 3 3 3 3 3 3 3 3 3 3 3 3 3 3 3 3 3 3 3 3 3 3 3 3 3 3 3 3 3 3 3 3 3 3 3 3 3 3 3 3 3 3 3 3 3 3 3 3 3 3 3 3 3 3 3 3 3 3 3 3 3 3 3 3 3 3 3 3 3 3 3 </DataArray>
</Cells>
<PointData  Vectors="(h, u)"> 
<DataArray  type="Float64"  Name="(h, u)"  NumberOfComponents="3" format="ascii">9.9626605251355771e-01 0.0000000000000000e+00 0.0000000000000000e+00  9.9654151749160258e-01 -4.0376448370294813e-03 0.0000000000000000e+00  9.9741607505788399e-01 -8.8493584390789415e-03 0.0000000000000000e+00  9.9904637523485185e-01 -1.5321515930797338e-02 0.0000000000000000e+00  1.0017013478682344e+00 -2.4558218720068734e-02 0.0000000000000000e+00  1.0057795076368923e+00 -3.7955990180273631e-02 0.0000000000000000e+00  1.0117914338928249e+00 -5.7198202975718614e-02 0.0000000000000000e+00  1.0203080720275604e+00 -8.4076975843175972e-02 0.0000000000000000e+00  1.0318131480226913e+00 -1.2005558614505638e-01 0.0000000000000000e+00  1.0464883562166167e+00 -1.6557716584195281e-01 0.0000000000000000e+00  1.0639767035221732e+00 -2.1938509762160485e-01 0.0000000000000000e+00  1.0833044822787161e+00 -2.7832982555800401e-01 0.0000000000000000e+00  1.1030513046643602e+00 -3.3800931170044224e-01 0.0000000000000000e+00  1.1217421741350917e+00 -3.9399629479327403e-01 0.0000000000000000e+00  1.1382207387142069e+00 -4.4296980726313057e-01 0.0000000000000000e+00  1.1518472171656597e+00 -4.8320662290868877e-01 0.0000000000000000e+00  1.1624688480652616e+00 -5.1443597036746591e-01 0.0000000000000000e+00  1.1702824495946513e+00 -5.3736271918747669e-01 0.0000000000000000e+00  1.1756646292729469e+00 -5.5317881645664690e-01 0.0000000000000000e+00  1.1790521501363032e+00 -5.6319844145414732e-01 0.0000000000000000e+00  1.1808591512931506e+00 -5.6865254161708256e-01 0.0000000000000000e+00  1.1814473052378631e+00 -5.7059217612362945e-01 0.0000000000000000e+00  1.1811091960967539e+00 -5.6987038488392638e-01 0.0000000000000000e+00  1.1800776288526591e+00 -5.6715276606775722e-01 0.0000000000000000e+00  1.1785285690431677e+00 -5.6294981111107845e-01 0.0000000000000000e+00  1.1765973903405689e+00 -5.5764433980530170e-01 0.0000000000000000e+00  1.1743826519905816e+00 -5.5152344183912227e-01 0.0000000000000000e+00  1.1719599263507980e+00 -5.4479839094733151e-01 0.0000000000000000e+00  1.1693826340697675e+00 -5.3762683828625535e-01 0.0000000000000000e+00  1.1666925612081123e+00 -5.3012366264327038e-01 0.0000000000000000e+00  1.1639182109130137e+00 -5.2237514803112262e-01 0.0000000000000000e+00  1.1610829273074252e+00 -5.1444373886535655e-01 0.0000000000000000e+00  1.1582017704795764e+00 -5.0637712633422638e-01 0.0000000000000000e+00  1.1552881296682578e+00 -4.9820956991251503e-01 0.0000000000000000e+00  1.1523498654268773e+00 -4.8996796590713848e-01 0.0000000000000000e+00  1.1493949800778551e+00 -4.8167144072633833e-01 0.0000000000000000e+00  1.1464274753678518e+00 -4.7333561387682616e-01 0.0000000000000000e+00  1.1434524024783750e+00 -4.6497144944883845e-01 0.0000000000000000e+00  1.1404716860484172e+00 -4.5658836623090671e-01 0.0000000000000000e+00  1.1374887267669778e+00 -4.4819289856022115e-01 0.0000000000000000e+00  1.1345043278680973e+00 -4.3979098744770517e-01 0.0000000000000000e+00  1.1315209405970317e+00 -4.3138675720023983e-01 0.0000000000000000e+00  1.1285387660408666e+00 -4.2298415078351886e-01 0.0000000000000000e+00  1.1255596899886113e+00 -4.1458599439897043e-01 0.0000000000000000e+00  1.1225835988200215e+00 -4.0619505302442788e-01 0.0000000000000000e+00  1.1196120278739554e+00 -3.9781348123466681e-01 0.0000000000000000e+00  1.1166447117082929e+00 -3.8944333268091030e-01 0.0000000000000000e+00  1.1136829589971691e+00 -3.8108645342632885e-01 0.0000000000000000e+00  1.1107264473781198e+00 -3.7274446082151685e-01 0.0000000000000000e+00  1.1077763326557193e+00 -3.6441911011113370e-01 0.0000000000000000e+00  1.1048322927056407e+00 -3.5611175232335041e-01 0.0000000000000000e+00  1.1018953764925397e+00 -3.4782418785047392e-01 0.0000000000000000e+00  1.0989652980390585e+00 -3.3955761356939040e-01 0.0000000000000000e+00  1.0960430299870858e+00 -3.3131396441674449e-01 0.0000000000000000e+00  1.0931283464031634e+00 -3.2309436381916834e-01 0.0000000000000000e+00  1.0902221655739437e+00 -3.1490094394180312e-01 0.0000000000000000e+00  1.0873243388691918e+00 -3.0673481892359644e-01 0.0000000000000000e+00  1.0844357477920914e+00 -2.9859836548784563e-01 0.0000000000000000e+00  1.0815563349862309e+00 -2.9049274447623069e-01 0.0000000000000000e+00  1.0786869610837690e+00 -2.8242061538882302e-01 0.0000000000000000e+00  1.0758276730931828e+00 -2.7438323767551842e-01 0.0000000000000000e+00  1.0729793272330739e+00 -2.6638358526749839e-01 0.0000000000000000e+00  1.0701420893191855e+00 -2.5842306457104841e-01 0.0000000000000000e+00  1.0673168305256346e+00 -2.5050498800642701e-01 0.0000000000000000e+00  1.0645038539876006e+00 -2.4263095030592538e-01 0.0000000000000000e+00  1.0617040713040216e+00 -2.3480461339252484e-01 0.0000000000000000e+00  1.0589179493753074e+00 -2.2702778616554528e-01 0.0000000000000000e+00  1.0561464764434809e+00 -2.1930446673958739e-01 0.0000000000000000e+00  1.0533903231395001e+00 -2.1163667335895878e-01 0.0000000000000000e+00  1.0506506078685953e+00 -2.0402868432000093e-01 0.0000000000000000e+00  1.0479282659953912e+00 -1.9648266930054362e-01 0.0000000000000000e+00  1.0452246252110995e+00 -1.8900306285682675e-01 0.0000000000000000e+00  1.0425409764260700e+00 -1.8159204712293769e-01 0.0000000000000000e+00  1.0398789700172930e+00 -1.7425399278665829e-01 0.0000000000000000e+00  1.0372403808532862e+00 -1.6699084719562163e-01 0.0000000000000000e+00  1.0346273355017614e+00 -1.5980657876166190e-01 0.0000000000000000e+00  1.0320422613526736e+00 -1.5270253061842648e-01 0.0000000000000000e+00  1.0294879525159211e+00 -1.4568181189177123e-01 0.0000000000000000e+00  1.0269676889335859e+00 -1.3874468715093605e-01 0.0000000000000000e+00  1.0244851447927363e+00 -1.3189287100276770e-01 0.0000000000000000e+00  1.0220446581779319e+00 -1.2512503662613950e-01 0.0000000000000000e+00  1.0196509812044585e+00 -1.1844098606701292e-01 0.0000000000000000e+00  1.0173096755317974e+00 -1.1183737287334435e-01 0.0000000000000000e+00  1.0150267000008257e+00 -1.0531173319933496e-01 0.0000000000000000e+00  1.0128089045474127e+00 -9.8858520572336656e-02 0.0000000000000000e+00  1.0106634514583637e+00 -9.2472984213420789e-02 0.0000000000000000e+00  1.0085983823371323e+00 -8.6147600440250882e-02 0.0000000000000000e+00  1.0066218750994071e+00 -7.9875768167502734e-02 0.0000000000000000e+00  1.0047428666276632e+00 -7.3648688273679930e-02 0.0000000000000000e+00  1.0029701589484430e+00 -6.7458813227022046e-02 0.0000000000000000e+00  1.0013130921815632e+00 -6.1297179431755708e-02 0.0000000000000000e+00  9.9978052655237593e-01 -5.5156510049968549e-02 0.0000000000000000e+00  9.9838157159106899e-01 -4.9028962168501743e-02 0.0000000000000000e+00  9.9712448050055325e-01 -4.2908757962940365e-02 0.0000000000000000e+00  9.9601744727289943e-01 -3.6790287492306263e-02 0.0000000000000000e+00  9.9506745244192829e-01 -3.0670149524559268e-02 0.0000000000000000e+00  9.9428113761630199e-01 -2.4545562766401432e-02 0.0000000000000000e+00  9.9366363669373747e-01 -1.8415737546407962e-02 0.0000000000000000e+00  9.9321952936683355e-01 -1.2280589179350310e-02 0.0000000000000000e+00  9.9295168331927419e-01 -6.1414237387773076e-03 0.0000000000000000e+00  9.9286227943746563e-01 -9.8828991435502412e-16 0.0000000000000000e+00  9.9295168331927419e-01 6.1414237387787387e-03 0.0000000000000000e+00  9.9321952936683344e-01 1.2280589179347460e-02 0.0000000000000000e+00  9.9366363669373770e-01 1.8415737546408611e-02 0.0000000000000000e+00  9.9428113761630199e-01 2.4545562766397865e-02 0.0000000000000000e+00  9.9506745244192873e-01 3.0670149524559775e-02 0.0000000000000000e+00  9.9601744727289943e-01 3.6790287492303245e-02 0.0000000000000000e+00  9.9712448050055391e-01 4.2908757962940761e-02 0.0000000000000000e+00  9.9838157159106899e-01 4.9028962168498634e-02 0.0000000000000000e+00  9.9978052655237648e-01 5.5156510049969278e-02 0.0000000000000000e+00  1.0013130921815634e+00 6.1297179431751926e-02 0.0000000000000000e+00  1.0029701589484432e+00 6.7458813227023989e-02 0.0000000000000000e+00  1.0047428666276632e+00 7.3648688273677904e-02 0.0000000000000000e+00  1.0066218750994071e+00 7.9875768167504746e-02 0.0000000000000000e+00  1.0085983823371323e+00 8.6147600440249300e-02 0.0000000000000000e+00  1.0106634514583634e+00 9.2472984213422260e-02 0.0000000000000000e+00  1.0128089045474127e+00 9.8858520572335143e-02 0.0000000000000000e+00  1.0150267000008255e+00 1.0531173319933645e-01 0.0000000000000000e+00  1.0173096755317976e+00 1.1183737287334380e-01 0.0000000000000000e+00  1.0196509812044583e+00 1.1844098606701463e-01 0.0000000000000000e+00  1.0220446581779321e+00 1.2512503662613805e-01 0.0000000000000000e+00  1.0244851447927363e+00 1.3189287100276900e-01 0.0000000000000000e+00  1.0269676889335861e+00 1.3874468715093527e-01 0.0000000000000000e+00  1.0294879525159213e+00 1.4568181189177229e-01 0.0000000000000000e+00  1.0320422613526743e+00 1.5270253061842565e-01 0.0000000000000000e+00  1.0346273355017617e+00 1.5980657876166168e-01 0.0000000000000000e+00  1.0372403808532868e+00 1.6699084719561927e-01 0.0000000000000000e+00  1.0398789700172935e+00 1.7425399278665712e-01 0.0000000000000000e+00  1.0425409764260707e+00 1.8159204712293614e-01 0.0000000000000000e+00  1.0452246252110999e+00 1.8900306285682542e-01 0.0000000000000000e+00  1.0479282659953917e+00 1.9648266930054209e-01 0.0000000000000000e+00  1.0506506078685955e+00 2.0402868431999971e-01 0.0000000000000000e+00  1.0533903231395008e+00 2.1163667335895750e-01 0.0000000000000000e+00  1.0561464764434811e+00 2.1930446673958726e-01 0.0000000000000000e+00  1.0589179493753078e+00 2.2702778616554556e-01 0.0000000000000000e+00  1.0617040713040216e+00 2.3480461339252592e-01 0.0000000000000000e+00  1.0645038539876008e+00 2.4263095030592541e-01 0.0000000000000000e+00  1.0673168305256344e+00 2.5050498800642840e-01 0.0000000000000000e+00  1.0701420893191853e+00 2.5842306457104813e-01 0.0000000000000000e+00  1.0729793272330741e+00 2.6638358526749861e-01 0.0000000000000000e+00  1.0758276730931826e+00 2.7438323767551703e-01 0.0000000000000000e+00  1.0786869610837688e+00 2.8242061538882340e-01 0.0000000000000000e+00  1.0815563349862305e+00 2.9049274447623019e-01 0.0000000000000000e+00  1.0844357477920910e+00 2.9859836548784480e-01 0.0000000000000000e+00  1.0873243388691916e+00 3.0673481892359483e-01 0.0000000000000000e+00  1.0902221655739435e+00 3.1490094394180163e-01 0.0000000000000000e+00  1.0931283464031631e+00 3.2309436381916773e-01 0.0000000000000000e+00  1.0960430299870858e+00 3.3131396441674338e-01 0.0000000000000000e+00  1.0989652980390583e+00 3.3955761356939007e-01 0.0000000000000000e+00  1.1018953764925392e+00 3.4782418785047370e-01 0.0000000000000000e+00  1.1048322927056400e+00 3.5611175232334968e-01 0.0000000000000000e+00  1.1077763326557184e+00 3.6441911011113454e-01 0.0000000000000000e+00  1.1107264473781187e+00 3.7274446082151674e-01 0.0000000000000000e+00  1.1136829589971680e+00 3.8108645342632835e-01 0.0000000000000000e+00  1.1166447117082920e+00 3.8944333268091019e-01 0.0000000000000000e+00  1.1196120278739545e+00 3.9781348123466781e-01 0.0000000000000000e+00  1.1225835988200208e+00 4.0619505302442804e-01 0.0000000000000000e+00  1.1255596899886107e+00 4.1458599439897065e-01 0.0000000000000000e+00  1.1285387660408663e+00 4.2298415078351842e-01 0.0000000000000000e+00  1.1315209405970310e+00 4.3138675720023900e-01 0.0000000000000000e+00  1.1345043278680966e+00 4.3979098744770528e-01 0.0000000000000000e+00  1.1374887267669771e+00 4.4819289856022071e-01 0.0000000000000000e+00  1.1404716860484168e+00 4.5658836623090687e-01 0.0000000000000000e+00  1.1434524024783743e+00 4.6497144944883806e-01 0.0000000000000000e+00  1.1464274753678518e+00 4.7333561387682577e-01 0.0000000000000000e+00  1.1493949800778551e+00 4.8167144072633811e-01 0.0000000000000000e+00  1.1523498654268780e+00 4.8996796590713748e-01 0.0000000000000000e+00  1.1552881296682580e+00 4.9820956991251492e-01 0.0000000000000000e+00  1.1582017704795773e+00 5.0637712633422416e-01 0.0000000000000000e+00  1.1610829273074257e+00 5.1444373886535577e-01 0.0000000000000000e+00  1.1639182109130144e+00 5.2237514803112017e-01 0.0000000000000000e+00  1.1666925612081127e+00 5.3012366264326949e-01 0.0000000000000000e+00  1.1693826340697679e+00 5.3762683828625335e-01 0.0000000000000000e+00  1.1719599263507983e+00 5.4479839094733140e-01 0.0000000000000000e+00  1.1743826519905818e+00 5.5152344183912083e-01 0.0000000000000000e+00  1.1765973903405693e+00 5.5764433980530170e-01 0.0000000000000000e+00  1.1785285690431682e+00 5.6294981111107811e-01 0.0000000000000000e+00  1.1800776288526595e+00 5.6715276606775822e-01 0.0000000000000000e+00  1.1811091960967544e+00 5.6987038488392650e-01 0.0000000000000000e+00  1.1814473052378636e+00 5.7059217612363011e-01 0.0000000000000000e+00  1.1808591512931508e+00 5.6865254161708345e-01 0.0000000000000000e+00  1.1790521501363034e+00 5.6319844145414766e-01 0.0000000000000000e+00  1.1756646292729469e+00 5.5317881645664690e-01 0.0000000000000000e+00  1.1702824495946516e+00 5.3736271918747724e-01 0.0000000000000000e+00  1.1624688480652619e+00 5.1443597036746636e-01 0.0000000000000000e+00  1.1518472171656604e+00 4.8320662290868971e-01 0.0000000000000000e+00  1.1382207387142067e+00 4.4296980726312912e-01 0.0000000000000000e+00  1.1217421741350921e+00 3.9399629479327453e-01 0.0000000000000000e+00  1.1030513046643604e+00 3.3800931170044163e-01 0.0000000000000000e+00  1.0833044822787170e+00 2.7832982555800623e-01 0.0000000000000000e+00  1.0639767035221734e+00 2.1938509762160499e-01 0.0000000000000000e+00  1.0464883562166167e+00 1.6557716584195242e-01 0.0000000000000000e+00  1.0318131480226918e+00 1.2005558614505596e-01 0.0000000000000000e+00  1.0203080720275606e+00 8.4076975843176374e-02 0.0000000000000000e+00  1.0117914338928253e+00 5.7198202975718093e-02 0.0000000000000000e+00  1.0057795076368923e+00 3.7955990180274304e-02 0.0000000000000000e+00  1.0017013478682344e+00 2.4558218720068224e-02 0.0000000000000000e+00  9.9904637523485162e-01 1.5321515930797853e-02 0.0000000000000000e+00  9.9741607505788377e-01 8.8493584390788149e-03 0.0000000000000000e+00  9.9654151749160258e-01 4.0376448370296998e-03 0.0000000000000000e+00  9.9626605251355727e-01 0.0000000000000000e+00 0.0000000000000000e+00  </DataArray> 
</PointData> 
</Piece>
</UnstructuredGrid>
</VTKFile>