<?xml version="1.0"?>
<VTKFile type="UnstructuredGrid"  version="0.1"  >
<UnstructuredGrid>
<Piece  NumberOfPoints="201" NumberOfCells="200">
<Points>
<DataArray  type="Float64"  NumberOfComponents="3"  format="ascii">-5 0 0  -4.95 0 0  -4.9 0 0  -4.85 0 0  -4.8 0 0  -4.75 0 0  -4.7 0 0  -4.65 0 0  -4.6 0 0  -4.55 0 0  -4.5 0 0  -4.45 0 0  -4.4 0 0  -4.35 0 0  -4.3 0 0  -4.25 0 0  -4.2 0 0  -4.15 0 0  -4.1 0 0  -4.05 0 0  -4 0 0  -3.95 0 0  -3.9 0 0  -3.85 0 0  -3.8 0 0  -3.75 0 0  -3.7 0 0  -3.65 0 0  -3.6 0 0  -3.55 0 0  -3.5 0 0  -3.45 0 0  -3.4 0 0  -3.35 0 0  -3.3 0 0  -3.25 0 0  -3.2 0 0  -3.15 0 0  -3.1 0 0  -3.05 0 0  -3 0 0  -2.95 0 0  -2.9 0 0  -2.85 0 0  -2.8 0 0  -2.75 0 0  -2.7 0 0  -2.65 0 0  -2.6 0 0  -2.55 0 0  -2.5 0 0  -2.45 0 0  -2.4 0 0  -2.35 0 0  -2.3 0 0  -2.25 0 0  -2.2 0 0  -2.15 0 0  -2.1 0 0  -2.05 0 0  -2 0 0  -1.95 0 0  -1.9 0 0  -1.85 0 0  -1.8 0 0  -1.75 0 0  -1.7 0 0  -1.65 0 0  -1.6 0 0  -1.55 0 0  -1.5 0 0  -1.45 0 0  -1.4 0 0  -1.35 0 0  -1.3 0 0  -1.25 0 0  -1.2 0 0  -1.15 0 0  -1.1 0 0  -1.05 0 0  -1 0 0  -0.9500000000000002 0 0  -0.9000000000000004 0 0  -0.8499999999999996 0 0  -0.7999999999999998 0 0  -0.75 0 0  -0.7000000000000002 0 0  -0.6500000000000004 0 0  -0.5999999999999996 0 0  -0.5499999999999998 0 0  -0.5 0 0  -0.4500000000000002 0 0  -0.4000000000000004 0 0  -0.3499999999999996 0 0  -0.2999999999999998 0 0  -0.25 0 0  -0.2000000000000002 0 0  -0.1500000000000004 0 0  -0.09999999999999964 0 0  -0.04999999999999982 0 0  0 0 0  0.04999999999999982 0 0  0.09999999999999964 0 0  0.1500000000000004 0 0  0.2000000000000002 0 0  0.25 0 0  0.2999999999999998 0 0  0.3499999999999996 0 0  0.4000000000000004 0 0  0.4500000000000002 0 0  0.5 0 0  0.5499999999999998 0 0  0.5999999999999996 0 0  0.6500000000000004 0 0  0.7000000000000002 0 0  0.75 0 0  0.7999999999999998 0 0  0.8499999999999996 0 0  0.9000000000000004 0 0  0.9500000000000002 0 0  1 0 0  1.05 0 0  1.1 0 0  1.15 0 0  1.2 0 0  1.25 0 0  1.3 0 0  1.35 0 0  1.4 0 0  1.45 0 0  1.5 0 0  1.55 0 0  1.6 0 0  1.65 0 0  1.7 0 0  1.75 0 0  1.8 0 0  1.85 0 0  1.9 0 0  1.95 0 0  2 0 0  2.05 0 0  2.1 0 0  2.15 0 0  2.2 0 0  2.25 0 0  2.3 0 0  2.35 0 0  2.4 0 0  2.45 0 0  2.5 0 0  2.55 0 0  2.6 0 0  2.65 0 0  2.7 0 0  2.75 0 0  2.8 0 0  2.85 0 0  2.9 0 0  2.95 0 0  3 0 0  3.050000000000001 0 0  3.1 0 0  3.15 0 0  3.199999999999999 0 0  3.25 0 0  3.300000000000001 0 0  3.35 0 0  3.4 0 0  3.449999999999999 0 0  3.5 0 0  3.550000000000001 0 0  3.6 0 0  3.65 0 0  3.699999999999999 0 0  3.75 0 0  3.800000000000001 0 0  3.85 0 0  3.9 0 0  3.949999999999999 0 0  4 0 0  4.050000000000001 0 0  4.1 0 0  4.15 0 0  4.199999999999999 0 0  4.25 0 0  4.300000000000001 0 0  4.35 0 0  4.4 0 0  4.449999999999999 0 0  4.5 0 0  4.550000000000001 0 0  4.6 0 0  4.65 0 0  4.699999999999999 0 0  4.75 0 0  4.800000000000001 0 0  4.85 0 0  4.9 0 0  4.949999999999999 0 0  5 0 0  </DataArray>
</Points>
<Cells>
<DataArray  type="UInt32"  Name="connectivity"  format="ascii">0 1  1 2  2 3  3 4  4 5  5 6  6 7  7 8  8 9  9 10  10 11  11 12  12 13  13 14  14 15  15 16  16 17  17 18  18 19  19 20  20 21  21 22  22 23  23 24  24 25  25 26  26 27  27 28  28 29  29 30  30 31  31 32  32 33  33 34  34 35  35 36  36 37  37 38  38 39  39 40  40 41  41 42  42 43  43 44  44 45  45 46  46 47  47 48  48 49  49 50  50 51  51 52  52 53  53 54  54 55  55 56  56 57  57 58  58 59  59 60  60 61  61 62  62 63  63 64  64 65  65 66  66 67  67 68  68 69  69 70  70 71  71 72  72 73  73 74  74 75  75 76  76 77  77 78  78 79  79 80  80 81  81 82  82 83  83 84  84 85  85 86  86 87  87 88  88 89  89 90  90 91  91 92  92 93  93 94  94 95  95 96  96 97  97 98  98 99  99 100  100 101  101 102  102 103  103 104  104 105  105 106  106 107  107 108  108 109  109 110  110 111  111 112  112 113  113 114  114 115  115 116  116 117  117 118  118 119  119 120  120 121  121 122  122 123  123 124  124 125  125 126  126 127  127 128  128 129  129 130  130 131  131 132  132 133  133 134  134 135  135 136  136 137  137 138  138 139  139 140  140 141  141 142  142 143  143 144  144 145  145 146  146 147  147 148  148 149  149 150  150 151  151 152  152 153  153 154  154 155  155 156  156 157  157 158  158 159  159 160  160 161  161 162  162 163  163 164  164 165  165 166  166 167  167 168  168 169  169 170  170 171  171 172  172 173  173 174  174 175  175 176  176 177  177 178  178 179  179 180  180 181  181 182  182 183  183 184  184 185  185 186  186 187  187 188  188 189  189 190  190 191  191 192  192 193  193 194  194 195  195 196  196 197  197 198  198 199  199 200  </DataArray>
<DataArray  type="UInt32"  Name="offsets"  format="ascii">2 4 6 8 10 12 14 16 18 20 22 24 26 28 30 32 34 36 38 40 42 44 46 48 50 52 54 56 58 60 62 64 66 68 70 72 74 76 78 80 82 84 86 88 90 92 94 96 98 100 102 104 106 108 110 112 114 116 118 120 122 124 126 128 130 132 134 136 138 140 142 144 146 148 150 152 154 156 158 160 162 164 166 168 170 172 174 176 178 180 182 184 186 188 190 192 194 196 198 200 202 204 206 208 210 212 214 216 218 220 222 224 226 228 230 232 234 236 238 240 242 244 246 248 250 252 254 256 258 260 262 264 266 268 270 272 274 276 278 280 282 284 286 288 290 292 294 296 298 300 302 304 306 308 310 312 314 316 318 320 322 324 326 328 330 332 334 336 338 340 342 344 346 348 350 352 354 356 358 360 362 364 366 368 370 372 374 376 378 380 382 384 386 388 390 392 394 396 398 400 </DataArray>
<DataArray  type="UInt8"  Name="types"  format="ascii">3 3 3 3 3 3 3 3 3 3 3 3 3 3 3 3 3 3 3 3 3 3 3 3 3 3 3 3 3 3 3 3 3 3 3 3 3 3 3 3 3 3 3 3 3 3 3 3 3 3 3 3 3 3 3 3 3 3 3 3 3 3 3 3 3 3 3 3 3 3 3 3 3 3 3 3 3 3 3 3 3 3 3 3 3 3 3 3 3 3 3 3 3 3 3 3 3 3 3 3 3 3 3 3 3 3 3 3 3 3 3 3 3 3 3 3 3 3 3 3 3 3 3 3 3 3 3 3 3 3 3 3 3 3 3 3 3 3 3 3 3 3 3 3 3 3 3 3 3 3 3 3 3 3 3 3 3 3 3 3 3 3 3 3 3 3 3 3 3 3 3 3 3 3 3 3 3 3 3 3 3 3 3 3 3 3 3 3 3 3 3 3 3 3 3 3 3 3 3 3 </DataArray>
</Cells>
<PointData  Vectors="(h, u)"> 
<DataArray  type="Float64"  Name="(h, u)"  NumberOfComponents="3" format="ascii">9.8920136652340906e-01 0.0000000000000000e+00 0.0000000000000000e+00  9.8920000205927883e-01 -4.4197292617782264e-04 0.0000000000000000e+00  9.8919450012477173e-01 -8.8425312950892018e-04 0.0000000000000000e+00  9.8918625610574196e-01 -1.3274839372510758e-03 0.0000000000000000e+00  9.8917385398097868e-01 -1.7716412898035293e-03 0.0000000000000000e+00  9.8915867015595005e-01 -2.2177072683201432e-03 0.0000000000000000e+00  9.8913928659338335e-01 -2.6653332520157318e-03 0.0000000000000000e+00  9.8911705482068091e-01 -3.1158408004149851e-03 0.0000000000000000e+00  9.8909055997447626e-01 -3.5685656104317508e-03 0.0000000000000000e+00  9.8906112282340175e-01 -4.0251674312835476e-03 0.0000000000000000e+00  9.8902733656327879e-01 -4.4846772163573655e-03 0.0000000000000000e+00  9.8899048548299517e-01 -4.9490893979249658e-03 0.0000000000000000e+00  9.8894917547174466e-01 -5.4171428654064806e-03 0.0000000000000000e+00  9.8890464906579734e-01 -5.8911603464079738e-03 0.0000000000000000e+00  9.8885552951791000e-01 -6.3696020176265602e-03 0.0000000000000000e+00  9.8880301344518895e-01 -6.8551078120281826e-03 0.0000000000000000e+00  9.8874574702802942e-01 -7.3458703294094901e-03 0.0000000000000000e+00  9.8868487941356131e-01 -7.8448264250473715e-03 0.0000000000000000e+00  9.8861908827423572e-01 -8.3499031975365640e-03 0.0000000000000000e+00  9.8854947961813799e-01 -8.8642949364987761e-03 0.0000000000000000e+00  9.8847477870727507e-01 -9.3856417383832557e-03 0.0000000000000000e+00  9.8839606508899058e-01 -9.9173165502304868e-03 0.0000000000000000e+00  9.8831214388846911e-01 -1.0456599888505617e-02 0.0000000000000000e+00  9.8822410868310406e-01 -1.1006889450423369e-02 0.0000000000000000e+00  9.8813090738411979e-01 -1.1564936602735590e-02 0.0000000000000000e+00  9.8803372965628167e-01 -1.2133879067154503e-02 0.0000000000000000e+00  9.8793178046373242e-01 -1.2709606915055656e-02 0.0000000000000000e+00  9.8782649209192053e-01 -1.3294510349946774e-02 0.0000000000000000e+00  9.8771751571591038e-01 -1.3883048772578855e-02 0.0000000000000000e+00  9.8760675897362504e-01 -1.4476106167127084e-02 0.0000000000000000e+00  9.8749459977376541e-01 -1.5065852244432474e-02 0.0000000000000000e+00  9.8738374677479457e-01 -1.5650613778338266e-02 0.0000000000000000e+00  9.8727566849077886e-01 -1.6219147014021065e-02 0.0000000000000000e+00  9.8717426499653915e-01 -1.6765967510483405e-02 0.0000000000000000e+00  9.8708248965857759e-01 -1.7275196675363338e-02 0.0000000000000000e+00  9.8700580809562621e-01 -1.7736338362226406e-02 0.0000000000000000e+00  9.8694897401529635e-01 -1.8127905679633054e-02 0.0000000000000000e+00  9.8691924261995101e-01 -1.8433668488405434e-02 0.0000000000000000e+00  9.8692325471682985e-01 -1.8626282298450599e-02 0.0000000000000000e+00  9.8696997596816693e-01 -1.8684026257862706e-02 0.0000000000000000e+00  9.8706765365592375e-01 -1.8574615444822543e-02 0.0000000000000000e+00  9.8722647688193765e-01 -1.8272382941446345e-02 0.0000000000000000e+00  9.8745559994569465e-01 -1.7742354142720369e-02 0.0000000000000000e+00  9.8776555750706674e-01 -1.6957712164581057e-02 0.0000000000000000e+00  9.8816538645025220e-01 -1.5884083218577177e-02 0.0000000000000000e+00  9.8866486727375147e-01 -1.4497015786162954e-02 0.0000000000000000e+00  9.8927180231744871e-01 -1.2766335818175167e-02 0.0000000000000000e+00  9.8999417019175306e-01 -1.0673333065203790e-02 0.0000000000000000e+00  9.9083761666438863e-01 -8.1950486206551921e-03 0.0000000000000000e+00  9.9180759496698256e-01 -5.3209283143435537e-03 0.0000000000000000e+00  9.9290709885792594e-01 -2.0370069688705208e-03 0.0000000000000000e+00  9.9413883092125688e-01 1.6580638945007465e-03 0.0000000000000000e+00  9.9550317731729432e-01 5.7688105817609980e-03 0.0000000000000000e+00  9.9700042750748585e-01 1.0287441624769319e-02 0.0000000000000000e+00  9.9862899096306568e-01 1.5209301834480814e-02 0.0000000000000000e+00  1.0003877244349251e+00 2.0517572870777497e-02 0.0000000000000000e+00  1.0022744712024458e+00 2.6197753984485005e-02 0.0000000000000000e+00  1.0042887038487414e+00 3.2221739649896761e-02 0.0000000000000000e+00  1.0064307308074867e+00 3.8559927734629011e-02 0.0000000000000000e+00  1.0087053026506076e+00 4.5162572850239835e-02 0.0000000000000000e+00  1.0111225553124705e+00 5.1966005122894392e-02 0.0000000000000000e+00  1.0137043996547128e+00 5.8865673352034686e-02 0.0000000000000000e+00  1.0164901361554557e+00 6.5707388285709017e-02 0.0000000000000000e+00  1.0195503087554865e+00 7.2237893473718021e-02 0.0000000000000000e+00  1.0230040446319941e+00 7.8059792546500459e-02 0.0000000000000000e+00  1.0270501927003644e+00 8.2530463426684506e-02 0.0000000000000000e+00  1.0320076657789645e+00 8.4648004151994652e-02 0.0000000000000000e+00  1.0383703767245327e+00 8.2882834094704302e-02 0.0000000000000000e+00  1.0468543528521075e+00 7.5052875526593482e-02 0.0000000000000000e+00  1.0583994129615661e+00 5.8338175404971125e-02 0.0000000000000000e+00  1.0740327766224269e+00 2.9742877739238480e-02 0.0000000000000000e+00  1.0945105181350796e+00 -1.2778488021017845e-02 0.0000000000000000e+00  1.1197689948094389e+00 -6.8664626106511542e-02 0.0000000000000000e+00  1.1485142725491260e+00 -1.3364954084771652e-01 0.0000000000000000e+00  1.1783929899153631e+00 -2.0051579031051775e-01 0.0000000000000000e+00  1.2067993231346894e+00 -2.6167811483237646e-01 0.0000000000000000e+00  1.2317614381619590e+00 -3.1173830339205916e-01 0.0000000000000000e+00  1.2523465412651844e+00 -3.4844925090183665e-01 0.0000000000000000e+00  1.2685295821926597e+00 -3.7212614525364907e-01 0.0000000000000000e+00  1.2808295139872732e+00 -3.8451605781337234e-01 0.0000000000000000e+00  1.2899707303875692e+00 -3.8782840991992040e-01 0.0000000000000000e+00  1.2966721914682200e+00 -3.8417564163537443e-01 0.0000000000000000e+00  1.3015488530621591e+00 -3.7532651571321518e-01 0.0000000000000000e+00  1.3050875282041656e+00 -3.6266591559612382e-01 0.0000000000000000e+00  1.3076552599014482e+00 -3.4722968431920465e-01 0.0000000000000000e+00  1.3095223860071958e+00 -3.2977918925715688e-01 0.0000000000000000e+00  1.3108841060930376e+00 -3.1086299424509212e-01 0.0000000000000000e+00  1.3118812714279415e+00 -2.9087827662998744e-01 0.0000000000000000e+00  1.3126142615182954e+00 -2.7010876009355150e-01 0.0000000000000000e+00  1.3131556033844540e+00 -2.4876110806777821e-01 0.0000000000000000e+00  1.3135567740942300e+00 -2.2698331377431047e-01 0.0000000000000000e+00  1.3138554190183080e+00 -2.0488499854207129e-01 0.0000000000000000e+00  1.3140780856982592e+00 -1.8254521284762512e-01 0.0000000000000000e+00  1.3142445877365598e+00 -1.6002398881162838e-01 0.0000000000000000e+00  1.3143686368978889e+00 -1.3736513721156945e-01 0.0000000000000000e+00  1.3144607831722075e+00 -1.1460309136372411e-01 0.0000000000000000e+00  1.3145279780332031e+00 -9.1763590884051768e-02 0.0000000000000000e+00  1.3145758063397501e+00 -6.8867843646323909e-02 0.0000000000000000e+00  1.3146074945764372e+00 -4.5932540289699293e-02 0.0000000000000000e+00  1.3146257774270398e+00 -2.2972348946182119e-02 0.0000000000000000e+00  1.3146316011027779e+00 5.8906211636949583e-16 0.0000000000000000e+00  1.3146257774270398e+00 2.2972348946181984e-02 0.0000000000000000e+00  1.3146074945764372e+00 4.5932540289700688e-02 0.0000000000000000e+00  1.3145758063397501e+00 6.8867843646323243e-02 0.0000000000000000e+00  1.3145279780332033e+00 9.1763590884051449e-02 0.0000000000000000e+00  1.3144607831722079e+00 1.1460309136372336e-01 0.0000000000000000e+00  1.3143686368978891e+00 1.3736513721156932e-01 0.0000000000000000e+00  1.3142445877365605e+00 1.6002398881162785e-01 0.0000000000000000e+00  1.3140780856982595e+00 1.8254521284762379e-01 0.0000000000000000e+00  1.3138554190183087e+00 2.0488499854206982e-01 0.0000000000000000e+00  1.3135567740942302e+00 2.2698331377430855e-01 0.0000000000000000e+00  1.3131556033844549e+00 2.4876110806777602e-01 0.0000000000000000e+00  1.3126142615182954e+00 2.7010876009355056e-01 0.0000000000000000e+00  1.3118812714279420e+00 2.9087827662998522e-01 0.0000000000000000e+00  1.3108841060930374e+00 3.1086299424509101e-01 0.0000000000000000e+00  1.3095223860071961e+00 3.2977918925715466e-01 0.0000000000000000e+00  1.3076552599014477e+00 3.4722968431920354e-01 0.0000000000000000e+00  1.3050875282041661e+00 3.6266591559612049e-01 0.0000000000000000e+00  1.3015488530621591e+00 3.7532651571321346e-01 0.0000000000000000e+00  1.2966721914682207e+00 3.8417564163537210e-01 0.0000000000000000e+00  1.2899707303875689e+00 3.8782840991992062e-01 0.0000000000000000e+00  1.2808295139872743e+00 3.8451605781337111e-01 0.0000000000000000e+00  1.2685295821926599e+00 3.7212614525365073e-01 0.0000000000000000e+00  1.2523465412651857e+00 3.4844925090183554e-01 0.0000000000000000e+00  1.2317614381619588e+00 3.1173830339206166e-01 0.0000000000000000e+00  1.2067993231346910e+00 2.6167811483237635e-01 0.0000000000000000e+00  1.1783929899153631e+00 2.0051579031052091e-01 0.0000000000000000e+00  1.1485142725491273e+00 1.3364954084771868e-01 0.0000000000000000e+00  1.1197689948094385e+00 6.8664626106512916e-02 0.0000000000000000e+00  1.0945105181350807e+00 1.2778488021019295e-02 0.0000000000000000e+00  1.0740327766224267e+00 -2.9742877739237776e-02 0.0000000000000000e+00  1.0583994129615668e+00 -5.8338175404970563e-02 0.0000000000000000e+00  1.0468543528521068e+00 -7.5052875526592483e-02 0.0000000000000000e+00  1.0383703767245334e+00 -8.2882834094704746e-02 0.0000000000000000e+00  1.0320076657789639e+00 -8.4648004151994291e-02 0.0000000000000000e+00  1.0270501927003648e+00 -8.2530463426685172e-02 0.0000000000000000e+00  1.0230040446319932e+00 -7.8059792546500598e-02 0.0000000000000000e+00  1.0195503087554867e+00 -7.2237893473719270e-02 0.0000000000000000e+00  1.0164901361554555e+00 -6.5707388285708962e-02 0.0000000000000000e+00  1.0137043996547130e+00 -5.8865673352036206e-02 0.0000000000000000e+00  1.0111225553124703e+00 -5.1966005122895016e-02 0.0000000000000000e+00  1.0087053026506079e+00 -4.5162572850241424e-02 0.0000000000000000e+00  1.0064307308074867e+00 -3.8559927734631086e-02 0.0000000000000000e+00  1.0042887038487414e+00 -3.2221739649898648e-02 0.0000000000000000e+00  1.0022744712024458e+00 -2.6197753984488214e-02 0.0000000000000000e+00  1.0003877244349251e+00 -2.0517572870779040e-02 0.0000000000000000e+00  9.9862899096306534e-01 -1.5209301834483222e-02 0.0000000000000000e+00  9.9700042750748563e-01 -1.0287441624769487e-02 0.0000000000000000e+00  9.9550317731729432e-01 -5.7688105817632644e-03 0.0000000000000000e+00  9.9413883092125699e-01 -1.6580638945004294e-03 0.0000000000000000e+00  9.9290709885792616e-01 2.0370069688687002e-03 0.0000000000000000e+00  9.9180759496698268e-01 5.3209283143440100e-03 0.0000000000000000e+00  9.9083761666438885e-01 8.1950486206530913e-03 0.0000000000000000e+00  9.8999417019175362e-01 1.0673333065204906e-02 0.0000000000000000e+00  9.8927180231744916e-01 1.2766335818173517e-02 0.0000000000000000e+00  9.8866486727375213e-01 1.4497015786164427e-02 0.0000000000000000e+00  9.8816538645025254e-01 1.5884083218576261e-02 0.0000000000000000e+00  9.8776555750706729e-01 1.6957712164582400e-02 0.0000000000000000e+00  9.8745559994569476e-01 1.7742354142719581e-02 0.0000000000000000e+00  9.8722647688193754e-01 1.8272382941448059e-02 0.0000000000000000e+00  9.8706765365592342e-01 1.8574615444822518e-02 0.0000000000000000e+00  9.8696997596816671e-01 1.8684026257864840e-02 0.0000000000000000e+00  9.8692325471682973e-01 1.8626282298449742e-02 0.0000000000000000e+00  9.8691924261995101e-01 1.8433668488407672e-02 0.0000000000000000e+00  9.8694897401529591e-01 1.8127905679632905e-02 0.0000000000000000e+00  9.8700580809562621e-01 1.7736338362227537e-02 0.0000000000000000e+00  9.8708248965857748e-01 1.7275196675363015e-02 0.0000000000000000e+00  9.8717426499653937e-01 1.6765967510484519e-02 0.0000000000000000e+00  9.8727566849077897e-01 1.6219147014021131e-02 0.0000000000000000e+00  9.8738374677479501e-01 1.5650613778340015e-02 0.0000000000000000e+00  9.8749459977376552e-01 1.5065852244433355e-02 0.0000000000000000e+00  9.8760675897362526e-01 1.4476106167128933e-02 0.0000000000000000e+00  9.8771751571591049e-01 1.3883048772579948e-02 0.0000000000000000e+00  9.8782649209192097e-01 1.3294510349948269e-02 0.0000000000000000e+00  9.8793178046373265e-01 1.2709606915056284e-02 0.0000000000000000e+00  9.8803372965628200e-01 1.2133879067155509e-02 0.0000000000000000e+00  9.8813090738412002e-01 1.1564936602735821e-02 0.0000000000000000e+00  9.8822410868310440e-01 1.1006889450424554e-02 0.0000000000000000e+00  9.8831214388846944e-01 1.0456599888505575e-02 0.0000000000000000e+00  9.8839606508899092e-01 9.9173165502318434e-03 0.0000000000000000e+00  9.8847477870727540e-01 9.3856417383831863e-03 0.0000000000000000e+00  9.8854947961813844e-01 8.8642949364989131e-03 0.0000000000000000e+00  9.8861908827423628e-01 8.3499031975361043e-03 0.0000000000000000e+00  9.8868487941356142e-01 7.8448264250475155e-03 0.0000000000000000e+00  9.8874574702802986e-01 7.3458703294092560e-03 0.0000000000000000e+00  9.8880301344518884e-01 6.8551078120287273e-03 0.0000000000000000e+00  9.8885552951791011e-01 6.3696020176263737e-03 0.0000000000000000e+00  9.8890464906579689e-01 5.8911603464085038e-03 0.0000000000000000e+00  9.8894917547174443e-01 5.4171428654063974e-03 0.0000000000000000e+00  9.8899048548299451e-01 4.9490893979255469e-03 0.0000000000000000e+00  9.8902733656327857e-01 4.4846772163572744e-03 0.0000000000000000e+00  9.8906112282340131e-01 4.0251674312838373e-03 0.0000000000000000e+00  9.8909055997447615e-01 3.5685656104312629e-03 0.0000000000000000e+00  9.8911705482068057e-01 3.1158408004153051e-03 0.0000000000000000e+00  9.8913928659338302e-01 2.6653332520150466e-03 0.0000000000000000e+00  9.8915867015594972e-01 2.2177072683197230e-03 0.0000000000000000e+00  9.8917385398097879e-01 1.7716412898030915e-03 0.0000000000000000e+00  9.8918625610574151e-01 1.3274839372507550e-03 0.0000000000000000e+00  9.8919450012477206e-01 8.8425312950822423e-04 0.0000000000000000e+00  9.8920000205927883e-01 4.4197292617796251e-04 0.0000000000000000e+00  9.8920136652340929e-01 0.0000000000000000e+00 0.0000000000000000e+00  </DataArray> 
</PointData> 
</Piece>
</UnstructuredGrid>
</VTKFile>