<?xml version="1.0"?>
<VTKFile type="UnstructuredGrid"  version="0.1"  >
<UnstructuredGrid>
<Piece  NumberOfPoints="201" NumberOfCells="200">
<Points>
<DataArray  type="Float64"  NumberOfComponents="3"  format="ascii">-5 0 0  -4.95 0 0  -4.9 0 0  -4.85 0 0  -4.8 0 0  -4.75 0 0  -4.7 0 0  -4.65 0 0  -4.6 0 0  -4.55 0 0  -4.5 0 0  -4.45 0 0  -4.4 0 0  -4.35 0 0  -4.3 0 0  -4.25 0 0  -4.2 0 0  -4.15 0 0  -4.1 0 0  -4.05 0 0  -4 0 0  -3.95 0 0  -3.9 0 0  -3.85 0 0  -3.8 0 0  -3.75 0 0  -3.7 0 0  -3.65 0 0  -3.6 0 0  -3.55 0 0  -3.5 0 0  -3.45 0 0  -3.4 0 0  -3.35 0 0  -3.3 0 0  -3.25 0 0  -3.2 0 0  -3.15 0 0  -3.1 0 0  -3.05 0 0  -3 0 0  -2.95 0 0  -2.9 0 0  -2.85 0 0  -2.8 0 0  -2.75 0 0  -2.7 0 0  -2.65 0 0  -2.6 0 0  -2.55 0 0  -2.5 0 0  -2.45 0 0  -2.4 0 0  -2.35 0 0  -2.3 0 0  -2.25 0 0  -2.2 0 0  -2.15 0 0  -2.1 0 0  -2.05 0 0  -2 0 0  -1.95 0 0  -1.9 0 0  -1.85 0 0  -1.8 0 0  -1.75 0 0  -1.7 0 0  -1.65 0 0  -1.6 0 0  -1.55 0 0  -1.5 0 0  -1.45 0 0  -1.4 0 0  -1.35 0 0  -1.3 0 0  -1.25 0 0  -1.2 0 0  -1.15 0 0  -1.1 0 0  -1.05 0 0  -1 0 0  -0.9500000000000002 0 0  -0.9000000000000004 0 0  -0.8499999999999996 0 0  -0.7999999999999998 0 0  -0.75 0 0  -0.7000000000000002 0 0  -0.6500000000000004 0 0  -0.5999999999999996 0 0  -0.5499999999999998 0 0  -0.5 0 0  -0.4500000000000002 0 0  -0.4000000000000004 0 0  -0.3499999999999996 0 0  -0.2999999999999998 0 0  -0.25 0 0  -0.2000000000000002 0 0  -0.1500000000000004 0 0  -0.09999999999999964 0 0  -0.04999999999999982 0 0  0 0 0  0.04999999999999982 0 0  0.09999999999999964 0 0  0.1500000000000004 0 0  0.2000000000000002 0 0  0.25 0 0  0.2999999999999998 0 0  0.3499999999999996 0 0  0.4000000000000004 0 0  0.4500000000000002 0 0  0.5 0 0  0.5499999999999998 0 0  0.5999999999999996 0 0  0.6500000000000004 0 0  0.7000000000000002 0 0  0.75 0 0  0.7999999999999998 0 0  0.8499999999999996 0 0  0.9000000000000004 0 0  0.9500000000000002 0 0  1 0 0  1.05 0 0  1.1 0 0  1.15 0 0  1.2 0 0  1.25 0 0  1.3 0 0  1.35 0 0  1.4 0 0  1.45 0 0  1.5 0 0  1.55 0 0  1.6 0 0  1.65 0 0  1.7 0 0  1.75 0 0  1.8 0 0  1.85 0 0  1.9 0 0  1.95 0 0  2 0 0  2.05 0 0  2.1 0 0  2.15 0 0  2.2 0 0  2.25 0 0  2.3 0 0  2.35 0 0  2.4 0 0  2.45 0 0  2.5 0 0  2.55 0 0  2.6 0 0  2.65 0 0  2.7 0 0  2.75 0 0  2.8 0 0  2.85 0 0  2.9 0 0  2.95 0 0  3 0 0  3.050000000000001 0 0  3.1 0 0  3.15 0 0  3.199999999999999 0 0  3.25 0 0  3.300000000000001 0 0  3.35 0 0  3.4 0 0  3.449999999999999 0 0  3.5 0 0  3.550000000000001 0 0  3.6 0 0  3.65 0 0  3.699999999999999 0 0  3.75 0 0  3.800000000000001 0 0  3.85 0 0  3.9 0 0  3.949999999999999 0 0  4 0 0  4.050000000000001 0 0  4.1 0 0  4.15 0 0  4.199999999999999 0 0  4.25 0 0  4.300000000000001 0 0  4.35 0 0  4.4 0 0  4.449999999999999 0 0  4.5 0 0  4.550000000000001 0 0  4.6 0 0  4.65 0 0  4.699999999999999 0 0  4.75 0 0  4.800000000000001 0 0  4.85 0 0  4.9 0 0  4.949999999999999 0 0  5 0 0  </DataArray>
</Points>
<Cells>
<DataArray  type="UInt32"  Name="connectivity"  format="ascii">0 1  1 2  2 3  3 4  4 5  5 6  6 7  7 8  8 9  9 10  10 11  11 12  12 13  13 14  14 15  15 16  16 17  17 18  18 19  19 20  20 21  21 22  22 23  23 24  24 25  25 26  26 27  27 28  28 29  29 30  30 31  31 32  32 33  33 34  34 35  35 36  36 37  37 38  38 39  39 40  40 41  41 42  42 43  43 44  44 45  45 46  46 47  47 48  48 49  49 50  50 51  51 52  52 53  53 54  54 55  55 56  56 57  57 58  58 59  59 60  60 61  61 62  62 63  63 64  64 65  65 66  66 67  67 68  68 69  69 70  70 71  71 72  72 73  73 74  74 75  75 76  76 77  77 78  78 79  79 80  80 81  81 82  82 83  83 84  84 85  85 86  86 87  87 88  88 89  89 90  90 91  91 92  92 93  93 94  94 95  95 96  96 97  97 98  98 99  99 100  100 101  101 102  102 103  103 104  104 105  105 106  106 107  107 108  108 109  109 110  110 111  111 112  112 113  113 114  114 115  115 116  116 117  117 118  118 119  119 120  120 121  121 122  122 123  123 124  124 125  125 126  126 127  127 128  128 129  129 130  130 131  131 132  132 133  133 134  134 135  135 136  136 137  137 138  138 139  139 140  140 141  141 142  142 143  143 144  144 145  145 146  146 147  147 148  148 149  149 150  150 151  151 152  152 153  153 154  154 155  155 156  156 157  157 158  158 159  159 160  160 161  161 162  162 163  163 164  164 165  165 166  166 167  167 168  168 169  169 170  170 171  171 172  172 173  173 174  174 175  175 176  176 177  177 178  178 179  179 180  180 181  181 182  182 183  183 184  184 185  185 186  186 187  187 188  188 189  189 190  190 191  191 192  192 193  193 194  194 195  195 196  196 197  197 198  198 199  199 200  </DataArray>
<DataArray  type="UInt32"  Name="offsets"  format="ascii">2 4 6 8 10 12 14 16 18 20 22 24 26 28 30 32 34 36 38 40 42 44 46 48 50 52 54 56 58 60 62 64 66 68 70 72 74 76 78 80 82 84 86 88 90 92 94 96 98 100 102 104 106 108 110 112 114 116 118 120 122 124 126 128 130 132 134 136 138 140 142 144 146 148 150 152 154 156 158 160 162 164 166 168 170 172 174 176 178 180 182 184 186 188 190 192 194 196 198 200 202 204 206 208 210 212 214 216 218 220 222 224 226 228 230 232 234 236 238 240 242 244 246 248 250 252 254 256 258 260 262 264 266 268 270 272 274 276 278 280 282 284 286 288 290 292 294 296 298 300 302 304 306 308 310 312 314 316 318 320 322 324 326 328 330 332 334 336 338 340 342 344 346 348 350 352 354 356 358 360 362 364 366 368 370 372 374 376 378 380 382 384 386 388 390 392 394 396 398 400 </DataArray>
<DataArray  type="UInt8"  Name="types"  format="ascii">3 3 3 3 3 3 3 3 3 3 3 3 3 3 3 3 3 3 3 3 3 3 3 3 3 3 3 3 3 3 3 3 3 3 3 3 3 3 3 3 3 3 3 3 3 3 3 3 3 3 3 3 3 3 3 3 3 3 3 3 3 3 3 3 3 3 3 3 3 3 3 3 3 3 3 3 3 3 3 3 3 3 3 3 3 3 3 3 3 3 3 3 3 3 3 3 3 3 3 3 3 3 3 3 3 3 3 3 3 3 3 3 3 3 3 3 3 3 3 3 3 3 3 3 3 3 3 3 3 3 3 3 3 3 3 3 3 3 3 3 3 3 3 3 3 3 3 3 3 3 3 3 3 3 3 3 3 3 3 3 3 3 3 3 3 3 3 3 3 3 3 3 3 3 3 3 3 3 3 3 3 3 3 3 3 3 3 3 3 3 3 3 3 3 3 3 3 3 3 3 </DataArray>
</Cells>
<PointData  Vectors="(h, u)"> 
<DataArray  type="Float64"  Name="(h, u)"  NumberOfComponents="3" format="ascii">1.3422663922578426e+00 0.0000000000000000e+00 0.0000000000000000e+00  1.3421615881315527e+00 1.4225080793413118e-02 0.0000000000000000e+00  1.3418384317271068e+00 2.8283576798696614e-02 0.0000000000000000e+00  1.3412683099224956e+00 4.1993402783506772e-02 0.0000000000000000e+00  1.3404017085110955e+00 5.5140445529125767e-02 0.0000000000000000e+00  1.3391622581580342e+00 6.7458859328203502e-02 0.0000000000000000e+00  1.3374417879214744e+00 7.8608377815088726e-02 0.0000000000000000e+00  1.3350902823215220e+00 8.8145784011972123e-02 0.0000000000000000e+00  1.3319069700639550e+00 9.5493189414484259e-02 0.0000000000000000e+00  1.3276278768255176e+00 9.9902418387684919e-02 0.0000000000000000e+00  1.3219185699331817e+00 1.0042649196874412e-01 0.0000000000000000e+00  1.3143728877635075e+00 9.5910261082689782e-02 0.0000000000000000e+00  1.3045345468663880e+00 8.5035845385112246e-02 0.0000000000000000e+00  1.2919536108327574e+00 6.6465803449830538e-02 0.0000000000000000e+00  1.2763014226876992e+00 3.9147026012019040e-02 0.0000000000000000e+00  1.2575434863050281e+00 2.7943583009004129e-03 0.0000000000000000e+00  1.2361357078533326e+00 -4.1527907649597538e-02 0.0000000000000000e+00  1.2131324509323222e+00 -9.1024105635744937e-02 0.0000000000000000e+00  1.1900698543457899e+00 -1.4140099909875031e-01 0.0000000000000000e+00  1.1685771081299925e+00 -1.8792088240724111e-01 0.0000000000000000e+00  1.1498924787928024e+00 -2.2682678872007808e-01 0.0000000000000000e+00  1.1345684488043808e+00 -2.5629607312352187e-01 0.0000000000000000e+00  1.1225058156066288e+00 -2.7643365743894915e-01 0.0000000000000000e+00  1.1132029325447452e+00 -2.8858654105608961e-01 0.0000000000000000e+00  1.1060259843087070e+00 -2.9454803969361465e-01 0.0000000000000000e+00  1.1003844632546813e+00 -2.9602506932786893e-01 0.0000000000000000e+00  1.0958050745973018e+00 -2.9440028949151525e-01 0.0000000000000000e+00  1.0919399166335575e+00 -2.9069888839771652e-01 0.0000000000000000e+00  1.0885467465914884e+00 -2.8563718570465041e-01 0.0000000000000000e+00  1.0854625577355903e+00 -2.7970120870833581e-01 0.0000000000000000e+00  1.0825800060008481e+00 -2.7321081417965637e-01 0.0000000000000000e+00  1.0798296442707087e+00 -2.6637633283062540e-01 0.0000000000000000e+00  1.0771667860197072e+00 -2.5933205861496739e-01 0.0000000000000000e+00  1.0745633009551883e+00 -2.5216621522439614e-01 0.0000000000000000e+00  1.0720012071920204e+00 -2.4493369471418455e-01 0.0000000000000000e+00  1.0694696819510556e+00 -2.3767176313678490e-01 0.0000000000000000e+00  1.0669617012141641e+00 -2.3040269323748547e-01 0.0000000000000000e+00  1.0644735529526825e+00 -2.2314318275104342e-01 0.0000000000000000e+00  1.0620026178146658e+00 -2.1590246358023749e-01 0.0000000000000000e+00  1.0595481147855543e+00 -2.0868920844739114e-01 0.0000000000000000e+00  1.0571091739028657e+00 -2.0150761073051265e-01 0.0000000000000000e+00  1.0546862703846567e+00 -1.9436340923379117e-01 0.0000000000000000e+00  1.0522792312645466e+00 -1.8725899265483426e-01 0.0000000000000000e+00  1.0498891326945921e+00 -1.8019921909710906e-01 0.0000000000000000e+00  1.0475160941482025e+00 -1.7318598106668737e-01 0.0000000000000000e+00  1.0451615459495047e+00 -1.6622409245890388e-01 0.0000000000000000e+00  1.0428257541085699e+00 -1.5931549446698387e-01 0.0000000000000000e+00  1.0405104178765325e+00 -1.5246531421019793e-01 0.0000000000000000e+00  1.0382159062475689e+00 -1.4567578956112140e-01 0.0000000000000000e+00  1.0359441650489172e+00 -1.3895253278966213e-01 0.0000000000000000e+00  1.0336956628600449e+00 -1.3229821331163708e-01 0.0000000000000000e+00  1.0314725934220099e+00 -1.2571902872805538e-01 0.0000000000000000e+00  1.0292755367027484e+00 -1.1921817129360054e-01 0.0000000000000000e+00  1.0271069433692257e+00 -1.1280249361463102e-01 0.0000000000000000e+00  1.0249675210480780e+00 -1.0647578169135209e-01 0.0000000000000000e+00  1.0228599865778585e+00 -1.0024559363278666e-01 0.0000000000000000e+00  1.0207851901853329e+00 -9.4116363046097606e-02 0.0000000000000000e+00  1.0187461195894914e+00 -8.8096382641109666e-02 0.0000000000000000e+00  1.0167437766060667e+00 -8.2190763896160118e-02 0.0000000000000000e+00  1.0147814154825012e+00 -7.6408531969497206e-02 0.0000000000000000e+00  1.0128601876519669e+00 -7.0755469908679008e-02 0.0000000000000000e+00  1.0109835952038089e+00 -6.5241286469553211e-02 0.0000000000000000e+00  1.0091529202740963e+00 -5.9872375317756868e-02 0.0000000000000000e+00  1.0073718734601660e+00 -5.4659013246782441e-02 0.0000000000000000e+00  1.0056418247825014e+00 -4.9608066918261015e-02 0.0000000000000000e+00  1.0039666262831686e+00 -4.4730175917362391e-02 0.0000000000000000e+00  1.0023476617941989e+00 -4.0032441978751283e-02 0.0000000000000000e+00  1.0007888230928730e+00 -3.5525549889511794e-02 0.0000000000000000e+00  9.9929139609737050e-01 -3.1216477488477692e-02 0.0000000000000000e+00  9.9785917098841415e-01 -2.7115508339687927e-02 0.0000000000000000e+00  9.9649318318850100e-01 -2.3229005827097752e-02 0.0000000000000000e+00  9.9519693997589820e-01 -1.9566275439436263e-02 0.0000000000000000e+00  9.9397103589489066e-01 -1.6132453566035824e-02 0.0000000000000000e+00  9.9281848161851483e-01 -1.2935184371408327e-02 0.0000000000000000e+00  9.9173921527229847e-01 -9.9776832706901554e-03 0.0000000000000000e+00  9.9073552336402471e-01 -7.2652029192916577e-03 0.0000000000000000e+00  9.8980647146637546e-01 -4.7983413215717721e-03 0.0000000000000000e+00  9.8895341116794067e-01 -2.5792810616908622e-03 0.0000000000000000e+00  9.8817435472644888e-01 -6.0541942565345839e-04 0.0000000000000000e+00  9.8746956497670335e-01 1.1246292353120353e-03 0.0000000000000000e+00  9.8683589765298996e-01 2.6170034355208560e-03 0.0000000000000000e+00  9.8627247165131571e-01 3.8768415741756612e-03 0.0000000000000000e+00  9.8577499861348761e-01 4.9137840902143820e-03 0.0000000000000000e+00  9.8534152807332742e-01 5.7364954962958710e-03 0.0000000000000000e+00  9.8496677644110087e-01 6.3576523869621386e-03 0.0000000000000000e+00  9.8464793587761057e-01 6.7887882195112898e-03 0.0000000000000000e+00  9.8437900541653445e-01 7.0447493018905641e-03 0.0000000000000000e+00  9.8415664600374397e-01 7.1389343030765834e-03 0.0000000000000000e+00  9.8397450791296004e-01 7.0872271710463140e-03 0.0000000000000000e+00  9.8382911023910924e-01 6.9037200717581900e-03 0.0000000000000000e+00  9.8371415395215300e-01 6.6041479639916316e-03 0.0000000000000000e+00  9.8362640459962958e-01 6.2021850577722885e-03 0.0000000000000000e+00  9.8355998084938490e-01 5.7124054239929790e-03 0.0000000000000000e+00  9.8351222457879317e-01 5.1472275142677854e-03 0.0000000000000000e+00  9.8347795977917196e-01 4.5194106899835414e-03 0.0000000000000000e+00  9.8345534262663847e-01 3.8396951139481471e-03 0.0000000000000000e+00  9.8344009242671959e-01 3.1188229799477820e-03 0.0000000000000000e+00  9.8343132245099862e-01 2.3658909203790254e-03 0.0000000000000000e+00  9.8342574998605714e-01 1.5898655231226383e-03 0.0000000000000000e+00  9.8342351381728865e-01 7.9863968778858885e-04 0.0000000000000000e+00  9.8342237225087215e-01 -4.5881194996763954e-16 0.0000000000000000e+00  9.8342351381728876e-01 -7.9863968778976164e-04 0.0000000000000000e+00  9.8342574998605736e-01 -1.5898655231240412e-03 0.0000000000000000e+00  9.8343132245099907e-01 -2.3658909203803729e-03 0.0000000000000000e+00  9.8344009242672004e-01 -3.1188229799488792e-03 0.0000000000000000e+00  9.8345534262663903e-01 -3.8396951139498437e-03 0.0000000000000000e+00  9.8347795977917207e-01 -4.5194106899846430e-03 0.0000000000000000e+00  9.8351222457879361e-01 -5.1472275142688990e-03 0.0000000000000000e+00  9.8355998084938490e-01 -5.7124054239928376e-03 0.0000000000000000e+00  9.8362640459962958e-01 -6.2021850577732044e-03 0.0000000000000000e+00  9.8371415395215289e-01 -6.6041479639915666e-03 0.0000000000000000e+00  9.8382911023910924e-01 -6.9037200717583817e-03 0.0000000000000000e+00  9.8397450791295993e-01 -7.0872271710459515e-03 0.0000000000000000e+00  9.8415664600374375e-01 -7.1389343030764029e-03 0.0000000000000000e+00  9.8437900541653434e-01 -7.0447493018906239e-03 0.0000000000000000e+00  9.8464793587761057e-01 -6.7887882195108726e-03 0.0000000000000000e+00  9.8496677644110076e-01 -6.3576523869622774e-03 0.0000000000000000e+00  9.8534152807332731e-01 -5.7364954962961980e-03 0.0000000000000000e+00  9.8577499861348739e-01 -4.9137840902157811e-03 0.0000000000000000e+00  9.8627247165131549e-01 -3.8768415741765143e-03 0.0000000000000000e+00  9.8683589765298962e-01 -2.6170034355214701e-03 0.0000000000000000e+00  9.8746956497670302e-01 -1.1246292353133183e-03 0.0000000000000000e+00  9.8817435472644843e-01 6.0541942565268058e-04 0.0000000000000000e+00  9.8895341116794011e-01 2.5792810616906566e-03 0.0000000000000000e+00  9.8980647146637490e-01 4.7983413215722153e-03 0.0000000000000000e+00  9.9073552336402415e-01 7.2652029192919023e-03 0.0000000000000000e+00  9.9173921527229780e-01 9.9776832706905752e-03 0.0000000000000000e+00  9.9281848161851427e-01 1.2935184371408535e-02 0.0000000000000000e+00  9.9397103589489011e-01 1.6132453566036990e-02 0.0000000000000000e+00  9.9519693997589775e-01 1.9566275439436051e-02 0.0000000000000000e+00  9.9649318318850044e-01 2.3229005827098085e-02 0.0000000000000000e+00  9.9785917098841392e-01 2.7115508339687587e-02 0.0000000000000000e+00  9.9929139609736983e-01 3.1216477488478441e-02 0.0000000000000000e+00  1.0007888230928728e+00 3.5525549889512009e-02 0.0000000000000000e+00  1.0023476617941987e+00 4.0032441978752414e-02 0.0000000000000000e+00  1.0039666262831684e+00 4.4730175917364390e-02 0.0000000000000000e+00  1.0056418247825012e+00 4.9608066918262778e-02 0.0000000000000000e+00  1.0073718734601662e+00 5.4659013246783197e-02 0.0000000000000000e+00  1.0091529202740965e+00 5.9872375317756896e-02 0.0000000000000000e+00  1.0109835952038089e+00 6.5241286469552989e-02 0.0000000000000000e+00  1.0128601876519667e+00 7.0755469908678037e-02 0.0000000000000000e+00  1.0147814154825012e+00 7.6408531969496568e-02 0.0000000000000000e+00  1.0167437766060665e+00 8.2190763896157842e-02 0.0000000000000000e+00  1.0187461195894914e+00 8.8096382641108209e-02 0.0000000000000000e+00  1.0207851901853326e+00 9.4116363046095233e-02 0.0000000000000000e+00  1.0228599865778585e+00 1.0024559363278476e-01 0.0000000000000000e+00  1.0249675210480782e+00 1.0647578169134923e-01 0.0000000000000000e+00  1.0271069433692261e+00 1.1280249361462928e-01 0.0000000000000000e+00  1.0292755367027482e+00 1.1921817129359853e-01 0.0000000000000000e+00  1.0314725934220101e+00 1.2571902872805396e-01 0.0000000000000000e+00  1.0336956628600449e+00 1.3229821331163713e-01 0.0000000000000000e+00  1.0359441650489170e+00 1.3895253278966146e-01 0.0000000000000000e+00  1.0382159062475687e+00 1.4567578956112151e-01 0.0000000000000000e+00  1.0405104178765321e+00 1.5246531421019702e-01 0.0000000000000000e+00  1.0428257541085699e+00 1.5931549446698437e-01 0.0000000000000000e+00  1.0451615459495043e+00 1.6622409245890313e-01 0.0000000000000000e+00  1.0475160941482027e+00 1.7318598106668748e-01 0.0000000000000000e+00  1.0498891326945916e+00 1.8019921909711009e-01 0.0000000000000000e+00  1.0522792312645468e+00 1.8725899265483401e-01 0.0000000000000000e+00  1.0546862703846565e+00 1.9436340923379197e-01 0.0000000000000000e+00  1.0571091739028660e+00 2.0150761073051218e-01 0.0000000000000000e+00  1.0595481147855541e+00 2.0868920844739169e-01 0.0000000000000000e+00  1.0620026178146662e+00 2.1590246358023668e-01 0.0000000000000000e+00  1.0644735529526821e+00 2.2314318275104331e-01 0.0000000000000000e+00  1.0669617012141648e+00 2.3040269323748422e-01 0.0000000000000000e+00  1.0694696819510552e+00 2.3767176313678501e-01 0.0000000000000000e+00  1.0720012071920209e+00 2.4493369471418325e-01 0.0000000000000000e+00  1.0745633009551876e+00 2.5216621522439442e-01 0.0000000000000000e+00  1.0771667860197083e+00 2.5933205861496561e-01 0.0000000000000000e+00  1.0798296442707085e+00 2.6637633283062423e-01 0.0000000000000000e+00  1.0825800060008490e+00 2.7321081417965609e-01 0.0000000000000000e+00  1.0854625577355899e+00 2.7970120870833509e-01 0.0000000000000000e+00  1.0885467465914891e+00 2.8563718570464852e-01 0.0000000000000000e+00  1.0919399166335568e+00 2.9069888839771574e-01 0.0000000000000000e+00  1.0958050745973023e+00 2.9440028949151331e-01 0.0000000000000000e+00  1.1003844632546804e+00 2.9602506932786932e-01 0.0000000000000000e+00  1.1060259843087075e+00 2.9454803969361310e-01 0.0000000000000000e+00  1.1132029325447446e+00 2.8858654105609016e-01 0.0000000000000000e+00  1.1225058156066294e+00 2.7643365743894743e-01 0.0000000000000000e+00  1.1345684488043801e+00 2.5629607312352265e-01 0.0000000000000000e+00  1.1498924787928029e+00 2.2682678872007511e-01 0.0000000000000000e+00  1.1685771081299927e+00 1.8792088240724031e-01 0.0000000000000000e+00  1.1900698543457899e+00 1.4140099909874770e-01 0.0000000000000000e+00  1.2131324509323222e+00 9.1024105635744063e-02 0.0000000000000000e+00  1.2361357078533324e+00 4.1527907649594777e-02 0.0000000000000000e+00  1.2575434863050283e+00 -2.7943583009009546e-03 0.0000000000000000e+00  1.2763014226876996e+00 -3.9147026012022856e-02 0.0000000000000000e+00  1.2919536108327574e+00 -6.6465803449830455e-02 0.0000000000000000e+00  1.3045345468663878e+00 -8.5035845385113579e-02 0.0000000000000000e+00  1.3143728877635072e+00 -9.5910261082689310e-02 0.0000000000000000e+00  1.3219185699331817e+00 -1.0042649196874526e-01 0.0000000000000000e+00  1.3276278768255172e+00 -9.9902418387685293e-02 0.0000000000000000e+00  1.3319069700639550e+00 -9.5493189414485272e-02 0.0000000000000000e+00  1.3350902823215216e+00 -8.8145784011971914e-02 0.0000000000000000e+00  1.3374417879214742e+00 -7.8608377815089600e-02 0.0000000000000000e+00  1.3391622581580338e+00 -6.7458859328202961e-02 0.0000000000000000e+00  1.3404017085110953e+00 -5.5140445529126308e-02 0.0000000000000000e+00  1.3412683099224956e+00 -4.1993402783506759e-02 0.0000000000000000e+00  1.3418384317271066e+00 -2.8283576798696534e-02 0.0000000000000000e+00  1.3421615881315523e+00 -1.4225080793413142e-02 0.0000000000000000e+00  1.3422663922578424e+00 0.0000000000000000e+00 0.0000000000000000e+00  </DataArray> 
</PointData> 
</Piece>
</UnstructuredGrid>
</VTKFile>