<?xml version="1.0"?>
<VTKFile type="UnstructuredGrid"  version="0.1"  >
<UnstructuredGrid>
<Piece  NumberOfPoints="201" NumberOfCells="200">
<Points>
<DataArray  type="Float64"  NumberOfComponents="3"  format="ascii">-5 0 0  -4.95 0 0  -4.9 0 0  -4.85 0 0  -4.8 0 0  -4.75 0 0  -4.7 0 0  -4.65 0 0  -4.6 0 0  -4.55 0 0  -4.5 0 0  -4.45 0 0  -4.4 0 0  -4.35 0 0  -4.3 0 0  -4.25 0 0  -4.2 0 0  -4.15 0 0  -4.1 0 0  -4.05 0 0  -4 0 0  -3.95 0 0  -3.9 0 0  -3.85 0 0  -3.8 0 0  -3.75 0 0  -3.7 0 0  -3.65 0 0  -3.6 0 0  -3.55 0 0  -3.5 0 0  -3.45 0 0  -3.4 0 0  -3.35 0 0  -3.3 0 0  -3.25 0 0  -3.2 0 0  -3.15 0 0  -3.1 0 0  -3.05 0 0  -3 0 0  -2.95 0 0  -2.9 0 0  -2.85 0 0  -2.8 0 0  -2.75 0 0  -2.7 0 0  -2.65 0 0  -2.6 0 0  -2.55 0 0  -2.5 0 0  -2.45 0 0  -2.4 0 0  -2.35 0 0  -2.3 0 0  -2.25 0 0  -2.2 0 0  -2.15 0 0  -2.1 0 0  -2.05 0 0  -2 0 0  -1.95 0 0  -1.9 0 0  -1.85 0 0  -1.8 0 0  -1.75 0 0  -1.7 0 0  -1.65 0 0  -1.6 0 0  -1.55 0 0  -1.5 0 0  -1.45 0 0  -1.4 0 0  -1.35 0 0  -1.3 0 0  -1.25 0 0  -1.2 0 0  -1.15 0 0  -1.1 0 0  -1.05 0 0  -1 0 0  -0.9500000000000002 0 0  -0.9000000000000004 0 0  -0.8499999999999996 0 0  -0.7999999999999998 0 0  -0.75 0 0  -0.7000000000000002 0 0  -0.6500000000000004 0 0  -0.5999999999999996 0 0  -0.5499999999999998 0 0  -0.5 0 0  -0.4500000000000002 0 0  -0.4000000000000004 0 0  -0.3499999999999996 0 0  -0.2999999999999998 0 0  -0.25 0 0  -0.2000000000000002 0 0  -0.1500000000000004 0 0  -0.09999999999999964 0 0  -0.04999999999999982 0 0  0 0 0  0.04999999999999982 0 0  0.09999999999999964 0 0  0.1500000000000004 0 0  0.2000000000000002 0 0  0.25 0 0  0.2999999999999998 0 0  0.3499999999999996 0 0  0.4000000000000004 0 0  0.4500000000000002 0 0  0.5 0 0  0.5499999999999998 0 0  0.5999999999999996 0 0  0.6500000000000004 0 0  0.7000000000000002 0 0  0.75 0 0  0.7999999999999998 0 0  0.8499999999999996 0 0  0.9000000000000004 0 0  0.9500000000000002 0 0  1 0 0  1.05 0 0  1.1 0 0  1.15 0 0  1.2 0 0  1.25 0 0  1.3 0 0  1.35 0 0  1.4 0 0  1.45 0 0  1.5 0 0  1.55 0 0  1.6 0 0  1.65 0 0  1.7 0 0  1.75 0 0  1.8 0 0  1.85 0 0  1.9 0 0  1.95 0 0  2 0 0  2.05 0 0  2.1 0 0  2.15 0 0  2.2 0 0  2.25 0 0  2.3 0 0  2.35 0 0  2.4 0 0  2.45 0 0  2.5 0 0  2.55 0 0  2.6 0 0  2.65 0 0  2.7 0 0  2.75 0 0  2.8 0 0  2.85 0 0  2.9 0 0  2.95 0 0  3 0 0  3.050000000000001 0 0  3.1 0 0  3.15 0 0  3.199999999999999 0 0  3.25 0 0  3.300000000000001 0 0  3.35 0 0  3.4 0 0  3.449999999999999 0 0  3.5 0 0  3.550000000000001 0 0  3.6 0 0  3.65 0 0  3.699999999999999 0 0  3.75 0 0  3.800000000000001 0 0  3.85 0 0  3.9 0 0  3.949999999999999 0 0  4 0 0  4.050000000000001 0 0  4.1 0 0  4.15 0 0  4.199999999999999 0 0  4.25 0 0  4.300000000000001 0 0  4.35 0 0  4.4 0 0  4.449999999999999 0 0  4.5 0 0  4.550000000000001 0 0  4.6 0 0  4.65 0 0  4.699999999999999 0 0  4.75 0 0  4.800000000000001 0 0  4.85 0 0  4.9 0 0  4.949999999999999 0 0  5 0 0  </DataArray>
</Points>
<Cells>
<DataArray  type="UInt32"  Name="connectivity"  format="ascii">0 1  1 2  2 3  3 4  4 5  5 6  6 7  7 8  8 9  9 10  10 11  11 12  12 13  13 14  14 15  15 16  16 17  17 18  18 19  19 20  20 21  21 22  22 23  23 24  24 25  25 26  26 27  27 28  28 29  29 30  30 31  31 32  32 33  33 34  34 35  35 36  36 37  37 38  38 39  39 40  40 41  41 42  42 43  43 44  44 45  45 46  46 47  47 48  48 49  49 50  50 51  51 52  52 53  53 54  54 55  55 56  56 57  57 58  58 59  59 60  60 61  61 62  62 63  63 64  64 65  65 66  66 67  67 68  68 69  69 70  70 71  71 72  72 73  73 74  74 75  75 76  76 77  77 78  78 79  79 80  80 81  81 82  82 83  83 84  84 85  85 86  86 87  87 88  88 89  89 90  90 91  91 92  92 93  93 94  94 95  95 96  96 97  97 98  98 99  99 100  100 101  101 102  102 103  103 104  104 105  105 106  106 107  107 108  108 109  109 110  110 111  111 112  112 113  113 114  114 115  115 116  116 117  117 118  118 119  119 120  120 121  121 122  122 123  123 124  124 125  125 126  126 127  127 128  128 129  129 130  130 131  131 132  132 133  133 134  134 135  135 136  136 137  137 138  138 139  139 140  140 141  141 142  142 143  143 144  144 145  145 146  146 147  147 148  148 149  149 150  150 151  151 152  152 153  153 154  154 155  155 156  156 157  157 158  158 159  159 160  160 161  161 162  162 163  163 164  164 165  165 166  166 167  167 168  168 169  169 170  170 171  171 172  172 173  173 174  174 175  175 176  176 177  177 178  178 179  179 180  180 181  181 182  182 183  183 184  184 185  185 186  186 187  187 188  188 189  189 190  190 191  191 192  192 193  193 194  194 195  195 196  196 197  197 198  198 199  199 200  </DataArray>
<DataArray  type="UInt32"  Name="offsets"  format="ascii">2 4 6 8 10 12 14 16 18 20 22 24 26 28 30 32 34 36 38 40 42 44 46 48 50 52 54 56 58 60 62 64 66 68 70 72 74 76 78 80 82 84 86 88 90 92 94 96 98 100 102 104 106 108 110 112 114 116 118 120 122 124 126 128 130 132 134 136 138 140 142 144 146 148 150 152 154 156 158 160 162 164 166 168 170 172 174 176 178 180 182 184 186 188 190 192 194 196 198 200 202 204 206 208 210 212 214 216 218 220 222 224 226 228 230 232 234 236 238 240 242 244 246 248 250 252 254 256 258 260 262 264 266 268 270 272 274 276 278 280 282 284 286 288 290 292 294 296 298 300 302 304 306 308 310 312 314 316 318 320 322 324 326 328 330 332 334 336 338 340 342 344 346 348 350 352 354 356 358 360 362 364 366 368 370 372 374 376 378 380 382 384 386 388 390 392 394 396 398 400 </DataArray>
<DataArray  type="UInt8"  Name="types"  format="ascii">3 3 3 3 3 3 3 3 3 3 3 3 3 3 3 3 3 3 3 3 3 3 3 3 3 3 3 3 3 3 3 3 3 3 3 3 3 3 3 3 3 3 3 3 3 3 3 3 3 3 3 3 3 3 3 3 3 3 3 3 3 3 3 3 3 3 3 3 3 3 3 3 3 3 3 3 3 3 3 3 3 3 3 3 3 3 3 3 3 3 3 3 3 3 3 3 3 3 3 3 3 3 3 3 3 3 3 3 3 3 3 3 3 3 3 3 3 3 3 3 3 3 3 3 3 3 3 3 3 3 3 3 3 3 3 3 3 3 3 3 3 3 3 3 3 3 3 3 3 3 3 3 3 3 3 3 3 3 3 3 3 3 3 3 3 3 3 3 3 3 3 3 3 3 3 3 3 3 3 3 3 3 3 3 3 3 3 3 3 3 3 3 3 3 3 3 3 3 3 3 </DataArray>
</Cells>
<PointData  Vectors="(h, u)"> 
<DataArray  type="Float64"  Name="(h, u)"  NumberOfComponents="3" format="ascii">9.9999929769226059e-01 0.0000000000000000e+00 0.0000000000000000e+00  1.0000007006845639e+00 4.6215577990189816e-08 0.0000000000000000e+00  9.9999930417099947e-01 -9.1427057930067915e-08 0.0000000000000000e+00  1.0000006877836192e+00 1.3465595129541303e-07 0.0000000000000000e+00  9.9999932338110364e-01 -1.7497554872181667e-07 0.0000000000000000e+00  1.0000006624338071e+00 2.1153301226231688e-07 0.0000000000000000e+00  9.9999935464501544e-01 -2.4357308064057894e-07 0.0000000000000000e+00  1.0000006255369815e+00 2.7045406695383144e-07 0.0000000000000000e+00  9.9999939683899364e-01 -2.9166638348443336e-07 0.0000000000000000e+00  1.0000005784345609e+00 3.0684038385677184e-07 0.0000000000000000e+00  9.9999944841072985e-01 -3.1575802086560296e-07 0.0000000000000000e+00  1.0000005228799649e+00 3.1835025977956844e-07 0.0000000000000000e+00  9.9999950741977583e-01 -3.1470406480699233e-07 0.0000000000000000e+00  1.0000004609836444e+00 3.0504020496983735e-07 0.0000000000000000e+00  9.9999957161090069e-01 -2.8974016655664471e-07 0.0000000000000000e+00  1.0000003951251284e+00 2.6923998179420920e-07 0.0000000000000000e+00  9.9999963853019203e-01 -2.4425124169797848e-07 0.0000000000000000e+00  1.0000003278436842e+00 2.1511862350437373e-07 0.0000000000000000e+00  9.9999970571464603e-01 -1.8342514569613473e-07 0.0000000000000000e+00  1.0000002617996713e+00 1.4772809290510968e-07 0.0000000000000000e+00  9.9999977116058936e-01 -1.1453793316691742e-07 0.0000000000000000e+00  1.0000002003686506e+00 6.9895557100784097e-08 0.0000000000000000e+00  9.9999983542463688e-01 -5.2263018776266357e-08 0.0000000000000000e+00  1.0000001523124717e+00 -3.3652372190879830e-08 0.0000000000000000e+00  9.9999991381338416e-01 -5.5663207588169273e-08 0.0000000000000000e+00  1.0000001614156271e+00 -2.9016769739880531e-07 0.0000000000000000e+00  1.0000001096188191e+00 -4.5661138410050062e-07 0.0000000000000000e+00  1.0000004847740323e+00 -1.4979388856155480e-06 0.0000000000000000e+00  1.0000010461362838e+00 -3.2121537605540209e-06 0.0000000000000000e+00  1.0000026311715684e+00 -8.3783169483534456e-06 0.0000000000000000e+00  1.0000063437870856e+00 -1.9661705503249920e-05 0.0000000000000000e+00  1.0000152241058324e+00 -4.7935808627934578e-05 0.0000000000000000e+00  1.0000363837488078e+00 -1.1362875624647582e-04 0.0000000000000000e+00  1.0000860392213404e+00 -2.6978172429961396e-04 0.0000000000000000e+00  1.0002022076599133e+00 -6.3283002219576500e-04 0.0000000000000000e+00  1.0004707770768733e+00 -1.4745792173856485e-03 0.0000000000000000e+00  1.0010864325998436e+00 -3.4013423156773370e-03 0.0000000000000000e+00  1.0024793759157054e+00 -7.7622494332261500e-03 0.0000000000000000e+00  1.0055784541486916e+00 -1.7456211593485201e-02 0.0000000000000000e+00  1.0122874202793326e+00 -3.8416999250733080e-02 0.0000000000000000e+00  1.0261462566347563e+00 -8.1592813692449181e-02 0.0000000000000000e+00  1.0525305715395148e+00 -1.6332418756780318e-01 0.0000000000000000e+00  1.0965918603966922e+00 -2.9835414484833944e-01 0.0000000000000000e+00  1.1579994403431164e+00 -4.8313539702149066e-01 0.0000000000000000e+00  1.2275870867024221e+00 -6.8711591794885463e-01 0.0000000000000000e+00  1.2923138151946356e+00 -8.7131519930484491e-01 0.0000000000000000e+00  1.3432840308626670e+00 -1.0125062503922060e+00 0.0000000000000000e+00  1.3780311803496965e+00 -1.1068111325616414e+00 0.0000000000000000e+00  1.3982216455380545e+00 -1.1609210380647408e+00 0.0000000000000000e+00  1.4069971133554084e+00 -1.1843746039835308e+00 0.0000000000000000e+00  1.4074465655819275e+00 -1.1857960636610558e+00 0.0000000000000000e+00  1.4020539700051666e+00 -1.1718392362192886e+00 0.0000000000000000e+00  1.3926410800957150e+00 -1.1472612347057400e+00 0.0000000000000000e+00  1.3804829267636636e+00 -1.1153494223593055e+00 0.0000000000000000e+00  1.3664550496733454e+00 -1.0783372538693659e+00 0.0000000000000000e+00  1.3511540684724708e+00 -1.0377446477053018e+00 0.0000000000000000e+00  1.3349900391882110e+00 -9.9460952020090798e-01 0.0000000000000000e+00  1.3182470648955706e+00 -9.4965574451040702e-01 0.0000000000000000e+00  1.3011272302389998e+00 -9.0339501703358516e-01 0.0000000000000000e+00  1.2837766511670461e+00 -8.5620359345886488e-01 0.0000000000000000e+00  1.2663056852226926e+00 -8.0836388499830925e-01 0.0000000000000000e+00  1.2487995530391969e+00 -7.6010106061607130e-01 0.0000000000000000e+00  1.2313282453881602e+00 -7.1159939018414886e-01 0.0000000000000000e+00  1.2139507570696586e+00 -6.6302193623090178e-01 0.0000000000000000e+00  1.1967206354164184e+00 -6.1451684676382001e-01 0.0000000000000000e+00  1.1796877049994321e+00 -5.6623006478246973e-01 0.0000000000000000e+00  1.1629018082983176e+00 -5.1830804843058631e-01 0.0000000000000000e+00  1.1464136758601355e+00 -4.7090783114108453e-01 0.0000000000000000e+00  1.1302779700652592e+00 -4.2419898608245332e-01 0.0000000000000000e+00  1.1145539873046415e+00 -3.7837290076392549e-01 0.0000000000000000e+00  1.0993084082916089e+00 -3.3364495764021579e-01 0.0000000000000000e+00  1.0846159169060763e+00 -2.9026319691904218e-01 0.0000000000000000e+00  1.0705614178038796e+00 -2.4850977243522199e-01 0.0000000000000000e+00  1.0572398530764764e+00 -2.0870662829935910e-01 0.0000000000000000e+00  1.0447565739098927e+00 -1.7121176375191882e-01 0.0000000000000000e+00  1.0332242477726465e+00 -1.3641488867368401e-01 0.0000000000000000e+00  1.0227584902839035e+00 -1.0471862175490820e-01 0.0000000000000000e+00  1.0134684399033456e+00 -7.6512442678156059e-02 0.0000000000000000e+00  1.0054446862886579e+00 -5.2128374320800738e-02 0.0000000000000000e+00  9.9874280600037357e-01 -3.1790258450794674e-02 0.0000000000000000e+00  9.9336772419549235e-01 -1.5556971142358307e-02 0.0000000000000000e+00  9.8926129225268344e-01 -3.2834742167937195e-03 0.0000000000000000e+00  9.8630071329740898e-01 5.3899309205001191e-03 0.0000000000000000e+00  9.8430922628443729e-01 1.1001067954634260e-02 0.0000000000000000e+00  9.8307984819954719e-01 1.4192684501741709e-02 0.0000000000000000e+00  9.8240386943498070e-01 1.5617179002347678e-02 0.0000000000000000e+00  9.8209693599828463e-01 1.5854570232936068e-02 0.0000000000000000e+00  9.8201411082802148e-01 1.5360577681716989e-02 0.0000000000000000e+00  9.8205367993981518e-01 1.4456038680078115e-02 0.0000000000000000e+00  9.8215110242008319e-01 1.3343319999620337e-02 0.0000000000000000e+00  9.8226950382985301e-01 1.2138354441284705e-02 0.0000000000000000e+00  9.8238952938178792e-01 1.0900681667666973e-02 0.0000000000000000e+00  9.8250208719083976e-01 9.6582433682526163e-03 0.0000000000000000e+00  9.8260313628474283e-01 8.4221197762860394e-03 0.0000000000000000e+00  9.8269120640360830e-01 7.1959817051190341e-03 0.0000000000000000e+00  9.8276572052341082e-01 5.9798919270883820e-03 0.0000000000000000e+00  9.8282663331068532e-01 4.7728324574844083e-03 0.0000000000000000e+00  9.8287390149909704e-01 3.5730958523033452e-03 0.0000000000000000e+00  9.8290764166587163e-01 2.3789641096657148e-03 0.0000000000000000e+00  9.8292783983166576e-01 1.1885430921107357e-03 0.0000000000000000e+00  9.8293458945254342e-01 -4.5476752418326079e-16 0.0000000000000000e+00  9.8292783983166565e-01 -1.1885430921115851e-03 0.0000000000000000e+00  9.8290764166587175e-01 -2.3789641096666290e-03 0.0000000000000000e+00  9.8287390149909681e-01 -3.5730958523045634e-03 0.0000000000000000e+00  9.8282663331068554e-01 -4.7728324574843571e-03 0.0000000000000000e+00  9.8276572052341027e-01 -5.9798919270891582e-03 0.0000000000000000e+00  9.8269120640360863e-01 -7.1959817051185674e-03 0.0000000000000000e+00  9.8260313628474250e-01 -8.4221197762856474e-03 0.0000000000000000e+00  9.8250208719083998e-01 -9.6582433682525087e-03 0.0000000000000000e+00  9.8238952938178747e-01 -1.0900681667666593e-02 0.0000000000000000e+00  9.8226950382985301e-01 -1.2138354441285094e-02 0.0000000000000000e+00  9.8215110242008274e-01 -1.3343319999621064e-02 0.0000000000000000e+00  9.8205367993981540e-01 -1.4456038680078538e-02 0.0000000000000000e+00  9.8201411082802104e-01 -1.5360577681717927e-02 0.0000000000000000e+00  9.8209693599828474e-01 -1.5854570232936609e-02 0.0000000000000000e+00  9.8240386943498026e-01 -1.5617179002349262e-02 0.0000000000000000e+00  9.8307984819954730e-01 -1.4192684501742551e-02 0.0000000000000000e+00  9.8430922628443696e-01 -1.1001067954635778e-02 0.0000000000000000e+00  9.8630071329740931e-01 -5.3899309205006664e-03 0.0000000000000000e+00  9.8926129225268333e-01 3.2834742167932255e-03 0.0000000000000000e+00  9.9336772419549257e-01 1.5556971142358121e-02 0.0000000000000000e+00  9.9874280600037346e-01 3.1790258450795361e-02 0.0000000000000000e+00  1.0054446862886579e+00 5.2128374320801585e-02 0.0000000000000000e+00  1.0134684399033460e+00 7.6512442678157211e-02 0.0000000000000000e+00  1.0227584902839035e+00 1.0471862175490911e-01 0.0000000000000000e+00  1.0332242477726468e+00 1.3641488867368601e-01 0.0000000000000000e+00  1.0447565739098927e+00 1.7121176375191907e-01 0.0000000000000000e+00  1.0572398530764768e+00 2.0870662829935968e-01 0.0000000000000000e+00  1.0705614178038798e+00 2.4850977243522246e-01 0.0000000000000000e+00  1.0846159169060765e+00 2.9026319691904362e-01 0.0000000000000000e+00  1.0993084082916085e+00 3.3364495764021546e-01 0.0000000000000000e+00  1.1145539873046417e+00 3.7837290076392655e-01 0.0000000000000000e+00  1.1302779700652588e+00 4.2419898608245166e-01 0.0000000000000000e+00  1.1464136758601358e+00 4.7090783114108609e-01 0.0000000000000000e+00  1.1629018082983171e+00 5.1830804843058498e-01 0.0000000000000000e+00  1.1796877049994323e+00 5.6623006478247062e-01 0.0000000000000000e+00  1.1967206354164182e+00 6.1451684676381946e-01 0.0000000000000000e+00  1.2139507570696584e+00 6.6302193623090255e-01 0.0000000000000000e+00  1.2313282453881604e+00 7.1159939018414820e-01 0.0000000000000000e+00  1.2487995530391969e+00 7.6010106061607197e-01 0.0000000000000000e+00  1.2663056852226928e+00 8.0836388499830869e-01 0.0000000000000000e+00  1.2837766511670459e+00 8.5620359345886510e-01 0.0000000000000000e+00  1.3011272302389998e+00 9.0339501703358449e-01 0.0000000000000000e+00  1.3182470648955709e+00 9.4965574451040713e-01 0.0000000000000000e+00  1.3349900391882110e+00 9.9460952020090876e-01 0.0000000000000000e+00  1.3511540684724708e+00 1.0377446477053014e+00 0.0000000000000000e+00  1.3664550496733450e+00 1.0783372538693690e+00 0.0000000000000000e+00  1.3804829267636634e+00 1.1153494223593041e+00 0.0000000000000000e+00  1.3926410800957150e+00 1.1472612347057423e+00 0.0000000000000000e+00  1.4020539700051668e+00 1.1718392362192871e+00 0.0000000000000000e+00  1.4074465655819273e+00 1.1857960636610578e+00 0.0000000000000000e+00  1.4069971133554084e+00 1.1843746039835290e+00 0.0000000000000000e+00  1.3982216455380547e+00 1.1609210380647423e+00 0.0000000000000000e+00  1.3780311803496961e+00 1.1068111325616412e+00 0.0000000000000000e+00  1.3432840308626672e+00 1.0125062503922078e+00 0.0000000000000000e+00  1.2923138151946358e+00 8.7131519930484491e-01 0.0000000000000000e+00  1.2275870867024230e+00 6.8711591794885640e-01 0.0000000000000000e+00  1.1579994403431173e+00 4.8313539702149300e-01 0.0000000000000000e+00  1.0965918603966922e+00 2.9835414484834005e-01 0.0000000000000000e+00  1.0525305715395148e+00 1.6332418756780365e-01 0.0000000000000000e+00  1.0261462566347559e+00 8.1592813692449875e-02 0.0000000000000000e+00  1.0122874202793324e+00 3.8416999250731457e-02 0.0000000000000000e+00  1.0055784541486910e+00 1.7456211593486540e-02 0.0000000000000000e+00  1.0024793759157051e+00 7.7622494332252462e-03 0.0000000000000000e+00  1.0010864325998432e+00 3.4013423156784768e-03 0.0000000000000000e+00  1.0004707770768733e+00 1.4745792173853935e-03 0.0000000000000000e+00  1.0002022076599129e+00 6.3283002219682318e-04 0.0000000000000000e+00  1.0000860392213404e+00 2.6978172430039312e-04 0.0000000000000000e+00  1.0000363837488073e+00 1.1362875624809364e-04 0.0000000000000000e+00  1.0000152241058327e+00 4.7935808628734720e-05 0.0000000000000000e+00  1.0000063437870850e+00 1.9661705503789565e-05 0.0000000000000000e+00  1.0000026311715684e+00 8.3783169488400322e-06 0.0000000000000000e+00  1.0000010461362832e+00 3.2121537604595657e-06 0.0000000000000000e+00  1.0000004847740323e+00 1.4979388851837782e-06 0.0000000000000000e+00  1.0000001096188189e+00 4.5661138380238764e-07 0.0000000000000000e+00  1.0000001614156271e+00 2.9016769655043114e-07 0.0000000000000000e+00  9.9999991381338360e-01 5.5663207262009284e-08 0.0000000000000000e+00  1.0000001523124717e+00 3.3652371429778242e-08 0.0000000000000000e+00  9.9999983542463622e-01 5.2263018143592726e-08 0.0000000000000000e+00  1.0000002003686503e+00 -6.9895557065744858e-08 0.0000000000000000e+00  9.9999977116058891e-01 1.1453793219094469e-07 0.0000000000000000e+00  1.0000002617996711e+00 -1.4772809233696792e-07 0.0000000000000000e+00  9.9999970571464569e-01 1.8342514571418548e-07 0.0000000000000000e+00  1.0000003278436844e+00 -2.1511862281365997e-07 0.0000000000000000e+00  9.9999963853019203e-01 2.4425124169245302e-07 0.0000000000000000e+00  1.0000003951251284e+00 -2.6923998065367663e-07 0.0000000000000000e+00  9.9999957161090069e-01 2.8974016579556999e-07 0.0000000000000000e+00  1.0000004609836441e+00 -3.0504020395702270e-07 0.0000000000000000e+00  9.9999950741977561e-01 3.1470406278128672e-07 0.0000000000000000e+00  1.0000005228799644e+00 -3.1835025917873213e-07 0.0000000000000000e+00  9.9999944841072952e-01 3.1575801917098581e-07 0.0000000000000000e+00  1.0000005784345605e+00 -3.0684038379502722e-07 0.0000000000000000e+00  9.9999939683899353e-01 2.9166638090922779e-07 0.0000000000000000e+00  1.0000006255369811e+00 -2.7045406653755768e-07 0.0000000000000000e+00  9.9999935464501510e-01 2.4357307907125167e-07 0.0000000000000000e+00  1.0000006624338069e+00 -2.1153301191795764e-07 0.0000000000000000e+00  9.9999932338110353e-01 1.7497554831721203e-07 0.0000000000000000e+00  1.0000006877836185e+00 -1.3465595085827264e-07 0.0000000000000000e+00  9.9999930417099947e-01 9.1427057585470189e-08 0.0000000000000000e+00  1.0000007006845637e+00 -4.6215577260523435e-08 0.0000000000000000e+00  9.9999929769226059e-01 0.0000000000000000e+00 0.0000000000000000e+00  </DataArray> 
</PointData> 
</Piece>
</UnstructuredGrid>
</VTKFile>