<?xml version="1.0"?>
<VTKFile type="UnstructuredGrid"  version="0.1"  >
<UnstructuredGrid>
<Piece  NumberOfPoints="201" NumberOfCells="200">
<Points>
<DataArray  type="Float64"  NumberOfComponents="3"  format="ascii">-5 0 0  -4.95 0 0  -4.9 0 0  -4.85 0 0  -4.8 0 0  -4.75 0 0  -4.7 0 0  -4.65 0 0  -4.6 0 0  -4.55 0 0  -4.5 0 0  -4.45 0 0  -4.4 0 0  -4.35 0 0  -4.3 0 0  -4.25 0 0  -4.2 0 0  -4.15 0 0  -4.1 0 0  -4.05 0 0  -4 0 0  -3.95 0 0  -3.9 0 0  -3.85 0 0  -3.8 0 0  -3.75 0 0  -3.7 0 0  -3.65 0 0  -3.6 0 0  -3.55 0 0  -3.5 0 0  -3.45 0 0  -3.4 0 0  -3.35 0 0  -3.3 0 0  -3.25 0 0  -3.2 0 0  -3.15 0 0  -3.1 0 0  -3.05 0 0  -3 0 0  -2.95 0 0  -2.9 0 0  -2.85 0 0  -2.8 0 0  -2.75 0 0  -2.7 0 0  -2.65 0 0  -2.6 0 0  -2.55 0 0  -2.5 0 0  -2.45 0 0  -2.4 0 0  -2.35 0 0  -2.3 0 0  -2.25 0 0  -2.2 0 0  -2.15 0 0  -2.1 0 0  -2.05 0 0  -2 0 0  -1.95 0 0  -1.9 0 0  -1.85 0 0  -1.8 0 0  -1.75 0 0  -1.7 0 0  -1.65 0 0  -1.6 0 0  -1.55 0 0  -1.5 0 0  -1.45 0 0  -1.4 0 0  -1.35 0 0  -1.3 0 0  -1.25 0 0  -1.2 0 0  -1.15 0 0  -1.1 0 0  -1.05 0 0  -1 0 0  -0.9500000000000002 0 0  -0.9000000000000004 0 0  -0.8499999999999996 0 0  -0.7999999999999998 0 0  -0.75 0 0  -0.7000000000000002 0 0  -0.6500000000000004 0 0  -0.5999999999999996 0 0  -0.5499999999999998 0 0  -0.5 0 0  -0.4500000000000002 0 0  -0.4000000000000004 0 0  -0.3499999999999996 0 0  -0.2999999999999998 0 0  -0.25 0 0  -0.2000000000000002 0 0  -0.1500000000000004 0 0  -0.09999999999999964 0 0  -0.04999999999999982 0 0  0 0 0  0.04999999999999982 0 0  0.09999999999999964 0 0  0.1500000000000004 0 0  0.2000000000000002 0 0  0.25 0 0  0.2999999999999998 0 0  0.3499999999999996 0 0  0.4000000000000004 0 0  0.4500000000000002 0 0  0.5 0 0  0.5499999999999998 0 0  0.5999999999999996 0 0  0.6500000000000004 0 0  0.7000000000000002 0 0  0.75 0 0  0.7999999999999998 0 0  0.8499999999999996 0 0  0.9000000000000004 0 0  0.9500000000000002 0 0  1 0 0  1.05 0 0  1.1 0 0  1.15 0 0  1.2 0 0  1.25 0 0  1.3 0 0  1.35 0 0  1.4 0 0  1.45 0 0  1.5 0 0  1.55 0 0  1.6 0 0  1.65 0 0  1.7 0 0  1.75 0 0  1.8 0 0  1.85 0 0  1.9 0 0  1.95 0 0  2 0 0  2.05 0 0  2.1 0 0  2.15 0 0  2.2 0 0  2.25 0 0  2.3 0 0  2.35 0 0  2.4 0 0  2.45 0 0  2.5 0 0  2.55 0 0  2.6 0 0  2.65 0 0  2.7 0 0  2.75 0 0  2.8 0 0  2.85 0 0  2.9 0 0  2.95 0 0  3 0 0  3.050000000000001 0 0  3.1 0 0  3.15 0 0  3.199999999999999 0 0  3.25 0 0  3.300000000000001 0 0  3.35 0 0  3.4 0 0  3.449999999999999 0 0  3.5 0 0  3.550000000000001 0 0  3.6 0 0  3.65 0 0  3.699999999999999 0 0  3.75 0 0  3.800000000000001 0 0  3.85 0 0  3.9 0 0  3.949999999999999 0 0  4 0 0  4.050000000000001 0 0  4.1 0 0  4.15 0 0  4.199999999999999 0 0  4.25 0 0  4.300000000000001 0 0  4.35 0 0  4.4 0 0  4.449999999999999 0 0  4.5 0 0  4.550000000000001 0 0  4.6 0 0  4.65 0 0  4.699999999999999 0 0  4.75 0 0  4.800000000000001 0 0  4.85 0 0  4.9 0 0  4.949999999999999 0 0  5 0 0  </DataArray>
</Points>
<Cells>
<DataArray  type="UInt32"  Name="connectivity"  format="ascii">0 1  1 2  2 3  3 4  4 5  5 6  6 7  7 8  8 9  9 10  10 11  11 12  12 13  13 14  14 15  15 16  16 17  17 18  18 19  19 20  20 21  21 22  22 23  23 24  24 25  25 26  26 27  27 28  28 29  29 30  30 31  31 32  32 33  33 34  34 35  35 36  36 37  37 38  38 39  39 40  40 41  41 42  42 43  43 44  44 45  45 46  46 47  47 48  48 49  49 50  50 51  51 52  52 53  53 54  54 55  55 56  56 57  57 58  58 59  59 60  60 61  61 62  62 63  63 64  64 65  65 66  66 67  67 68  68 69  69 70  70 71  71 72  72 73  73 74  74 75  75 76  76 77  77 78  78 79  79 80  80 81  81 82  82 83  83 84  84 85  85 86  86 87  87 88  88 89  89 90  90 91  91 92  92 93  93 94  94 95  95 96  96 97  97 98  98 99  99 100  100 101  101 102  102 103  103 104  104 105  105 106  106 107  107 108  108 109  109 110  110 111  111 112  112 113  113 114  114 115  115 116  116 117  117 118  118 119  119 120  120 121  121 122  122 123  123 124  124 125  125 126  126 127  127 128  128 129  129 130  130 131  131 132  132 133  133 134  134 135  135 136  136 137  137 138  138 139  139 140  140 141  141 142  142 143  143 144  144 145  145 146  146 147  147 148  148 149  149 150  150 151  151 152  152 153  153 154  154 155  155 156  156 157  157 158  158 159  159 160  160 161  161 162  162 163  163 164  164 165  165 166  166 167  167 168  168 169  169 170  170 171  171 172  172 173  173 174  174 175  175 176  176 177  177 178  178 179  179 180  180 181  181 182  182 183  183 184  184 185  185 186  186 187  187 188  188 189  189 190  190 191  191 192  192 193  193 194  194 195  195 196  196 197  197 198  198 199  199 200  </DataArray>
<DataArray  type="UInt32"  Name="offsets"  format="ascii">2 4 6 8 10 12 14 16 18 20 22 24 26 28 30 32 34 36 38 40 42 44 46 48 50 52 54 56 58 60 62 64 66 68 70 72 74 76 78 80 82 84 86 88 90 92 94 96 98 100 102 104 106 108 110 112 114 116 118 120 122 124 126 128 130 132 134 136 138 140 142 144 146 148 150 152 154 156 158 160 162 164 166 168 170 172 174 176 178 180 182 184 186 188 190 192 194 196 198 200 202 204 206 208 210 212 214 216 218 220 222 224 226 228 230 232 234 236 238 240 242 244 246 248 250 252 254 256 258 260 262 264 266 268 270 272 274 276 278 280 282 284 286 288 290 292 294 296 298 300 302 304 306 308 310 312 314 316 318 320 322 324 326 328 330 332 334 336 338 340 342 344 346 348 350 352 354 356 358 360 362 364 366 368 370 372 374 376 378 380 382 384 386 388 390 392 394 396 398 400 </DataArray>
<DataArray  type="UInt8"  Name="types"  format="ascii">3 3 3 3 3 3 3 3 3 3 3 3 3 3 3 3 3 3 3 3 3 3 3 3 3 3 3 3 3 3 3 3 3 3 3 3 3 3 3 3 3 3 3 3 3 3 3 3 3 3 3 3 3 3 3 3 3 3 3 3 3 3 3 3 3 3 3 3 3 3 3 3 3 3 3 3 3 3 3 3 3 3 3 3 3 3 3 3 3 3 3 3 3 3 3 3 3 3 3 3 3 3 3 3 3 3 3 3 3 3 3 3 3 3 3 3 3 3 3 3 3 3 3 3 3 3 3 3 3 3 3 3 3 3 3 3 3 3 3 3 3 3 3 3 3 3 3 3 3 3 3 3 3 3 3 3 3 3 3 3 3 3 3 3 3 3 3 3 3 3 3 3 3 3 3 3 3 3 3 3 3 3 3 3 3 3 3 3 3 3 3 3 3 3 3 3 3 3 3 3 </DataArray>
</Cells>
<PointData  Vectors="(h, u)"> 
<DataArray  type="Float64"  Name="(h, u)"  NumberOfComponents="3" format="ascii">1.0994104360272696e+00 0.0000000000000000e+00 0.0000000000000000e+00  1.0994222469937966e+00 1.2361705790112486e-02 0.0000000000000000e+00  1.0994561960945379e+00 2.4719009243686588e-02 0.0000000000000000e+00  1.0995139655521871e+00 3.7067369568046002e-02 0.0000000000000000e+00  1.0995942753321843e+00 4.9402445121355200e-02 0.0000000000000000e+00  1.0996990032452261e+00 6.1719479857084723e-02 0.0000000000000000e+00  1.0998270807526882e+00 7.4014114859720384e-02 0.0000000000000000e+00  1.0999805807464147e+00 8.6281303833354001e-02 0.0000000000000000e+00  1.1001586558941825e+00 9.8516593454423151e-02 0.0000000000000000e+00  1.1003635754936740e+00 1.1071457527661165e-01 0.0000000000000000e+00  1.1005947243436616e+00 1.2287062697690583e-01 0.0000000000000000e+00  1.1008545704088131e+00 1.3497891129900855e-01 0.0000000000000000e+00  1.1011427415451478e+00 1.4703456766915024e-01 0.0000000000000000e+00  1.1014619061723960e+00 1.5903127204593376e-01 0.0000000000000000e+00  1.1018119443372392e+00 1.7096386603771732e-01 0.0000000000000000e+00  1.1021957241542413e+00 1.8282549473743204e-01 0.0000000000000000e+00  1.1026133826626412e+00 1.9461065841249689e-01 0.0000000000000000e+00  1.1030679814533453e+00 2.0631194852995879e-01 0.0000000000000000e+00  1.1035599115801200e+00 2.1792350530932589e-01 0.0000000000000000e+00  1.1040924125366254e+00 2.2943737509963649e-01 0.0000000000000000e+00  1.1046661141531326e+00 2.4084735552406986e-01 0.0000000000000000e+00  1.1052844039399130e+00 2.5214500000281148e-01 0.0000000000000000e+00  1.1059481174935177e+00 2.6332383072292842e-01 0.0000000000000000e+00  1.1066607402238047e+00 2.7437501815467658e-01 0.0000000000000000e+00  1.1074232563992634e+00 2.8529194037067473e-01 0.0000000000000000e+00  1.1082391724999370e+00 2.9606556649240984e-01 0.0000000000000000e+00  1.1091095337720058e+00 3.0668933852834790e-01 0.0000000000000000e+00  1.1100377579991785e+00 3.1715428728830519e-01 0.0000000000000000e+00  1.1110248274500025e+00 3.2745420934598057e-01 0.0000000000000000e+00  1.1120739238302531e+00 3.3758054146121380e-01 0.0000000000000000e+00  1.1131858028905814e+00 3.4752779988958260e-01 0.0000000000000000e+00  1.1143632237222012e+00 3.5728823419610800e-01 0.0000000000000000e+00  1.1156065130023722e+00 3.6685748846001942e-01 0.0000000000000000e+00  1.1169177844185558e+00 3.7622904725207335e-01 0.0000000000000000e+00  1.1182966992165539e+00 3.8540006819931494e-01 0.0000000000000000e+00  1.1197444737801661e+00 3.9436562198028335e-01 0.0000000000000000e+00  1.1212598419687694e+00 4.0312463353078914e-01 0.0000000000000000e+00  1.1228428495495122e+00 4.1167390464285974e-01 0.0000000000000000e+00  1.1244910202572449e+00 4.2001408708050336e-01 0.0000000000000000e+00  1.1262029329479466e+00 4.2814346059160530e-01 0.0000000000000000e+00  1.1279745850799809e+00 4.3606384408499721e-01 0.0000000000000000e+00  1.1298027393416439e+00 4.4377408057852524e-01 0.0000000000000000e+00  1.1316814620629723e+00 4.5127576651629098e-01 0.0000000000000000e+00  1.1336052067034541e+00 4.5856635869198470e-01 0.0000000000000000e+00  1.1355654757574944e+00 4.6564455174263708e-01 0.0000000000000000e+00  1.1375535728265633e+00 4.7250284884704663e-01 0.0000000000000000e+00  1.1395572872296253e+00 4.7913231383847238e-01 0.0000000000000000e+00  1.1415631846325698e+00 4.8551429907797128e-01 0.0000000000000000e+00  1.1435531316550429e+00 4.9162409403430418e-01 0.0000000000000000e+00  1.1455058928754989e+00 4.9742122565000918e-01 0.0000000000000000e+00  1.1473931835188282e+00 5.0285116369760530e-01 0.0000000000000000e+00  1.1491801874145937e+00 5.0783315720473443e-01 0.0000000000000000e+00  1.1508206526718987e+00 5.1225863398069671e-01 0.0000000000000000e+00  1.1522557777488462e+00 5.1597499998790763e-01 0.0000000000000000e+00  1.1534077550310988e+00 5.1877896776349119e-01 0.0000000000000000e+00  1.1541765325890965e+00 5.2039477537841983e-01 0.0000000000000000e+00  1.1544316487262440e+00 5.2046171731461011e-01 0.0000000000000000e+00  1.1540075602629782e+00 5.1850830130133063e-01 0.0000000000000000e+00  1.1526961301297318e+00 5.1394001888427177e-01 0.0000000000000000e+00  1.1502459208792057e+00 5.0602390978360268e-01 0.0000000000000000e+00  1.1463655894314275e+00 4.9390485435133735e-01 0.0000000000000000e+00  1.1407442148842910e+00 4.7664894321832585e-01 0.0000000000000000e+00  1.1330900681960767e+00 4.5336009906902791e-01 0.0000000000000000e+00  1.1231999758757771e+00 4.2336924537505100e-01 0.0000000000000000e+00  1.1110516428607757e+00 3.8651827294304780e-01 0.0000000000000000e+00  1.0969039727793757e+00 3.4346559407685173e-01 0.0000000000000000e+00  1.0813556931190116e+00 2.9590556977574345e-01 0.0000000000000000e+00  1.0653100632124299e+00 2.4650095016873602e-01 0.0000000000000000e+00  1.0498124230922441e+00 1.9843534144770075e-01 0.0000000000000000e+00  1.0358089073676737e+00 1.5467154716113082e-01 0.0000000000000000e+00  1.0239323468577102e+00 1.1726737916289380e-01 0.0000000000000000e+00  1.0144175702528628e+00 8.7057954366062146e-02 0.0000000000000000e+00  1.0071562985144449e+00 6.3796814655393067e-02 0.0000000000000000e+00  1.0018308696021558e+00 4.6551001417900043e-02 0.0000000000000000e+00  9.9804671092148756e-01 3.4123514258457131e-02 0.0000000000000000e+00  9.9542432329890651e-01 2.5342428248814563e-02 0.0000000000000000e+00  9.9364320831592079e-01 1.9212948976304413e-02 0.0000000000000000e+00  9.9245416075403536e-01 1.4954910890711154e-02 0.0000000000000000e+00  9.9167278877830434e-01 1.1991955233368191e-02 0.0000000000000000e+00  9.9116788506566145e-01 9.9104237204370171e-03 0.0000000000000000e+00  9.9084787293796905e-01 8.4236958477370630e-03 0.0000000000000000e+00  9.9065040580968844e-01 7.3338546002727888e-03 0.0000000000000000e+00  9.9053311679276734e-01 6.5086611612528468e-03 0.0000000000000000e+00  9.9046795217360106e-01 5.8580181639918665e-03 0.0000000000000000e+00  9.9043602234751416e-01 5.3234685262570731e-03 0.0000000000000000e+00  9.9042514891623645e-01 4.8649417082100507e-03 0.0000000000000000e+00  9.9042706747083253e-01 4.4573789778476957e-03 0.0000000000000000e+00  9.9043666630500382e-01 4.0830463706469401e-03 0.0000000000000000e+00  9.9045034279784527e-01 3.7315182465567152e-03 0.0000000000000000e+00  9.9046605443251545e-01 3.3948244830140813e-03 0.0000000000000000e+00  9.9048219951640326e-01 3.0687896879635734e-03 0.0000000000000000e+00  9.9049804466085423e-01 2.7496732122718839e-03 0.0000000000000000e+00  9.9051283079291563e-01 2.4358938292399291e-03 0.0000000000000000e+00  9.9052637430997925e-01 2.1255551434584763e-03 0.0000000000000000e+00  9.9053826375084575e-01 1.8181012103119440e-03 0.0000000000000000e+00  9.9054854270441717e-01 1.5124686572606427e-03 0.0000000000000000e+00  9.9055693928383748e-01 1.2084608800536020e-03 0.0000000000000000e+00  9.9056358902345787e-01 9.0542418863099130e-04 0.0000000000000000e+00  9.9056827402344894e-01 6.0323959720422410e-04 0.0000000000000000e+00  9.9057116608316076e-01 3.0148592464301053e-04 0.0000000000000000e+00  9.9057206786638607e-01 2.5305929310147794e-16 0.0000000000000000e+00  9.9057116608316087e-01 -3.0148592464558535e-04 0.0000000000000000e+00  9.9056827402344894e-01 -6.0323959720337875e-04 0.0000000000000000e+00  9.9056358902345820e-01 -9.0542418863368240e-04 0.0000000000000000e+00  9.9055693928383748e-01 -1.2084608800519928e-03 0.0000000000000000e+00  9.9054854270441772e-01 -1.5124686572627075e-03 0.0000000000000000e+00  9.9053826375084564e-01 -1.8181012103102286e-03 0.0000000000000000e+00  9.9052637430997970e-01 -2.1255551434605350e-03 0.0000000000000000e+00  9.9051283079291552e-01 -2.4358938292375876e-03 0.0000000000000000e+00  9.9049804466085456e-01 -2.7496732122730375e-03 0.0000000000000000e+00  9.9048219951640326e-01 -3.0687896879612090e-03 0.0000000000000000e+00  9.9046605443251601e-01 -3.3948244830147279e-03 0.0000000000000000e+00  9.9045034279784527e-01 -3.7315182465541127e-03 0.0000000000000000e+00  9.9043666630500427e-01 -4.0830463706475906e-03 0.0000000000000000e+00  9.9042706747083253e-01 -4.4573789778445958e-03 0.0000000000000000e+00  9.9042514891623679e-01 -4.8649417082103881e-03 0.0000000000000000e+00  9.9043602234751438e-01 -5.3234685262540538e-03 0.0000000000000000e+00  9.9046795217360151e-01 -5.8580181639917347e-03 0.0000000000000000e+00  9.9053311679276734e-01 -6.5086611612505873e-03 0.0000000000000000e+00  9.9065040580968888e-01 -7.3338546002736033e-03 0.0000000000000000e+00  9.9084787293796905e-01 -8.4236958477355434e-03 0.0000000000000000e+00  9.9116788506566211e-01 -9.9104237204374977e-03 0.0000000000000000e+00  9.9167278877830434e-01 -1.1991955233366498e-02 0.0000000000000000e+00  9.9245416075403603e-01 -1.4954910890711841e-02 0.0000000000000000e+00  9.9364320831592079e-01 -1.9212948976303702e-02 0.0000000000000000e+00  9.9542432329890718e-01 -2.5342428248815899e-02 0.0000000000000000e+00  9.9804671092148756e-01 -3.4123514258457513e-02 0.0000000000000000e+00  1.0018308696021565e+00 -4.6551001417902201e-02 0.0000000000000000e+00  1.0071562985144449e+00 -6.3796814655393691e-02 0.0000000000000000e+00  1.0144175702528635e+00 -8.7057954366064366e-02 0.0000000000000000e+00  1.0239323468577100e+00 -1.1726737916289461e-01 0.0000000000000000e+00  1.0358089073676744e+00 -1.5467154716113271e-01 0.0000000000000000e+00  1.0498124230922439e+00 -1.9843534144770081e-01 0.0000000000000000e+00  1.0653100632124308e+00 -2.4650095016873896e-01 0.0000000000000000e+00  1.0813556931190116e+00 -2.9590556977574461e-01 0.0000000000000000e+00  1.0969039727793761e+00 -3.4346559407685356e-01 0.0000000000000000e+00  1.1110516428607755e+00 -3.8651827294304975e-01 0.0000000000000000e+00  1.1231999758757774e+00 -4.2336924537505272e-01 0.0000000000000000e+00  1.1330900681960765e+00 -4.5336009906902963e-01 0.0000000000000000e+00  1.1407442148842912e+00 -4.7664894321832796e-01 0.0000000000000000e+00  1.1463655894314271e+00 -4.9390485435133902e-01 0.0000000000000000e+00  1.1502459208792057e+00 -5.0602390978360501e-01 0.0000000000000000e+00  1.1526961301297316e+00 -5.1394001888427310e-01 0.0000000000000000e+00  1.1540075602629787e+00 -5.1850830130133230e-01 0.0000000000000000e+00  1.1544316487262440e+00 -5.2046171731461011e-01 0.0000000000000000e+00  1.1541765325890969e+00 -5.2039477537842072e-01 0.0000000000000000e+00  1.1534077550310984e+00 -5.1877896776349064e-01 0.0000000000000000e+00  1.1522557777488469e+00 -5.1597499998790908e-01 0.0000000000000000e+00  1.1508206526718980e+00 -5.1225863398069582e-01 0.0000000000000000e+00  1.1491801874145942e+00 -5.0783315720473521e-01 0.0000000000000000e+00  1.1473931835188276e+00 -5.0285116369760430e-01 0.0000000000000000e+00  1.1455058928754995e+00 -4.9742122565000985e-01 0.0000000000000000e+00  1.1435531316550425e+00 -4.9162409403430246e-01 0.0000000000000000e+00  1.1415631846325702e+00 -4.8551429907797139e-01 0.0000000000000000e+00  1.1395572872296249e+00 -4.7913231383846999e-01 0.0000000000000000e+00  1.1375535728265633e+00 -4.7250284884704619e-01 0.0000000000000000e+00  1.1355654757574936e+00 -4.6564455174263425e-01 0.0000000000000000e+00  1.1336052067034537e+00 -4.5856635869198470e-01 0.0000000000000000e+00  1.1316814620629712e+00 -4.5127576651628953e-01 0.0000000000000000e+00  1.1298027393416432e+00 -4.4377408057852585e-01 0.0000000000000000e+00  1.1279745850799801e+00 -4.3606384408499671e-01 0.0000000000000000e+00  1.1262029329479462e+00 -4.2814346059160635e-01 0.0000000000000000e+00  1.1244910202572445e+00 -4.2001408708050242e-01 0.0000000000000000e+00  1.1228428495495115e+00 -4.1167390464285997e-01 0.0000000000000000e+00  1.1212598419687689e+00 -4.0312463353078803e-01 0.0000000000000000e+00  1.1197444737801656e+00 -3.9436562198028413e-01 0.0000000000000000e+00  1.1182966992165535e+00 -3.8540006819931361e-01 0.0000000000000000e+00  1.1169177844185554e+00 -3.7622904725207507e-01 0.0000000000000000e+00  1.1156065130023718e+00 -3.6685748846001781e-01 0.0000000000000000e+00  1.1143632237222008e+00 -3.5728823419610861e-01 0.0000000000000000e+00  1.1131858028905810e+00 -3.4752779988958110e-01 0.0000000000000000e+00  1.1120739238302526e+00 -3.3758054146121458e-01 0.0000000000000000e+00  1.1110248274500021e+00 -3.2745420934597880e-01 0.0000000000000000e+00  1.1100377579991783e+00 -3.1715428728830530e-01 0.0000000000000000e+00  1.1091095337720058e+00 -3.0668933852834612e-01 0.0000000000000000e+00  1.1082391724999370e+00 -2.9606556649240900e-01 0.0000000000000000e+00  1.1074232563992632e+00 -2.8529194037067351e-01 0.0000000000000000e+00  1.1066607402238045e+00 -2.7437501815467719e-01 0.0000000000000000e+00  1.1059481174935175e+00 -2.6332383072292775e-01 0.0000000000000000e+00  1.1052844039399128e+00 -2.5214500000281209e-01 0.0000000000000000e+00  1.1046661141531324e+00 -2.4084735552406908e-01 0.0000000000000000e+00  1.1040924125366252e+00 -2.2943737509963610e-01 0.0000000000000000e+00  1.1035599115801198e+00 -2.1792350530932533e-01 0.0000000000000000e+00  1.1030679814533453e+00 -2.0631194852995949e-01 0.0000000000000000e+00  1.1026133826626408e+00 -1.9461065841249686e-01 0.0000000000000000e+00  1.1021957241542411e+00 -1.8282549473743243e-01 0.0000000000000000e+00  1.1018119443372392e+00 -1.7096386603771574e-01 0.0000000000000000e+00  1.1014619061723958e+00 -1.5903127204593456e-01 0.0000000000000000e+00  1.1011427415451478e+00 -1.4703456766915093e-01 0.0000000000000000e+00  1.1008545704088131e+00 -1.3497891129901021e-01 0.0000000000000000e+00  1.1005947243436613e+00 -1.2287062697690522e-01 0.0000000000000000e+00  1.1003635754936740e+00 -1.1071457527661289e-01 0.0000000000000000e+00  1.1001586558941820e+00 -9.8516593454423096e-02 0.0000000000000000e+00  1.0999805807464142e+00 -8.6281303833355971e-02 0.0000000000000000e+00  1.0998270807526875e+00 -7.4014114859720467e-02 0.0000000000000000e+00  1.0996990032452254e+00 -6.1719479857086701e-02 0.0000000000000000e+00  1.0995942753321837e+00 -4.9402445121355401e-02 0.0000000000000000e+00  1.0995139655521864e+00 -3.7067369568047924e-02 0.0000000000000000e+00  1.0994561960945382e+00 -2.4719009243686613e-02 0.0000000000000000e+00  1.0994222469937964e+00 -1.2361705790112329e-02 0.0000000000000000e+00  1.0994104360272698e+00 0.0000000000000000e+00 0.0000000000000000e+00  </DataArray> 
</PointData> 
</Piece>
</UnstructuredGrid>
</VTKFile>