<?xml version="1.0"?>
<VTKFile type="UnstructuredGrid"  version="0.1"  >
<UnstructuredGrid>
<Piece  NumberOfPoints="201" NumberOfCells="200">
<Points>
<DataArray  type="Float64"  NumberOfComponents="3"  format="ascii">-5 0 0  -4.95 0 0  -4.9 0 0  -4.85 0 0  -4.8 0 0  -4.75 0 0  -4.7 0 0  -4.65 0 0  -4.6 0 0  -4.55 0 0  -4.5 0 0  -4.45 0 0  -4.4 0 0  -4.35 0 0  -4.3 0 0  -4.25 0 0  -4.2 0 0  -4.15 0 0  -4.1 0 0  -4.05 0 0  -4 0 0  -3.95 0 0  -3.9 0 0  -3.85 0 0  -3.8 0 0  -3.75 0 0  -3.7 0 0  -3.65 0 0  -3.6 0 0  -3.55 0 0  -3.5 0 0  -3.45 0 0  -3.4 0 0  -3.35 0 0  -3.3 0 0  -3.25 0 0  -3.2 0 0  -3.15 0 0  -3.1 0 0  -3.05 0 0  -3 0 0  -2.95 0 0  -2.9 0 0  -2.85 0 0  -2.8 0 0  -2.75 0 0  -2.7 0 0  -2.65 0 0  -2.6 0 0  -2.55 0 0  -2.5 0 0  -2.45 0 0  -2.4 0 0  -2.35 0 0  -2.3 0 0  -2.25 0 0  -2.2 0 0  -2.15 0 0  -2.1 0 0  -2.05 0 0  -2 0 0  -1.95 0 0  -1.9 0 0  -1.85 0 0  -1.8 0 0  -1.75 0 0  -1.7 0 0  -1.65 0 0  -1.6 0 0  -1.55 0 0  -1.5 0 0  -1.45 0 0  -1.4 0 0  -1.35 0 0  -1.3 0 0  -1.25 0 0  -1.2 0 0  -1.15 0 0  -1.1 0 0  -1.05 0 0  -1 0 0  -0.9500000000000002 0 0  -0.9000000000000004 0 0  -0.8499999999999996 0 0  -0.7999999999999998 0 0  -0.75 0 0  -0.7000000000000002 0 0  -0.6500000000000004 0 0  -0.5999999999999996 0 0  -0.5499999999999998 0 0  -0.5 0 0  -0.4500000000000002 0 0  -0.4000000000000004 0 0  -0.3499999999999996 0 0  -0.2999999999999998 0 0  -0.25 0 0  -0.2000000000000002 0 0  -0.1500000000000004 0 0  -0.09999999999999964 0 0  -0.04999999999999982 0 0  0 0 0  0.04999999999999982 0 0  0.09999999999999964 0 0  0.1500000000000004 0 0  0.2000000000000002 0 0  0.25 0 0  0.2999999999999998 0 0  0.3499999999999996 0 0  0.4000000000000004 0 0  0.4500000000000002 0 0  0.5 0 0  0.5499999999999998 0 0  0.5999999999999996 0 0  0.6500000000000004 0 0  0.7000000000000002 0 0  0.75 0 0  0.7999999999999998 0 0  0.8499999999999996 0 0  0.9000000000000004 0 0  0.9500000000000002 0 0  1 0 0  1.05 0 0  1.1 0 0  1.15 0 0  1.2 0 0  1.25 0 0  1.3 0 0  1.35 0 0  1.4 0 0  1.45 0 0  1.5 0 0  1.55 0 0  1.6 0 0  1.65 0 0  1.7 0 0  1.75 0 0  1.8 0 0  1.85 0 0  1.9 0 0  1.95 0 0  2 0 0  2.05 0 0  2.1 0 0  2.15 0 0  2.2 0 0  2.25 0 0  2.3 0 0  2.35 0 0  2.4 0 0  2.45 0 0  2.5 0 0  2.55 0 0  2.6 0 0  2.65 0 0  2.7 0 0  2.75 0 0  2.8 0 0  2.85 0 0  2.9 0 0  2.95 0 0  3 0 0  3.050000000000001 0 0  3.1 0 0  3.15 0 0  3.199999999999999 0 0  3.25 0 0  3.300000000000001 0 0  3.35 0 0  3.4 0 0  3.449999999999999 0 0  3.5 0 0  3.550000000000001 0 0  3.6 0 0  3.65 0 0  3.699999999999999 0 0  3.75 0 0  3.800000000000001 0 0  3.85 0 0  3.9 0 0  3.949999999999999 0 0  4 0 0  4.050000000000001 0 0  4.1 0 0  4.15 0 0  4.199999999999999 0 0  4.25 0 0  4.300000000000001 0 0  4.35 0 0  4.4 0 0  4.449999999999999 0 0  4.5 0 0  4.550000000000001 0 0  4.6 0 0  4.65 0 0  4.699999999999999 0 0  4.75 0 0  4.800000000000001 0 0  4.85 0 0  4.9 0 0  4.949999999999999 0 0  5 0 0  </DataArray>
</Points>
<Cells>
<DataArray  type="UInt32"  Name="connectivity"  format="ascii">0 1  1 2  2 3  3 4  4 5  5 6  6 7  7 8  8 9  9 10  10 11  11 12  12 13  13 14  14 15  15 16  16 17  17 18  18 19  19 20  20 21  21 22  22 23  23 24  24 25  25 26  26 27  27 28  28 29  29 30  30 31  31 32  32 33  33 34  34 35  35 36  36 37  37 38  38 39  39 40  40 41  41 42  42 43  43 44  44 45  45 46  46 47  47 48  48 49  49 50  50 51  51 52  52 53  53 54  54 55  55 56  56 57  57 58  58 59  59 60  60 61  61 62  62 63  63 64  64 65  65 66  66 67  67 68  68 69  69 70  70 71  71 72  72 73  73 74  74 75  75 76  76 77  77 78  78 79  79 80  80 81  81 82  82 83  83 84  84 85  85 86  86 87  87 88  88 89  89 90  90 91  91 92  92 93  93 94  94 95  95 96  96 97  97 98  98 99  99 100  100 101  101 102  102 103  103 104  104 105  105 106  106 107  107 108  108 109  109 110  110 111  111 112  112 113  113 114  114 115  115 116  116 117  117 118  118 119  119 120  120 121  121 122  122 123  123 124  124 125  125 126  126 127  127 128  128 129  129 130  130 131  131 132  132 133  133 134  134 135  135 136  136 137  137 138  138 139  139 140  140 141  141 142  142 143  143 144  144 145  145 146  146 147  147 148  148 149  149 150  150 151  151 152  152 153  153 154  154 155  155 156  156 157  157 158  158 159  159 160  160 161  161 162  162 163  163 164  164 165  165 166  166 167  167 168  168 169  169 170  170 171  171 172  172 173  173 174  174 175  175 176  176 177  177 178  178 179  179 180  180 181  181 182  182 183  183 184  184 185  185 186  186 187  187 188  188 189  189 190  190 191  191 192  192 193  193 194  194 195  195 196  196 197  197 198  198 199  199 200  </DataArray>
<DataArray  type="UInt32"  Name="offsets"  format="ascii">2 4 6 8 10 12 14 16 18 20 22 24 26 28 30 32 34 36 38 40 42 44 46 48 50 52 54 56 58 60 62 64 66 68 70 72 74 76 78 80 82 84 86 88 90 92 94 96 98 100 102 104 106 108 110 112 114 116 118 120 122 124 126 128 130 132 134 136 138 140 142 144 146 148 150 152 154 156 158 160 162 164 166 168 170 172 174 176 178 180 182 184 186 188 190 192 194 196 198 200 202 204 206 208 210 212 214 216 218 220 222 224 226 228 230 232 234 236 238 240 242 244 246 248 250 252 254 256 258 260 262 264 266 268 270 272 274 276 278 280 282 284 286 288 290 292 294 296 298 300 302 304 306 308 310 312 314 316 318 320 322 324 326 328 330 332 334 336 338 340 342 344 346 348 350 352 354 356 358 360 362 364 366 368 370 372 374 376 378 380 382 384 386 388 390 392 394 396 398 400 </DataArray>
<DataArray  type="UInt8"  Name="types"  format="ascii">3 3 3 3 3 3 3 3 3 3 3 3 3 3 3 3 3 3 3 3 3 3 3 3 3 3 3 3 3 3 3 3 3 3 3 3 3 3 3 3 3 3 3 3 3 3 3 3 3 3 3 3 3 3 3 3 3 3 3 3 3 3 3 3 3 3 3 3 3 3 3 3 3 3 3 3 3 3 3 3 3 3 3 3 3 3 3 3 3 3 3 3 3 3 3 3 3 3 3 3 3 3 3 3 3 3 3 3 3 3 3 3 3 3 3 3 3 3 3 3 3 3 3 3 3 3 3 3 3 3 3 3 3 3 3 3 3 3 3 3 3 3 3 3 3 3 3 3 3 3 3 3 3 3 3 3 3 3 3 3 3 3 3 3 3 3 3 3 3 3 3 3 3 3 3 3 3 3 3 3 3 3 3 3 3 3 3 3 3 3 3 3 3 3 3 3 3 3 3 3 </DataArray>
</Cells>
<PointData  Vectors="(h, u)"> 
<DataArray  type="Float64"  Name="(h, u)"  NumberOfComponents="3" format="ascii">1.0000000000000040e+00 0.0000000000000000e+00 0.0000000000000000e+00  9.9999999999999600e-01 -4.3053813108437107e-15 0.0000000000000000e+00  1.0000000000000049e+00 8.6636852184230578e-15 0.0000000000000000e+00  9.9999999999999423e-01 -1.5501528517263735e-14 0.0000000000000000e+00  1.0000000000000080e+00 2.1989194959893475e-14 0.0000000000000000e+00  9.9999999999998945e-01 -3.2005799304352432e-14 0.0000000000000000e+00  1.0000000000000147e+00 4.5113916361144516e-14 0.0000000000000000e+00  9.9999999999997990e-01 -6.3055108647883834e-14 0.0000000000000000e+00  1.0000000000000282e+00 8.7725406164410088e-14 0.0000000000000000e+00  9.9999999999996159e-01 -1.2090026537141610e-13 0.0000000000000000e+00  1.0000000000000533e+00 1.6809167454333047e-13 0.0000000000000000e+00  9.9999999999992695e-01 -2.2911874412334479e-13 0.0000000000000000e+00  1.0000000000001010e+00 3.1764592078273560e-13 0.0000000000000000e+00  9.9999999999986189e-01 -4.3320351085920533e-13 0.0000000000000000e+00  1.0000000000001896e+00 5.9411280672753513e-13 0.0000000000000000e+00  9.9999999999974110e-01 -8.1213906834056809e-13 0.0000000000000000e+00  1.0000000000003535e+00 1.1069328962154601e-12 0.0000000000000000e+00  9.9999999999951872e-01 -1.5078021364896796e-12 0.0000000000000000e+00  1.0000000000006541e+00 2.0478718082248403e-12 0.0000000000000000e+00  9.9999999999911293e-01 -2.7786588737927262e-12 0.0000000000000000e+00  1.0000000000012008e+00 3.7586401993710224e-12 0.0000000000000000e+00  9.9999999999837874e-01 -5.0782209835529036e-12 0.0000000000000000e+00  1.0000000000021851e+00 6.8407876349573391e-12 0.0000000000000000e+00  9.9999999999706313e-01 -9.1977863952521332e-12 0.0000000000000000e+00  1.0000000000039393e+00 1.2335617615520999e-11 0.0000000000000000e+00  9.9999999999472999e-01 -1.6503142685686857e-11 0.0000000000000000e+00  1.0000000000070324e+00 2.2022868809920180e-11 0.0000000000000000e+00  9.9999999999064071e-01 -2.9309513660077395e-11 0.0000000000000000e+00  1.0000000000124216e+00 3.8899461002220859e-11 0.0000000000000000e+00  9.9999999998356137e-01 -5.1479445691821031e-11 0.0000000000000000e+00  1.0000000000216898e+00 6.7922604190250947e-11 0.0000000000000000e+00  9.9999999997147226e-01 -8.9337786586435860e-11 0.0000000000000000e+00  1.0000000000373999e+00 1.1712031365649158e-10 0.0000000000000000e+00  9.9999999995113809e-01 -1.5301493460176336e-10 0.0000000000000000e+00  1.0000000000636080e+00 1.9919288798783812e-10 0.0000000000000000e+00  9.9999999991751010e-01 -2.5832300539048270e-10 0.0000000000000000e+00  1.0000000001065505e+00 3.3366965083671665e-10 0.0000000000000000e+00  9.9999999986295285e-01 -4.2917211383062897e-10 0.0000000000000000e+00  1.0000000001754843e+00 5.4953942259110661e-10 0.0000000000000000e+00  9.9999999977636966e-01 -7.0031173018016230e-10 0.0000000000000000e+00  1.0000000002835363e+00 8.8791058660887705e-10 0.0000000000000000e+00  9.9999999964247244e-01 -1.1196181628313627e-09 0.0000000000000000e+00  1.0000000004481755e+00 1.4034875172086836e-09 0.0000000000000000e+00  9.9999999944177587e-01 -1.7481108980934934e-09 0.0000000000000000e+00  1.0000000006904588e+00 2.1622103383108906e-09 0.0000000000000000e+00  9.9999999915251214e-01 -2.6539581105493160e-09 0.0000000000000000e+00  1.0000000010314130e+00 3.2299268196123200e-09 0.0000000000000000e+00  9.9999999875666867e-01 -3.8935646310950131e-09 0.0000000000000000e+00  1.0000000014826465e+00 4.6429900912610551e-09 0.0000000000000000e+00  9.9999999825390917e-01 -5.4679855707791758e-09 0.0000000000000000e+00  1.0000000020264312e+00 6.3458808591343515e-09 0.0000000000000000e+00  9.9999999768927772e-01 -7.2361741875482628e-09 0.0000000000000000e+00  1.0000000025780984e+00 8.0734109100903338e-09 0.0000000000000000e+00  9.9999999720318455e-01 -8.7585686277609695e-09 0.0000000000000000e+00  1.0000000029210507e+00 9.1468091763556588e-09 0.0000000000000000e+00  9.9999999711467635e-01 -9.0377243694875136e-09 0.0000000000000000e+00  1.0000000026035574e+00 8.1457872581991944e-09 0.0000000000000000e+00  9.9999999805149120e-01 -6.1268548320373909e-09 0.0000000000000000e+00  1.0000000007939838e+00 2.4030415064478262e-09 0.0000000000000000e+00  1.0000000011566550e+00 3.3473744686710711e-09 0.0000000000000000e+00  9.9999999616296564e-01 -1.2910094155481386e-08 0.0000000000000000e+00  1.0000000085911369e+00 2.4031099857343506e-08 0.0000000000000000e+00  9.9999998750319263e-01 -4.8239364849642844e-08 0.0000000000000000e+00  1.0000000264325755e+00 5.4309194658794667e-08 0.0000000000000000e+00  9.9999998153676473e-01 -1.4558119307177130e-07 0.0000000000000000e+00  1.0000000889258880e+00 1.1690002638841222e-08 0.0000000000000000e+00  1.0000000635249655e+00 -6.0069164481564868e-07 0.0000000000000000e+00  1.0000004640772069e+00 -9.1016222330097268e-07 0.0000000000000000e+00  1.0000009853768430e+00 -3.8056441020240771e-06 0.0000000000000000e+00  1.0000033169218474e+00 -9.4484656559634753e-06 0.0000000000000000e+00  1.0000088137535745e+00 -2.8808599271029433e-05 0.0000000000000000e+00  1.0000255825408912e+00 -7.8573716064229214e-05 0.0000000000000000e+00  1.0000702942857493e+00 -2.2208071882983161e-04 0.0000000000000000e+00  1.0001955995149161e+00 -6.1004106524610710e-04 0.0000000000000000e+00  1.0005356179783100e+00 -1.6804053502716793e-03 0.0000000000000000e+00  1.0014641886742395e+00 -4.5803336598089729e-03 0.0000000000000000e+00  1.0039635897384791e+00 -1.2412817026949255e-02 0.0000000000000000e+00  1.0105870658419762e+00 -3.3109687013713217e-02 0.0000000000000000e+00  1.0273632811882196e+00 -8.5459706928792886e-02 0.0000000000000000e+00  1.0659267756551711e+00 -2.0501790778763332e-01 0.0000000000000000e+00  1.1396375587129055e+00 -4.3075639924459785e-01 0.0000000000000000e+00  1.2477909678225396e+00 -7.5331959748081789e-01 0.0000000000000000e+00  1.3670714382084779e+00 -1.0941286835777391e+00 0.0000000000000000e+00  1.4701996656214786e+00 -1.3749573090129674e+00 0.0000000000000000e+00  1.5436184459496458e+00 -1.5670510208198187e+00 0.0000000000000000e+00  1.5861836008490795e+00 -1.6756686037703654e+00 0.0000000000000000e+00  1.6025192913258166e+00 -1.7174209994214744e+00 0.0000000000000000e+00  1.5984563442227548e+00 -1.7087332948999681e+00 0.0000000000000000e+00  1.5791525551612096e+00 -1.6626942460262311e+00 0.0000000000000000e+00  1.5486918492046973e+00 -1.5889610738846993e+00 0.0000000000000000e+00  1.5102056575214660e+00 -1.4946066943983221e+00 0.0000000000000000e+00  1.4661073685052508e+00 -1.3849187110001056e+00 0.0000000000000000e+00  1.4183457410848646e+00 -1.2639050998684558e+00 0.0000000000000000e+00  1.3685855273549086e+00 -1.1346233774578560e+00 0.0000000000000000e+00  1.3184815145994946e+00 -9.9901016103960683e-01 0.0000000000000000e+00  1.2699369537029228e+00 -8.5750085267928122e-01 0.0000000000000000e+00  1.2253584122667749e+00 -7.0853317512596070e-01 0.0000000000000000e+00  1.1875677167941097e+00 -5.4895289902356259e-01 0.0000000000000000e+00  1.1591170434721318e+00 -3.7637398398408300e-01 0.0000000000000000e+00  1.1416149956583754e+00 -1.9177449496876550e-01 0.0000000000000000e+00  1.1357324355028404e+00 1.8841405328328331e-16 0.0000000000000000e+00  1.1416149956583752e+00 1.9177449496876536e-01 0.0000000000000000e+00  1.1591170434721316e+00 3.7637398398408334e-01 0.0000000000000000e+00  1.1875677167941090e+00 5.4895289902356281e-01 0.0000000000000000e+00  1.2253584122667751e+00 7.0853317512596037e-01 0.0000000000000000e+00  1.2699369537029221e+00 8.5750085267928033e-01 0.0000000000000000e+00  1.3184815145994955e+00 9.9901016103960516e-01 0.0000000000000000e+00  1.3685855273549086e+00 1.1346233774578558e+00 0.0000000000000000e+00  1.4183457410848652e+00 1.2639050998684556e+00 0.0000000000000000e+00  1.4661073685052506e+00 1.3849187110001062e+00 0.0000000000000000e+00  1.5102056575214668e+00 1.4946066943983221e+00 0.0000000000000000e+00  1.5486918492046973e+00 1.5889610738846998e+00 0.0000000000000000e+00  1.5791525551612102e+00 1.6626942460262297e+00 0.0000000000000000e+00  1.5984563442227548e+00 1.7087332948999687e+00 0.0000000000000000e+00  1.6025192913258175e+00 1.7174209994214731e+00 0.0000000000000000e+00  1.5861836008490788e+00 1.6756686037703674e+00 0.0000000000000000e+00  1.5436184459496469e+00 1.5670510208198163e+00 0.0000000000000000e+00  1.4701996656214782e+00 1.3749573090129683e+00 0.0000000000000000e+00  1.3670714382084783e+00 1.0941286835777377e+00 0.0000000000000000e+00  1.2477909678225394e+00 7.5331959748081923e-01 0.0000000000000000e+00  1.1396375587129057e+00 4.3075639924459797e-01 0.0000000000000000e+00  1.0659267756551711e+00 2.0501790778763412e-01 0.0000000000000000e+00  1.0273632811882201e+00 8.5459706928794399e-02 0.0000000000000000e+00  1.0105870658419762e+00 3.3109687013713342e-02 0.0000000000000000e+00  1.0039635897384793e+00 1.2412817026951094e-02 0.0000000000000000e+00  1.0014641886742395e+00 4.5803336598085583e-03 0.0000000000000000e+00  1.0005356179783100e+00 1.6804053502728214e-03 0.0000000000000000e+00  1.0001955995149161e+00 6.1004106524608368e-04 0.0000000000000000e+00  1.0000702942857493e+00 2.2208071883135345e-04 0.0000000000000000e+00  1.0000255825408915e+00 7.8573716064102240e-05 0.0000000000000000e+00  1.0000088137535745e+00 2.8808599271072560e-05 0.0000000000000000e+00  1.0000033169218476e+00 9.4484656557182863e-06 0.0000000000000000e+00  1.0000009853768428e+00 3.8056441021526571e-06 0.0000000000000000e+00  1.0000004640772069e+00 9.1016222335372346e-07 0.0000000000000000e+00  1.0000000635249651e+00 6.0069164517848932e-07 0.0000000000000000e+00  1.0000000889258875e+00 -1.1690002822822262e-08 0.0000000000000000e+00  9.9999998153676439e-01 1.4558119269168572e-07 0.0000000000000000e+00  1.0000000264325752e+00 -5.4309195495120304e-08 0.0000000000000000e+00  9.9999998750319219e-01 4.8239365273954999e-08 0.0000000000000000e+00  1.0000000085911369e+00 -2.4031100255703342e-08 0.0000000000000000e+00  9.9999999616296575e-01 1.2910094448633406e-08 0.0000000000000000e+00  1.0000000011566552e+00 -3.3473747495003747e-09 0.0000000000000000e+00  1.0000000007939838e+00 -2.4030407375142048e-09 0.0000000000000000e+00  9.9999999805149120e-01 6.1268547629616944e-09 0.0000000000000000e+00  1.0000000026035574e+00 -8.1457863660340156e-09 0.0000000000000000e+00  9.9999999711467635e-01 9.0377244652702226e-09 0.0000000000000000e+00  1.0000000029210505e+00 -9.1468085061050389e-09 0.0000000000000000e+00  9.9999999720318444e-01 8.7585679937692145e-09 0.0000000000000000e+00  1.0000000025780984e+00 -8.0734109617157511e-09 0.0000000000000000e+00  9.9999999768927772e-01 7.2361736276278086e-09 0.0000000000000000e+00  1.0000000020264310e+00 -6.3458813995713116e-09 0.0000000000000000e+00  9.9999999825390895e-01 5.4679848756817998e-09 0.0000000000000000e+00  1.0000000014826460e+00 -4.6429910675666083e-09 0.0000000000000000e+00  9.9999999875666867e-01 3.8935637129299123e-09 0.0000000000000000e+00  1.0000000010314125e+00 -3.2299278338775078e-09 0.0000000000000000e+00  9.9999999915251203e-01 2.6539577927149921e-09 0.0000000000000000e+00  1.0000000006904586e+00 -2.1622106221779264e-09 0.0000000000000000e+00  9.9999999944177598e-01 1.7481112713188594e-09 0.0000000000000000e+00  1.0000000004481757e+00 -1.4034877318081162e-09 0.0000000000000000e+00  9.9999999964247233e-01 1.1196190850865221e-09 0.0000000000000000e+00  1.0000000002835363e+00 -8.8791097083705991e-10 0.0000000000000000e+00  9.9999999977636955e-01 7.0031233608119950e-10 0.0000000000000000e+00  1.0000000001754845e+00 -5.4953943525335003e-10 0.0000000000000000e+00  9.9999999986295263e-01 4.2917344788938254e-10 0.0000000000000000e+00  1.0000000001065505e+00 -3.3366959369474741e-10 0.0000000000000000e+00  9.9999999991751010e-01 2.5832372828780909e-10 0.0000000000000000e+00  1.0000000000636080e+00 -1.9919261982682309e-10 0.0000000000000000e+00  9.9999999995113797e-01 1.5301578934688563e-10 0.0000000000000000e+00  1.0000000000374001e+00 -1.1712010413306897e-10 0.0000000000000000e+00  9.9999999997147215e-01 8.9337779888135283e-11 0.0000000000000000e+00  1.0000000000216898e+00 -6.7923026493388018e-11 0.0000000000000000e+00  9.9999999998356137e-01 5.1479085179898407e-11 0.0000000000000000e+00  1.0000000000124216e+00 -3.8900533789865875e-11 0.0000000000000000e+00  9.9999999999064071e-01 2.9309675969331284e-11 0.0000000000000000e+00  1.0000000000070326e+00 -2.2022628400778213e-11 0.0000000000000000e+00  9.9999999999472999e-01 1.6503620153885033e-11 0.0000000000000000e+00  1.0000000000039393e+00 -1.2335151318595667e-11 0.0000000000000000e+00  9.9999999999706290e-01 9.1979143247619869e-12 0.0000000000000000e+00  1.0000000000021849e+00 -6.8414014641751182e-12 0.0000000000000000e+00  9.9999999999837874e-01 5.0774795877786464e-12 0.0000000000000000e+00  1.0000000000012008e+00 -3.7594758513540620e-12 0.0000000000000000e+00  9.9999999999911315e-01 2.7776225567543133e-12 0.0000000000000000e+00  1.0000000000006544e+00 -2.0483131300209487e-12 0.0000000000000000e+00  9.9999999999951883e-01 1.5070138508975387e-12 0.0000000000000000e+00  1.0000000000003535e+00 -1.1072222859331203e-12 0.0000000000000000e+00  9.9999999999974110e-01 8.1041550083038020e-13 0.0000000000000000e+00  1.0000000000001898e+00 -5.9365445708585788e-13 0.0000000000000000e+00  9.9999999999986178e-01 4.3284415266769213e-13 0.0000000000000000e+00  1.0000000000001010e+00 -3.1574446024320938e-13 0.0000000000000000e+00  9.9999999999992673e-01 2.2897640131105198e-13 0.0000000000000000e+00  1.0000000000000537e+00 -1.6641544245368768e-13 0.0000000000000000e+00  9.9999999999996159e-01 1.2026291376009332e-13 0.0000000000000000e+00  1.0000000000000284e+00 -8.6703766515691566e-14 0.0000000000000000e+00  9.9999999999997990e-01 6.2105252948573819e-14 0.0000000000000000e+00  1.0000000000000151e+00 -4.3786412590510411e-14 0.0000000000000000e+00  9.9999999999998934e-01 3.2019002245317429e-14 0.0000000000000000e+00  1.0000000000000082e+00 -2.1183006477847870e-14 0.0000000000000000e+00  9.9999999999999412e-01 1.4381370835712920e-14 0.0000000000000000e+00  1.0000000000000051e+00 -8.8840567338804423e-15 0.0000000000000000e+00  9.9999999999999623e-01 4.1818310324264022e-15 0.0000000000000000e+00  1.0000000000000042e+00 0.0000000000000000e+00 0.0000000000000000e+00  </DataArray> 
</PointData> 
</Piece>
</UnstructuredGrid>
</VTKFile>