<?xml version="1.0"?>
<VTKFile type="UnstructuredGrid"  version="0.1"  >
<UnstructuredGrid>
<Piece  NumberOfPoints="201" NumberOfCells="200">
<Points>
<DataArray  type="Float64"  NumberOfComponents="3"  format="ascii">-5 0 0  -4.95 0 0  -4.9 0 0  -4.85 0 0  -4.8 0 0  -4.75 0 0  -4.7 0 0  -4.65 0 0  -4.6 0 0  -4.55 0 0  -4.5 0 0  -4.45 0 0  -4.4 0 0  -4.35 0 0  -4.3 0 0  -4.25 0 0  -4.2 0 0  -4.15 0 0  -4.1 0 0  -4.05 0 0  -4 0 0  -3.95 0 0  -3.9 0 0  -3.85 0 0  -3.8 0 0  -3.75 0 0  -3.7 0 0  -3.65 0 0  -3.6 0 0  -3.55 0 0  -3.5 0 0  -3.45 0 0  -3.4 0 0  -3.35 0 0  -3.3 0 0  -3.25 0 0  -3.2 0 0  -3.15 0 0  -3.1 0 0  -3.05 0 0  -3 0 0  -2.95 0 0  -2.9 0 0  -2.85 0 0  -2.8 0 0  -2.75 0 0  -2.7 0 0  -2.65 0 0  -2.6 0 0  -2.55 0 0  -2.5 0 0  -2.45 0 0  -2.4 0 0  -2.35 0 0  -2.3 0 0  -2.25 0 0  -2.2 0 0  -2.15 0 0  -2.1 0 0  -2.05 0 0  -2 0 0  -1.95 0 0  -1.9 0 0  -1.85 0 0  -1.8 0 0  -1.75 0 0  -1.7 0 0  -1.65 0 0  -1.6 0 0  -1.55 0 0  -1.5 0 0  -1.45 0 0  -1.4 0 0  -1.35 0 0  -1.3 0 0  -1.25 0 0  -1.2 0 0  -1.15 0 0  -1.1 0 0  -1.05 0 0  -1 0 0  -0.9500000000000002 0 0  -0.9000000000000004 0 0  -0.8499999999999996 0 0  -0.7999999999999998 0 0  -0.75 0 0  -0.7000000000000002 0 0  -0.6500000000000004 0 0  -0.5999999999999996 0 0  -0.5499999999999998 0 0  -0.5 0 0  -0.4500000000000002 0 0  -0.4000000000000004 0 0  -0.3499999999999996 0 0  -0.2999999999999998 0 0  -0.25 0 0  -0.2000000000000002 0 0  -0.1500000000000004 0 0  -0.09999999999999964 0 0  -0.04999999999999982 0 0  0 0 0  0.04999999999999982 0 0  0.09999999999999964 0 0  0.1500000000000004 0 0  0.2000000000000002 0 0  0.25 0 0  0.2999999999999998 0 0  0.3499999999999996 0 0  0.4000000000000004 0 0  0.4500000000000002 0 0  0.5 0 0  0.5499999999999998 0 0  0.5999999999999996 0 0  0.6500000000000004 0 0  0.7000000000000002 0 0  0.75 0 0  0.7999999999999998 0 0  0.8499999999999996 0 0  0.9000000000000004 0 0  0.9500000000000002 0 0  1 0 0  1.05 0 0  1.1 0 0  1.15 0 0  1.2 0 0  1.25 0 0  1.3 0 0  1.35 0 0  1.4 0 0  1.45 0 0  1.5 0 0  1.55 0 0  1.6 0 0  1.65 0 0  1.7 0 0  1.75 0 0  1.8 0 0  1.85 0 0  1.9 0 0  1.95 0 0  2 0 0  2.05 0 0  2.1 0 0  2.15 0 0  2.2 0 0  2.25 0 0  2.3 0 0  2.35 0 0  2.4 0 0  2.45 0 0  2.5 0 0  2.55 0 0  2.6 0 0  2.65 0 0  2.7 0 0  2.75 0 0  2.8 0 0  2.85 0 0  2.9 0 0  2.95 0 0  3 0 0  3.050000000000001 0 0  3.1 0 0  3.15 0 0  3.199999999999999 0 0  3.25 0 0  3.300000000000001 0 0  3.35 0 0  3.4 0 0  3.449999999999999 0 0  3.5 0 0  3.550000000000001 0 0  3.6 0 0  3.65 0 0  3.699999999999999 0 0  3.75 0 0  3.800000000000001 0 0  3.85 0 0  3.9 0 0  3.949999999999999 0 0  4 0 0  4.050000000000001 0 0  4.1 0 0  4.15 0 0  4.199999999999999 0 0  4.25 0 0  4.300000000000001 0 0  4.35 0 0  4.4 0 0  4.449999999999999 0 0  4.5 0 0  4.550000000000001 0 0  4.6 0 0  4.65 0 0  4.699999999999999 0 0  4.75 0 0  4.800000000000001 0 0  4.85 0 0  4.9 0 0  4.949999999999999 0 0  5 0 0  </DataArray>
</Points>
<Cells>
<DataArray  type="UInt32"  Name="connectivity"  format="ascii">0 1  1 2  2 3  3 4  4 5  5 6  6 7  7 8  8 9  9 10  10 11  11 12  12 13  13 14  14 15  15 16  16 17  17 18  18 19  19 20  20 21  21 22  22 23  23 24  24 25  25 26  26 27  27 28  28 29  29 30  30 31  31 32  32 33  33 34  34 35  35 36  36 37  37 38  38 39  39 40  40 41  41 42  42 43  43 44  44 45  45 46  46 47  47 48  48 49  49 50  50 51  51 52  52 53  53 54  54 55  55 56  56 57  57 58  58 59  59 60  60 61  61 62  62 63  63 64  64 65  65 66  66 67  67 68  68 69  69 70  70 71  71 72  72 73  73 74  74 75  75 76  76 77  77 78  78 79  79 80  80 81  81 82  82 83  83 84  84 85  85 86  86 87  87 88  88 89  89 90  90 91  91 92  92 93  93 94  94 95  95 96  96 97  97 98  98 99  99 100  100 101  101 102  102 103  103 104  104 105  105 106  106 107  107 108  108 109  109 110  110 111  111 112  112 113  113 114  114 115  115 116  116 117  117 118  118 119  119 120  120 121  121 122  122 123  123 124  124 125  125 126  126 127  127 128  128 129  129 130  130 131  131 132  132 133  133 134  134 135  135 136  136 137  137 138  138 139  139 140  140 141  141 142  142 143  143 144  144 145  145 146  146 147  147 148  148 149  149 150  150 151  151 152  152 153  153 154  154 155  155 156  156 157  157 158  158 159  159 160  160 161  161 162  162 163  163 164  164 165  165 166  166 167  167 168  168 169  169 170  170 171  171 172  172 173  173 174  174 175  175 176  176 177  177 178  178 179  179 180  180 181  181 182  182 183  183 184  184 185  185 186  186 187  187 188  188 189  189 190  190 191  191 192  192 193  193 194  194 195  195 196  196 197  197 198  198 199  199 200  </DataArray>
<DataArray  type="UInt32"  Name="offsets"  format="ascii">2 4 6 8 10 12 14 16 18 20 22 24 26 28 30 32 34 36 38 40 42 44 46 48 50 52 54 56 58 60 62 64 66 68 70 72 74 76 78 80 82 84 86 88 90 92 94 96 98 100 102 104 106 108 110 112 114 116 118 120 122 124 126 128 130 132 134 136 138 140 142 144 146 148 150 152 154 156 158 160 162 164 166 168 170 172 174 176 178 180 182 184 186 188 190 192 194 196 198 200 202 204 206 208 210 212 214 216 218 220 222 224 226 228 230 232 234 236 238 240 242 244 246 248 250 252 254 256 258 260 262 264 266 268 270 272 274 276 278 280 282 284 286 288 290 292 294 296 298 300 302 304 306 308 310 312 314 316 318 320 322 324 326 328 330 332 334 336 338 340 342 344 346 348 350 352 354 356 358 360 362 364 366 368 370 372 374 376 378 380 382 384 386 388 390 392 394 396 398 400 </DataArray>
<DataArray  type="UInt8"  Name="types"  format="ascii">3 3 3 3 3 3 3 3 3 3 3 3 3 3 3 3 3 3 3 3 3 3 3 3 3 3 3 3 3 3 3 3 3 3 3 3 3 3 3 3 3 3 3 3 3 3 3 3 3 3 3 3 3 3 3 3 3 3 3 3 3 3 3 3 3 3 3 3 3 3 3 3 3 3 3 3 3 3 3 3 3 3 3 3 3 3 3 3 3 3 3 3 3 3 3 3 3 3 3 3 3 3 3 3 3 3 3 3 3 3 3 3 3 3 3 3 3 3 3 3 3 3 3 3 3 3 3 3 3 3 3 3 3 3 3 3 3 3 3 3 3 3 3 3 3 3 3 3 3 3 3 3 3 3 3 3 3 3 3 3 3 3 3 3 3 3 3 3 3 3 3 3 3 3 3 3 3 3 3 3 3 3 3 3 3 3 3 3 3 3 3 3 3 3 3 3 3 3 3 3 </DataArray>
</Cells>
<PointData  Vectors="(h, u)"> 
<DataArray  type="Float64"  Name="(h, u)"  NumberOfComponents="3" format="ascii">1.0435955996791819e+00 0.0000000000000000e+00 0.0000000000000000e+00  1.0437682807060522e+00 2.3424547819474496e-02 0.0000000000000000e+00  1.0442866925278553e+00 4.6761010604410007e-02 0.0000000000000000e+00  1.0451522210190294e+00 6.9922810179838271e-02 0.0000000000000000e+00  1.0463666225977093e+00 9.2827299603086263e-02 0.0000000000000000e+00  1.0479319971708567e+00 1.1539659972058215e-01 0.0000000000000000e+00  1.0498497724681031e+00 1.3756113719438076e-01 0.0000000000000000e+00  1.0521204999846121e+00 1.5925983406812189e-01 0.0000000000000000e+00  1.0547425595673081e+00 1.8044464287342923e-01 0.0000000000000000e+00  1.0577120194140830e+00 2.0107966936839874e-01 0.0000000000000000e+00  1.0610212777176753e+00 2.2114613060216762e-01 0.0000000000000000e+00  1.0646593440258842e+00 2.4063954120488601e-01 0.0000000000000000e+00  1.0686107165863792e+00 2.5957423581120592e-01 0.0000000000000000e+00  1.0728564435160681e+00 2.7797770088415469e-01 0.0000000000000000e+00  1.0773734357823161e+00 2.9589411428348650e-01 0.0000000000000000e+00  1.0821364425468227e+00 3.1337557764647050e-01 0.0000000000000000e+00  1.0871176833212801e+00 3.3048510522452224e-01 0.0000000000000000e+00  1.0922894975884350e+00 3.4728562312877786e-01 0.0000000000000000e+00  1.0976238419335447e+00 3.6384383570280904e-01 0.0000000000000000e+00  1.1030951326227221e+00 3.8021851302476850e-01 0.0000000000000000e+00  1.1086790881558497e+00 3.9646678305251365e-01 0.0000000000000000e+00  1.1143553872530076e+00 4.1263281778070032e-01 0.0000000000000000e+00  1.1201056028863390e+00 4.2875722566660085e-01 0.0000000000000000e+00  1.1259156315490637e+00 4.4486618353004997e-01 0.0000000000000000e+00  1.1317728119805956e+00 4.6098353849517043e-01 0.0000000000000000e+00  1.1376683446816738e+00 4.7711963904398119e-01 0.0000000000000000e+00  1.1435938571233073e+00 4.9328526698065550e-01 0.0000000000000000e+00  1.1495440688477709e+00 5.0947932581295985e-01 0.0000000000000000e+00  1.1555130212290146e+00 5.2570385926578089e-01 0.0000000000000000e+00  1.1614971207417524e+00 5.4195010167448032e-01 0.0000000000000000e+00  1.1674911184937478e+00 5.5821418346890361e-01 0.0000000000000000e+00  1.1734915142470970e+00 5.7448139785518681e-01 0.0000000000000000e+00  1.1794922531984853e+00 5.9074238650197175e-01 0.0000000000000000e+00  1.1854883557332261e+00 6.0697558674525165e-01 0.0000000000000000e+00  1.1914712074600586e+00 6.2316360088916445e-01 0.0000000000000000e+00  1.1974321645867050e+00 6.3927359414039320e-01 0.0000000000000000e+00  1.2033571845753350e+00 6.5527313397954279e-01 0.0000000000000000e+00  1.2092299550429477e+00 6.7110773122191103e-01 0.0000000000000000e+00  1.2150253319071065e+00 6.8671453761420620e-01 0.0000000000000000e+00  1.2207111091195866e+00 7.0199499368173235e-01 0.0000000000000000e+00  1.2262391239844581e+00 7.1682299266608107e-01 0.0000000000000000e+00  1.2315439166911213e+00 7.3100817368113313e-01 0.0000000000000000e+00  1.2365291981088875e+00 7.4429184218315958e-01 0.0000000000000000e+00  1.2410601471265439e+00 7.5629218886860672e-01 0.0000000000000000e+00  1.2449412195090837e+00 7.6647617389892775e-01 0.0000000000000000e+00  1.2478973071238735e+00 7.7407302728732674e-01 0.0000000000000000e+00  1.2495387357271699e+00 7.7800831164769213e-01 0.0000000000000000e+00  1.2493305488200379e+00 7.7677994842105325e-01 0.0000000000000000e+00  1.2465546443411435e+00 7.6837356094225062e-01 0.0000000000000000e+00  1.2403014264678869e+00 7.5018256861286692e-01 0.0000000000000000e+00  1.2295112017128349e+00 7.1911384093267672e-01 0.0000000000000000e+00  1.2131457944689565e+00 6.7198021081107762e-01 0.0000000000000000e+00  1.1905461702400171e+00 6.0649489815250723e-01 0.0000000000000000e+00  1.1620000434021132e+00 5.2290163442798365e-01 0.0000000000000000e+00  1.1292961208200236e+00 4.2583590482573641e-01 0.0000000000000000e+00  1.0957601398964947e+00 3.2481923039233651e-01 0.0000000000000000e+00  1.0652786325052104e+00 2.3170257154280890e-01 0.0000000000000000e+00  1.0407137450731998e+00 1.5574039396303579e-01 0.0000000000000000e+00  1.0229396746402515e+00 1.0022435085744462e-01 0.0000000000000000e+00  1.0111523019071951e+00 6.3074237131353253e-02 0.0000000000000000e+00  1.0038251116813497e+00 3.9759610445015234e-02 0.0000000000000000e+00  9.9947565638795244e-01 2.5736152302338854e-02 0.0000000000000000e+00  9.9697755074164007e-01 1.7516504813623390e-02 0.0000000000000000e+00  9.9558001556798048e-01 1.2753134537776012e-02 0.0000000000000000e+00  9.9481709402443297e-01 9.9922384763938138e-03 0.0000000000000000e+00  9.9441326737428348e-01 8.3649191949743407e-03 0.0000000000000000e+00  9.9420900533296541e-01 7.3749006810176800e-03 0.0000000000000000e+00  9.9411468503701272e-01 6.7359758091824007e-03 0.0000000000000000e+00  9.9407960853310318e-01 6.2931049303615776e-03 0.0000000000000000e+00  9.9407641199088581e-01 5.9557406002576259e-03 0.0000000000000000e+00  9.9408946920741348e-01 5.6788255992273875e-03 0.0000000000000000e+00  9.9411094386719323e-01 5.4333226231144177e-03 0.0000000000000000e+00  9.9413596531967408e-01 5.2078381691472173e-03 0.0000000000000000e+00  9.9416259537057183e-01 4.9920028647188908e-03 0.0000000000000000e+00  9.9418913932357866e-01 4.7843105566760672e-03 0.0000000000000000e+00  9.9421539929008651e-01 4.5799661932378341e-03 0.0000000000000000e+00  9.9424057583406189e-01 4.3802139207861409e-03 0.0000000000000000e+00  9.9426498616920100e-01 4.1819572398055609e-03 0.0000000000000000e+00  9.9428805791914743e-01 3.9871120631157385e-03 0.0000000000000000e+00  9.9431027416967233e-01 3.7931643467997585e-03 0.0000000000000000e+00  9.9433109777550066e-01 3.6021112234569490e-03 0.0000000000000000e+00  9.9435108153946283e-01 3.4117091628215004e-03 0.0000000000000000e+00  9.9436966952600858e-01 3.2238696694992922e-03 0.0000000000000000e+00  9.9438745836707509e-01 3.0365379614618808e-03 0.0000000000000000e+00  9.9440385904647355e-01 2.8514888435342890e-03 0.0000000000000000e+00  9.9441950435226867e-01 2.6668405899535541e-03 0.0000000000000000e+00  9.9443376981202325e-01 2.4842095875052981e-03 0.0000000000000000e+00  9.9444732062704122e-01 2.3018913752249426e-03 0.0000000000000000e+00  9.9445949853043192e-01 2.1213283640798444e-03 0.0000000000000000e+00  9.9447099767560376e-01 1.9410042244616718e-03 0.0000000000000000e+00  9.9448112933936306e-01 1.7621724889533665e-03 0.0000000000000000e+00  9.9449061271439998e-01 1.5835181600602874e-03 0.0000000000000000e+00  9.9449873278582313e-01 1.4060910076855806e-03 0.0000000000000000e+00  9.9450622944142220e-01 1.2287909359705745e-03 0.0000000000000000e+00  9.9451236595569892e-01 1.0524497418947180e-03 0.0000000000000000e+00  9.9451789830760373e-01 8.7619485899692964e-04 0.0000000000000000e+00  9.9452207281585525e-01 7.0062750306890511e-04 0.0000000000000000e+00  9.9452565684146321e-01 5.2511327539316781e-04 0.0000000000000000e+00  9.9452788453268781e-01 3.5001268327090667e-04 0.0000000000000000e+00  9.9452952991317123e-01 1.7493730536845013e-04 0.0000000000000000e+00  9.9452981970990351e-01 7.1566218074800602e-17 0.0000000000000000e+00  9.9452952991317134e-01 -1.7493730536566885e-04 0.0000000000000000e+00  9.9452788453268792e-01 -3.5001268327050649e-04 0.0000000000000000e+00  9.9452565684146332e-01 -5.2511327539054892e-04 0.0000000000000000e+00  9.9452207281585536e-01 -7.0062750306908107e-04 0.0000000000000000e+00  9.9451789830760406e-01 -8.7619485899436355e-04 0.0000000000000000e+00  9.9451236595569903e-01 -1.0524497418943307e-03 0.0000000000000000e+00  9.9450622944142242e-01 -1.2287909359675608e-03 0.0000000000000000e+00  9.9449873278582313e-01 -1.4060910076857758e-03 0.0000000000000000e+00  9.9449061271439998e-01 -1.5835181600574566e-03 0.0000000000000000e+00  9.9448112933936306e-01 -1.7621724889532642e-03 0.0000000000000000e+00  9.9447099767560387e-01 -1.9410042244590109e-03 0.0000000000000000e+00  9.9445949853043203e-01 -2.1213283640801567e-03 0.0000000000000000e+00  9.9444732062704133e-01 -2.3018913752232283e-03 0.0000000000000000e+00  9.9443376981202336e-01 -2.4842095875063212e-03 0.0000000000000000e+00  9.9441950435226889e-01 -2.6668405899527912e-03 0.0000000000000000e+00  9.9440385904647377e-01 -2.8514888435361616e-03 0.0000000000000000e+00  9.9438745836707554e-01 -3.0365379614609735e-03 0.0000000000000000e+00  9.9436966952600914e-01 -3.2238696695013370e-03 0.0000000000000000e+00  9.9435108153946328e-01 -3.4117091628204942e-03 0.0000000000000000e+00  9.9433109777550144e-01 -3.6021112234589643e-03 0.0000000000000000e+00  9.9431027416967277e-01 -3.7931643467988066e-03 0.0000000000000000e+00  9.9428805791914820e-01 -3.9871120631176354e-03 0.0000000000000000e+00  9.9426498616920134e-01 -4.1819572398047889e-03 0.0000000000000000e+00  9.9424057583406245e-01 -4.3802139207875816e-03 0.0000000000000000e+00  9.9421539929008662e-01 -4.5799661932366589e-03 0.0000000000000000e+00  9.9418913932357900e-01 -4.7843105566781393e-03 0.0000000000000000e+00  9.9416259537057161e-01 -4.9920028647170546e-03 0.0000000000000000e+00  9.9413596531967408e-01 -5.2078381691490101e-03 0.0000000000000000e+00  9.9411094386719323e-01 -5.4333226231129648e-03 0.0000000000000000e+00  9.9408946920741348e-01 -5.6788255992286651e-03 0.0000000000000000e+00  9.9407641199088548e-01 -5.9557406002562962e-03 0.0000000000000000e+00  9.9407960853310307e-01 -6.2931049303631094e-03 0.0000000000000000e+00  9.9411468503701250e-01 -6.7359758091810832e-03 0.0000000000000000e+00  9.9420900533296541e-01 -7.3749006810191050e-03 0.0000000000000000e+00  9.9441326737428337e-01 -8.3649191949727673e-03 0.0000000000000000e+00  9.9481709402443308e-01 -9.9922384763947800e-03 0.0000000000000000e+00  9.9558001556798048e-01 -1.2753134537775180e-02 0.0000000000000000e+00  9.9697755074163996e-01 -1.7516504813623740e-02 0.0000000000000000e+00  9.9947565638795210e-01 -2.5736152302339058e-02 0.0000000000000000e+00  1.0038251116813497e+00 -3.9759610445015733e-02 0.0000000000000000e+00  1.0111523019071949e+00 -6.3074237131353517e-02 0.0000000000000000e+00  1.0229396746402515e+00 -1.0022435085744429e-01 0.0000000000000000e+00  1.0407137450731998e+00 -1.5574039396303696e-01 0.0000000000000000e+00  1.0652786325052106e+00 -2.3170257154280857e-01 0.0000000000000000e+00  1.0957601398964945e+00 -3.2481923039233618e-01 0.0000000000000000e+00  1.1292961208200238e+00 -4.2583590482573530e-01 0.0000000000000000e+00  1.1620000434021123e+00 -5.2290163442798221e-01 0.0000000000000000e+00  1.1905461702400175e+00 -6.0649489815250701e-01 0.0000000000000000e+00  1.2131457944689557e+00 -6.7198021081107695e-01 0.0000000000000000e+00  1.2295112017128351e+00 -7.1911384093267594e-01 0.0000000000000000e+00  1.2403014264678862e+00 -7.5018256861286570e-01 0.0000000000000000e+00  1.2465546443411435e+00 -7.6837356094224996e-01 0.0000000000000000e+00  1.2493305488200372e+00 -7.7677994842105269e-01 0.0000000000000000e+00  1.2495387357271701e+00 -7.7800831164769257e-01 0.0000000000000000e+00  1.2478973071238733e+00 -7.7407302728732752e-01 0.0000000000000000e+00  1.2449412195090839e+00 -7.6647617389892786e-01 0.0000000000000000e+00  1.2410601471265434e+00 -7.5629218886860683e-01 0.0000000000000000e+00  1.2365291981088875e+00 -7.4429184218315947e-01 0.0000000000000000e+00  1.2315439166911211e+00 -7.3100817368113291e-01 0.0000000000000000e+00  1.2262391239844579e+00 -7.1682299266608207e-01 0.0000000000000000e+00  1.2207111091195866e+00 -7.0199499368173246e-01 0.0000000000000000e+00  1.2150253319071065e+00 -6.8671453761420764e-01 0.0000000000000000e+00  1.2092299550429479e+00 -6.7110773122190992e-01 0.0000000000000000e+00  1.2033571845753350e+00 -6.5527313397954423e-01 0.0000000000000000e+00  1.1974321645867056e+00 -6.3927359414039386e-01 0.0000000000000000e+00  1.1914712074600584e+00 -6.2316360088916545e-01 0.0000000000000000e+00  1.1854883557332263e+00 -6.0697558674525331e-01 0.0000000000000000e+00  1.1794922531984848e+00 -5.9074238650197364e-01 0.0000000000000000e+00  1.1734915142470976e+00 -5.7448139785518837e-01 0.0000000000000000e+00  1.1674911184937475e+00 -5.5821418346890495e-01 0.0000000000000000e+00  1.1614971207417526e+00 -5.4195010167448132e-01 0.0000000000000000e+00  1.1555130212290143e+00 -5.2570385926578211e-01 0.0000000000000000e+00  1.1495440688477712e+00 -5.0947932581296129e-01 0.0000000000000000e+00  1.1435938571233073e+00 -4.9328526698065694e-01 0.0000000000000000e+00  1.1376683446816740e+00 -4.7711963904398313e-01 0.0000000000000000e+00  1.1317728119805954e+00 -4.6098353849517137e-01 0.0000000000000000e+00  1.1259156315490639e+00 -4.4486618353005197e-01 0.0000000000000000e+00  1.1201056028863390e+00 -4.2875722566660140e-01 0.0000000000000000e+00  1.1143553872530079e+00 -4.1263281778070321e-01 0.0000000000000000e+00  1.1086790881558501e+00 -3.9646678305251359e-01 0.0000000000000000e+00  1.1030951326227221e+00 -3.8021851302477017e-01 0.0000000000000000e+00  1.0976238419335449e+00 -3.6384383570280915e-01 0.0000000000000000e+00  1.0922894975884350e+00 -3.4728562312878064e-01 0.0000000000000000e+00  1.0871176833212806e+00 -3.3048510522452246e-01 0.0000000000000000e+00  1.0821364425468227e+00 -3.1337557764647267e-01 0.0000000000000000e+00  1.0773734357823170e+00 -2.9589411428348644e-01 0.0000000000000000e+00  1.0728564435160688e+00 -2.7797770088415635e-01 0.0000000000000000e+00  1.0686107165863801e+00 -2.5957423581120515e-01 0.0000000000000000e+00  1.0646593440258851e+00 -2.4063954120488695e-01 0.0000000000000000e+00  1.0610212777176762e+00 -2.2114613060216717e-01 0.0000000000000000e+00  1.0577120194140834e+00 -2.0107966936839886e-01 0.0000000000000000e+00  1.0547425595673088e+00 -1.8044464287342929e-01 0.0000000000000000e+00  1.0521204999846123e+00 -1.5925983406812219e-01 0.0000000000000000e+00  1.0498497724681035e+00 -1.3756113719438101e-01 0.0000000000000000e+00  1.0479319971708569e+00 -1.1539659972058215e-01 0.0000000000000000e+00  1.0463666225977093e+00 -9.2827299603086305e-02 0.0000000000000000e+00  1.0451522210190296e+00 -6.9922810179838354e-02 0.0000000000000000e+00  1.0442866925278553e+00 -4.6761010604409875e-02 0.0000000000000000e+00  1.0437682807060529e+00 -2.3424547819475738e-02 0.0000000000000000e+00  1.0435955996791821e+00 0.0000000000000000e+00 0.0000000000000000e+00  </DataArray> 
</PointData> 
</Piece>
</UnstructuredGrid>
</VTKFile>