<?xml version="1.0"?>
<VTKFile type="UnstructuredGrid"  version="0.1"  >
<UnstructuredGrid>
<Piece  NumberOfPoints="201" NumberOfCells="200">
<Points>
<DataArray  type="Float64"  NumberOfComponents="3"  format="ascii">-5 0 0  -4.95 0 0  -4.9 0 0  -4.85 0 0  -4.8 0 0  -4.75 0 0  -4.7 0 0  -4.65 0 0  -4.6 0 0  -4.55 0 0  -4.5 0 0  -4.45 0 0  -4.4 0 0  -4.35 0 0  -4.3 0 0  -4.25 0 0  -4.2 0 0  -4.15 0 0  -4.1 0 0  -4.05 0 0  -4 0 0  -3.95 0 0  -3.9 0 0  -3.85 0 0  -3.8 0 0  -3.75 0 0  -3.7 0 0  -3.65 0 0  -3.6 0 0  -3.55 0 0  -3.5 0 0  -3.45 0 0  -3.4 0 0  -3.35 0 0  -3.3 0 0  -3.25 0 0  -3.2 0 0  -3.15 0 0  -3.1 0 0  -3.05 0 0  -3 0 0  -2.95 0 0  -2.9 0 0  -2.85 0 0  -2.8 0 0  -2.75 0 0  -2.7 0 0  -2.65 0 0  -2.6 0 0  -2.55 0 0  -2.5 0 0  -2.45 0 0  -2.4 0 0  -2.35 0 0  -2.3 0 0  -2.25 0 0  -2.2 0 0  -2.15 0 0  -2.1 0 0  -2.05 0 0  -2 0 0  -1.95 0 0  -1.9 0 0  -1.85 0 0  -1.8 0 0  -1.75 0 0  -1.7 0 0  -1.65 0 0  -1.6 0 0  -1.55 0 0  -1.5 0 0  -1.45 0 0  -1.4 0 0  -1.35 0 0  -1.3 0 0  -1.25 0 0  -1.2 0 0  -1.15 0 0  -1.1 0 0  -1.05 0 0  -1 0 0  -0.9500000000000002 0 0  -0.9000000000000004 0 0  -0.8499999999999996 0 0  -0.7999999999999998 0 0  -0.75 0 0  -0.7000000000000002 0 0  -0.6500000000000004 0 0  -0.5999999999999996 0 0  -0.5499999999999998 0 0  -0.5 0 0  -0.4500000000000002 0 0  -0.4000000000000004 0 0  -0.3499999999999996 0 0  -0.2999999999999998 0 0  -0.25 0 0  -0.2000000000000002 0 0  -0.1500000000000004 0 0  -0.09999999999999964 0 0  -0.04999999999999982 0 0  0 0 0  0.04999999999999982 0 0  0.09999999999999964 0 0  0.1500000000000004 0 0  0.2000000000000002 0 0  0.25 0 0  0.2999999999999998 0 0  0.3499999999999996 0 0  0.4000000000000004 0 0  0.4500000000000002 0 0  0.5 0 0  0.5499999999999998 0 0  0.5999999999999996 0 0  0.6500000000000004 0 0  0.7000000000000002 0 0  0.75 0 0  0.7999999999999998 0 0  0.8499999999999996 0 0  0.9000000000000004 0 0  0.9500000000000002 0 0  1 0 0  1.05 0 0  1.1 0 0  1.15 0 0  1.2 0 0  1.25 0 0  1.3 0 0  1.35 0 0  1.4 0 0  1.45 0 0  1.5 0 0  1.55 0 0  1.6 0 0  1.65 0 0  1.7 0 0  1.75 0 0  1.8 0 0  1.85 0 0  1.9 0 0  1.95 0 0  2 0 0  2.05 0 0  2.1 0 0  2.15 0 0  2.2 0 0  2.25 0 0  2.3 0 0  2.35 0 0  2.4 0 0  2.45 0 0  2.5 0 0  2.55 0 0  2.6 0 0  2.65 0 0  2.7 0 0  2.75 0 0  2.8 0 0  2.85 0 0  2.9 0 0  2.95 0 0  3 0 0  3.050000000000001 0 0  3.1 0 0  3.15 0 0  3.199999999999999 0 0  3.25 0 0  3.300000000000001 0 0  3.35 0 0  3.4 0 0  3.449999999999999 0 0  3.5 0 0  3.550000000000001 0 0  3.6 0 0  3.65 0 0  3.699999999999999 0 0  3.75 0 0  3.800000000000001 0 0  3.85 0 0  3.9 0 0  3.949999999999999 0 0  4 0 0  4.050000000000001 0 0  4.1 0 0  4.15 0 0  4.199999999999999 0 0  4.25 0 0  4.300000000000001 0 0  4.35 0 0  4.4 0 0  4.449999999999999 0 0  4.5 0 0  4.550000000000001 0 0  4.6 0 0  4.65 0 0  4.699999999999999 0 0  4.75 0 0  4.800000000000001 0 0  4.85 0 0  4.9 0 0  4.949999999999999 0 0  5 0 0  </DataArray>
</Points>
<Cells>
<DataArray  type="UInt32"  Name="connectivity"  format="ascii">0 1  1 2  2 3  3 4  4 5  5 6  6 7  7 8  8 9  9 10  10 11  11 12  12 13  13 14  14 15  15 16  16 17  17 18  18 19  19 20  20 21  21 22  22 23  23 24  24 25  25 26  26 27  27 28  28 29  29 30  30 31  31 32  32 33  33 34  34 35  35 36  36 37  37 38  38 39  39 40  40 41  41 42  42 43  43 44  44 45  45 46  46 47  47 48  48 49  49 50  50 51  51 52  52 53  53 54  54 55  55 56  56 57  57 58  58 59  59 60  60 61  61 62  62 63  63 64  64 65  65 66  66 67  67 68  68 69  69 70  70 71  71 72  72 73  73 74  74 75  75 76  76 77  77 78  78 79  79 80  80 81  81 82  82 83  83 84  84 85  85 86  86 87  87 88  88 89  89 90  90 91  91 92  92 93  93 94  94 95  95 96  96 97  97 98  98 99  99 100  100 101  101 102  102 103  103 104  104 105  105 106  106 107  107 108  108 109  109 110  110 111  111 112  112 113  113 114  114 115  115 116  116 117  117 118  118 119  119 120  120 121  121 122  122 123  123 124  124 125  125 126  126 127  127 128  128 129  129 130  130 131  131 132  132 133  133 134  134 135  135 136  136 137  137 138  138 139  139 140  140 141  141 142  142 143  143 144  144 145  145 146  146 147  147 148  148 149  149 150  150 151  151 152  152 153  153 154  154 155  155 156  156 157  157 158  158 159  159 160  160 161  161 162  162 163  163 164  164 165  165 166  166 167  167 168  168 169  169 170  170 171  171 172  172 173  173 174  174 175  175 176  176 177  177 178  178 179  179 180  180 181  181 182  182 183  183 184  184 185  185 186  186 187  187 188  188 189  189 190  190 191  191 192  192 193  193 194  194 195  195 196  196 197  197 198  198 199  199 200  </DataArray>
<DataArray  type="UInt32"  Name="offsets"  format="ascii">2 4 6 8 10 12 14 16 18 20 22 24 26 28 30 32 34 36 38 40 42 44 46 48 50 52 54 56 58 60 62 64 66 68 70 72 74 76 78 80 82 84 86 88 90 92 94 96 98 100 102 104 106 108 110 112 114 116 118 120 122 124 126 128 130 132 134 136 138 140 142 144 146 148 150 152 154 156 158 160 162 164 166 168 170 172 174 176 178 180 182 184 186 188 190 192 194 196 198 200 202 204 206 208 210 212 214 216 218 220 222 224 226 228 230 232 234 236 238 240 242 244 246 248 250 252 254 256 258 260 262 264 266 268 270 272 274 276 278 280 282 284 286 288 290 292 294 296 298 300 302 304 306 308 310 312 314 316 318 320 322 324 326 328 330 332 334 336 338 340 342 344 346 348 350 352 354 356 358 360 362 364 366 368 370 372 374 376 378 380 382 384 386 388 390 392 394 396 398 400 </DataArray>
<DataArray  type="UInt8"  Name="types"  format="ascii">3 3 3 3 3 3 3 3 3 3 3 3 3 3 3 3 3 3 3 3 3 3 3 3 3 3 3 3 3 3 3 3 3 3 3 3 3 3 3 3 3 3 3 3 3 3 3 3 3 3 3 3 3 3 3 3 3 3 3 3 3 3 3 3 3 3 3 3 3 3 3 3 3 3 3 3 3 3 3 3 3 3 3 3 3 3 3 3 3 3 3 3 3 3 3 3 3 3 3 3 3 3 3 3 3 3 3 3 3 3 3 3 3 3 3 3 3 3 3 3 3 3 3 3 3 3 3 3 3 3 3 3 3 3 3 3 3 3 3 3 3 3 3 3 3 3 3 3 3 3 3 3 3 3 3 3 3 3 3 3 3 3 3 3 3 3 3 3 3 3 3 3 3 3 3 3 3 3 3 3 3 3 3 3 3 3 3 3 3 3 3 3 3 3 3 3 3 3 3 3 </DataArray>
</Cells>
<PointData  Vectors="(h, u)"> 
<DataArray  type="Float64"  Name="(h, u)"  NumberOfComponents="3" format="ascii">1.3671087327259710e+00 0.0000000000000000e+00 0.0000000000000000e+00  1.3671008425656235e+00 4.3947195897658643e-02 0.0000000000000000e+00  1.3670752122808374e+00 8.7857521958301779e-02 0.0000000000000000e+00  1.3670312654748582e+00 1.3169268317451288e-01 0.0000000000000000e+00  1.3669641597969775e+00 1.7541011751511817e-01 0.0000000000000000e+00  1.3668696970236995e+00 2.1896224470368375e-01 0.0000000000000000e+00  1.3667381685586042e+00 2.6229136617205717e-01 0.0000000000000000e+00  1.3665585854214630e+00 3.0532848484583330e-01 0.0000000000000000e+00  1.3663115416313347e+00 3.4798445984054177e-01 0.0000000000000000e+00  1.3659720219376945e+00 3.9014619277763518e-01 0.0000000000000000e+00  1.3655001255566215e+00 4.3166081217110125e-01 0.0000000000000000e+00  1.3648406669012789e+00 4.7232424464168626e-01 0.0000000000000000e+00  1.3639089897227672e+00 5.1185085625960380e-01 0.0000000000000000e+00  1.3625831052222253e+00 5.4984264452185261e-01 0.0000000000000000e+00  1.3606781640557641e+00 5.8572657157121921e-01 0.0000000000000000e+00  1.3579218759474128e+00 6.1867828324869201e-01 0.0000000000000000e+00  1.3539055605173913e+00 6.4749217197223530e-01 0.0000000000000000e+00  1.3480304781868346e+00 6.7042059692121347e-01 0.0000000000000000e+00  1.3394317668916165e+00 6.8495481975420713e-01 0.0000000000000000e+00  1.3269236116386014e+00 6.8763143550640704e-01 0.0000000000000000e+00  1.3090024669628890e+00 6.7397343375252861e-01 0.0000000000000000e+00  1.2840492417198885e+00 6.3892398964008190e-01 0.0000000000000000e+00  1.2508782757524775e+00 5.7825216168819438e-01 0.0000000000000000e+00  1.2097418310065915e+00 4.9139965439056865e-01 0.0000000000000000e+00  1.1634097485896640e+00 3.8503382327186308e-01 0.0000000000000000e+00  1.1172259516722982e+00 2.7414702566939392e-01 0.0000000000000000e+00  1.0770694494342374e+00 1.7671304217287351e-01 0.0000000000000000e+00  1.0464389023374090e+00 1.0447085988492856e-01 0.0000000000000000e+00  1.0253888097157677e+00 5.8657709988202696e-02 0.0000000000000000e+00  1.0118457506431513e+00 3.3510696540029139e-02 0.0000000000000000e+00  1.0033621760995057e+00 2.1741557456609700e-02 0.0000000000000000e+00  9.9802789977499562e-01 1.7552421814651050e-02 0.0000000000000000e+00  9.9459672741489658e-01 1.7173004343965310e-02 0.0000000000000000e+00  9.9233085062941562e-01 1.8428132217806214e-02 0.0000000000000000e+00  9.9080390457684386e-01 2.0149881894248250e-02 0.0000000000000000e+00  9.8977305547914340e-01 2.1771693456064587e-02 0.0000000000000000e+00  9.8908935018957389e-01 2.3045938640434301e-02 0.0000000000000000e+00  9.8865994576473548e-01 2.3908527636104689e-02 0.0000000000000000e+00  9.8841699607550793e-01 2.4373558448919763e-02 0.0000000000000000e+00  9.8831316287443394e-01 2.4503764398023983e-02 0.0000000000000000e+00  9.8830869866279825e-01 2.4364714354565165e-02 0.0000000000000000e+00  9.8837564872881056e-01 2.4029707900445490e-02 0.0000000000000000e+00  9.8848940381558537e-01 2.3553546201170308e-02 0.0000000000000000e+00  9.8863427932110337e-01 2.2989216965366845e-02 0.0000000000000000e+00  9.8879603990165221e-01 2.2368601986067351e-02 0.0000000000000000e+00  9.8896729074155165e-01 2.1722935924159713e-02 0.0000000000000000e+00  9.8914053206145192e-01 2.1065688069978755e-02 0.0000000000000000e+00  9.8931328106266170e-01 2.0413339996456906e-02 0.0000000000000000e+00  9.8948180886202841e-01 1.9768582017905132e-02 0.0000000000000000e+00  9.8964604584457139e-01 1.9140042837190265e-02 0.0000000000000000e+00  9.8980408215431259e-01 1.8525407572517683e-02 0.0000000000000000e+00  9.8995678554969579e-01 1.7929812731934384e-02 0.0000000000000000e+00  9.9010303817566947e-01 1.7349122817544450e-02 0.0000000000000000e+00  9.9024393678564127e-01 1.6787105324200146e-02 0.0000000000000000e+00  9.9037871619018047e-01 1.6239207112868453e-02 0.0000000000000000e+00  9.9050841936479284e-01 1.5708664555461650e-02 0.0000000000000000e+00  9.9063247997710380e-01 1.5191016182953865e-02 0.0000000000000000e+00  9.9075179199560703e-01 1.4689239615393508e-02 0.0000000000000000e+00  9.9086594408964190e-01 1.4199117638756219e-02 0.0000000000000000e+00  9.9097565529957077e-01 1.3723441197310959e-02 0.0000000000000000e+00  9.9108065823770330e-01 1.3258272298350166e-02 0.0000000000000000e+00  9.9118149467445971e-01 1.2806229014716989e-02 0.0000000000000000e+00  9.9127803578097395e-01 1.2363654850430518e-02 0.0000000000000000e+00  9.9137065286556492e-01 1.1932994822832719e-02 0.0000000000000000e+00  9.9145934826259452e-01 1.1510868482351330e-02 0.0000000000000000e+00  9.9154433470376058e-01 1.1099545083712742e-02 0.0000000000000000e+00  9.9162573481884231e-01 1.0695913091292683e-02 0.0000000000000000e+00  9.9170361826672881e-01 1.0302063600434249e-02 0.0000000000000000e+00  9.9177821396003374e-01 9.9151460768569753e-03 0.0000000000000000e+00  9.9184946658469308e-01 9.5370724378643478e-03 0.0000000000000000e+00  9.9191769501318727e-01 9.1652441348250065e-03 0.0000000000000000e+00  9.9198273865461650e-01 8.8013949560912658e-03 0.0000000000000000e+00  9.9204498866439972e-01 8.4431677721938329e-03 0.0000000000000000e+00  9.9210419949841211e-01 8.0921217518995191e-03 0.0000000000000000e+00  9.9216081648889676e-01 7.7461288613348044e-03 0.0000000000000000e+00  9.9221452921582109e-01 7.4065796320386627e-03 0.0000000000000000e+00  9.9226581947086401e-01 7.0715611952887275e-03 0.0000000000000000e+00  9.9231433105045197e-01 6.7423035286843591e-03 0.0000000000000000e+00  9.9236056555764596e-01 6.4170938731802161e-03 0.0000000000000000e+00  9.9240413851888754e-01 6.0970111671266114e-03 0.0000000000000000e+00  9.9244555631197862e-01 5.7805272841092593e-03 0.0000000000000000e+00  9.9248442166851625e-01 5.4685802439728218e-03 0.0000000000000000e+00  9.9252123273320203e-01 5.1598114336247761e-03 0.0000000000000000e+00  9.9255559253591963e-01 4.8550278518039681e-03 0.0000000000000000e+00  9.9258798031888307e-01 4.5530263531419427e-03 0.0000000000000000e+00  9.9261800987759297e-01 4.2544918829858528e-03 0.0000000000000000e+00  9.9264613343495267e-01 3.9583643401183742e-03 0.0000000000000000e+00  9.9267198324076489e-01 3.6652141538203666e-03 0.0000000000000000e+00  9.9269597905714013e-01 3.3741137896633258e-03 0.0000000000000000e+00  9.9271777643575698e-01 3.0855250053385156e-03 0.0000000000000000e+00  9.9273775994020275e-01 2.7986443931779718e-03 0.0000000000000000e+00  9.9275561046383931e-01 2.5138291550069370e-03 0.0000000000000000e+00  9.9277167726476889e-01 2.2303934947619456e-03 0.0000000000000000e+00  9.9278566594666640e-01 1.9485925919632409e-03 0.0000000000000000e+00  9.9279789280482478e-01 1.6678534104888256e-03 0.0000000000000000e+00  9.9280808509560048e-01 1.3883303255283605e-03 0.0000000000000000e+00  9.9281653065207809e-01 1.1095595286561264e-03 0.0000000000000000e+00  9.9282297325181690e-01 8.3159481160951989e-04 0.0000000000000000e+00  9.9282767852671139e-01 5.5407902046976897e-04 0.0000000000000000e+00  9.9283040002114664e-01 2.7696489389026258e-04 0.0000000000000000e+00  9.9283138869737808e-01 1.8312951242812318e-16 0.0000000000000000e+00  9.9283040002114664e-01 -2.7696489388982548e-04 0.0000000000000000e+00  9.9282767852671128e-01 -5.5407902046981765e-04 0.0000000000000000e+00  9.9282297325181679e-01 -8.3159481161040113e-04 0.0000000000000000e+00  9.9281653065207787e-01 -1.1095595286562852e-03 0.0000000000000000e+00  9.9280808509560037e-01 -1.3883303255291615e-03 0.0000000000000000e+00  9.9279789280482456e-01 -1.6678534104888937e-03 0.0000000000000000e+00  9.9278566594666617e-01 -1.9485925919636097e-03 0.0000000000000000e+00  9.9277167726476856e-01 -2.2303934947621195e-03 0.0000000000000000e+00  9.9275561046383920e-01 -2.5138291550069873e-03 0.0000000000000000e+00  9.9273775994020230e-01 -2.7986443931777485e-03 0.0000000000000000e+00  9.9271777643575698e-01 -3.0855250053383777e-03 0.0000000000000000e+00  9.9269597905713958e-01 -3.3741137896623795e-03 0.0000000000000000e+00  9.9267198324076489e-01 -3.6652141538194810e-03 0.0000000000000000e+00  9.9264613343495200e-01 -3.9583643401168477e-03 0.0000000000000000e+00  9.9261800987759286e-01 -4.2544918829854417e-03 0.0000000000000000e+00  9.9258798031888262e-01 -4.5530263531405948e-03 0.0000000000000000e+00  9.9255559253591952e-01 -4.8550278518034165e-03 0.0000000000000000e+00  9.9252123273320159e-01 -5.1598114336233692e-03 0.0000000000000000e+00  9.9248442166851636e-01 -5.4685802439718009e-03 0.0000000000000000e+00  9.9244555631197817e-01 -5.7805272841076061e-03 0.0000000000000000e+00  9.9240413851888754e-01 -6.0970111671253754e-03 0.0000000000000000e+00  9.9236056555764562e-01 -6.4170938731781743e-03 0.0000000000000000e+00  9.9231433105045186e-01 -6.7423035286831206e-03 0.0000000000000000e+00  9.9226581947086367e-01 -7.0715611952878558e-03 0.0000000000000000e+00  9.9221452921582098e-01 -7.4065796320384701e-03 0.0000000000000000e+00  9.9216081648889665e-01 -7.7461288613338277e-03 0.0000000000000000e+00  9.9210419949841200e-01 -8.0921217518985494e-03 0.0000000000000000e+00  9.9204498866439972e-01 -8.4431677721938068e-03 0.0000000000000000e+00  9.9198273865461650e-01 -8.8013949560903238e-03 0.0000000000000000e+00  9.9191769501318716e-01 -9.1652441348250915e-03 0.0000000000000000e+00  9.9184946658469308e-01 -9.5370724378626617e-03 0.0000000000000000e+00  9.9177821396003374e-01 -9.9151460768567897e-03 0.0000000000000000e+00  9.9170361826672870e-01 -1.0302063600432846e-02 0.0000000000000000e+00  9.9162573481884220e-01 -1.0695913091293330e-02 0.0000000000000000e+00  9.9154433470376069e-01 -1.1099545083711805e-02 0.0000000000000000e+00  9.9145934826259452e-01 -1.1510868482352542e-02 0.0000000000000000e+00  9.9137065286556481e-01 -1.1932994822833085e-02 0.0000000000000000e+00  9.9127803578097407e-01 -1.2363654850432185e-02 0.0000000000000000e+00  9.9118149467445960e-01 -1.2806229014717643e-02 0.0000000000000000e+00  9.9108065823770353e-01 -1.3258272298351061e-02 0.0000000000000000e+00  9.9097565529957077e-01 -1.3723441197311267e-02 0.0000000000000000e+00  9.9086594408964213e-01 -1.4199117638757249e-02 0.0000000000000000e+00  9.9075179199560715e-01 -1.4689239615394530e-02 0.0000000000000000e+00  9.9063247997710424e-01 -1.5191016182955479e-02 0.0000000000000000e+00  9.9050841936479306e-01 -1.5708664555462101e-02 0.0000000000000000e+00  9.9037871619018070e-01 -1.6239207112869490e-02 0.0000000000000000e+00  9.9024393678564149e-01 -1.6787105324199639e-02 0.0000000000000000e+00  9.9010303817566958e-01 -1.7349122817545352e-02 0.0000000000000000e+00  9.8995678554969579e-01 -1.7929812731933652e-02 0.0000000000000000e+00  9.8980408215431248e-01 -1.8525407572518381e-02 0.0000000000000000e+00  9.8964604584457128e-01 -1.9140042837189685e-02 0.0000000000000000e+00  9.8948180886202819e-01 -1.9768582017905607e-02 0.0000000000000000e+00  9.8931328106266159e-01 -2.0413339996455709e-02 0.0000000000000000e+00  9.8914053206145180e-01 -2.1065688069979396e-02 0.0000000000000000e+00  9.8896729074155132e-01 -2.1722935924159085e-02 0.0000000000000000e+00  9.8879603990165199e-01 -2.2368601986069051e-02 0.0000000000000000e+00  9.8863427932110315e-01 -2.2989216965365867e-02 0.0000000000000000e+00  9.8848940381558537e-01 -2.3553546201171907e-02 0.0000000000000000e+00  9.8837564872881034e-01 -2.4029707900444435e-02 0.0000000000000000e+00  9.8830869866279814e-01 -2.4364714354567010e-02 0.0000000000000000e+00  9.8831316287443383e-01 -2.4503764398023389e-02 0.0000000000000000e+00  9.8841699607550793e-01 -2.4373558448921348e-02 0.0000000000000000e+00  9.8865994576473559e-01 -2.3908527636103464e-02 0.0000000000000000e+00  9.8908935018957389e-01 -2.3045938640434881e-02 0.0000000000000000e+00  9.8977305547914385e-01 -2.1771693456063345e-02 0.0000000000000000e+00  9.9080390457684397e-01 -2.0149881894247969e-02 0.0000000000000000e+00  9.9233085062941595e-01 -1.8428132217805263e-02 0.0000000000000000e+00  9.9459672741489669e-01 -1.7173004343965893e-02 0.0000000000000000e+00  9.9802789977499617e-01 -1.7552421814650911e-02 0.0000000000000000e+00  1.0033621760995057e+00 -2.1741557456609870e-02 0.0000000000000000e+00  1.0118457506431520e+00 -3.3510696540028341e-02 0.0000000000000000e+00  1.0253888097157680e+00 -5.8657709988202293e-02 0.0000000000000000e+00  1.0464389023374099e+00 -1.0447085988492698e-01 0.0000000000000000e+00  1.0770694494342370e+00 -1.7671304217287256e-01 0.0000000000000000e+00  1.1172259516722989e+00 -2.7414702566939297e-01 0.0000000000000000e+00  1.1634097485896651e+00 -3.8503382327186608e-01 0.0000000000000000e+00  1.2097418310065917e+00 -4.9139965439056643e-01 0.0000000000000000e+00  1.2508782757524779e+00 -5.7825216168819493e-01 0.0000000000000000e+00  1.2840492417198885e+00 -6.3892398964007924e-01 0.0000000000000000e+00  1.3090024669628888e+00 -6.7397343375252838e-01 0.0000000000000000e+00  1.3269236116386021e+00 -6.8763143550640693e-01 0.0000000000000000e+00  1.3394317668916160e+00 -6.8495481975420691e-01 0.0000000000000000e+00  1.3480304781868353e+00 -6.7042059692121303e-01 0.0000000000000000e+00  1.3539055605173909e+00 -6.4749217197223607e-01 0.0000000000000000e+00  1.3579218759474136e+00 -6.1867828324869178e-01 0.0000000000000000e+00  1.3606781640557639e+00 -5.8572657157121755e-01 0.0000000000000000e+00  1.3625831052222259e+00 -5.4984264452185261e-01 0.0000000000000000e+00  1.3639089897227672e+00 -5.1185085625960125e-01 0.0000000000000000e+00  1.3648406669012798e+00 -4.7232424464168726e-01 0.0000000000000000e+00  1.3655001255566213e+00 -4.3166081217109958e-01 0.0000000000000000e+00  1.3659720219376954e+00 -3.9014619277763546e-01 0.0000000000000000e+00  1.3663115416313345e+00 -3.4798445984054049e-01 0.0000000000000000e+00  1.3665585854214639e+00 -3.0532848484583497e-01 0.0000000000000000e+00  1.3667381685586042e+00 -2.6229136617205751e-01 0.0000000000000000e+00  1.3668696970237006e+00 -2.1896224470368461e-01 0.0000000000000000e+00  1.3669641597969779e+00 -1.7541011751511679e-01 0.0000000000000000e+00  1.3670312654748593e+00 -1.3169268317451260e-01 0.0000000000000000e+00  1.3670752122808383e+00 -8.7857521958300974e-02 0.0000000000000000e+00  1.3671008425656248e+00 -4.3947195897659191e-02 0.0000000000000000e+00  1.3671087327259719e+00 0.0000000000000000e+00 0.0000000000000000e+00  </DataArray> 
</PointData> 
</Piece>
</UnstructuredGrid>
</VTKFile>