<?xml version="1.0"?>
<VTKFile type="UnstructuredGrid"  version="0.1"  >
<UnstructuredGrid>
<Piece  NumberOfPoints="201" NumberOfCells="200">
<Points>
<DataArray  type="Float64"  NumberOfComponents="3"  format="ascii">-5 0 0  -4.95 0 0  -4.9 0 0  -4.85 0 0  -4.8 0 0  -4.75 0 0  -4.7 0 0  -4.65 0 0  -4.6 0 0  -4.55 0 0  -4.5 0 0  -4.45 0 0  -4.4 0 0  -4.35 0 0  -4.3 0 0  -4.25 0 0  -4.2 0 0  -4.15 0 0  -4.1 0 0  -4.05 0 0  -4 0 0  -3.95 0 0  -3.9 0 0  -3.85 0 0  -3.8 0 0  -3.75 0 0  -3.7 0 0  -3.65 0 0  -3.6 0 0  -3.55 0 0  -3.5 0 0  -3.45 0 0  -3.4 0 0  -3.35 0 0  -3.3 0 0  -3.25 0 0  -3.2 0 0  -3.15 0 0  -3.1 0 0  -3.05 0 0  -3 0 0  -2.95 0 0  -2.9 0 0  -2.85 0 0  -2.8 0 0  -2.75 0 0  -2.7 0 0  -2.65 0 0  -2.6 0 0  -2.55 0 0  -2.5 0 0  -2.45 0 0  -2.4 0 0  -2.35 0 0  -2.3 0 0  -2.25 0 0  -2.2 0 0  -2.15 0 0  -2.1 0 0  -2.05 0 0  -2 0 0  -1.95 0 0  -1.9 0 0  -1.85 0 0  -1.8 0 0  -1.75 0 0  -1.7 0 0  -1.65 0 0  -1.6 0 0  -1.55 0 0  -1.5 0 0  -1.45 0 0  -1.4 0 0  -1.35 0 0  -1.3 0 0  -1.25 0 0  -1.2 0 0  -1.15 0 0  -1.1 0 0  -1.05 0 0  -1 0 0  -0.9500000000000002 0 0  -0.9000000000000004 0 0  -0.8499999999999996 0 0  -0.7999999999999998 0 0  -0.75 0 0  -0.7000000000000002 0 0  -0.6500000000000004 0 0  -0.5999999999999996 0 0  -0.5499999999999998 0 0  -0.5 0 0  -0.4500000000000002 0 0  -0.4000000000000004 0 0  -0.3499999999999996 0 0  -0.2999999999999998 0 0  -0.25 0 0  -0.2000000000000002 0 0  -0.1500000000000004 0 0  -0.09999999999999964 0 0  -0.04999999999999982 0 0  0 0 0  0.04999999999999982 0 0  0.09999999999999964 0 0  0.1500000000000004 0 0  0.2000000000000002 0 0  0.25 0 0  0.2999999999999998 0 0  0.3499999999999996 0 0  0.4000000000000004 0 0  0.4500000000000002 0 0  0.5 0 0  0.5499999999999998 0 0  0.5999999999999996 0 0  0.6500000000000004 0 0  0.7000000000000002 0 0  0.75 0 0  0.7999999999999998 0 0  0.8499999999999996 0 0  0.9000000000000004 0 0  0.9500000000000002 0 0  1 0 0  1.05 0 0  1.1 0 0  1.15 0 0  1.2 0 0  1.25 0 0  1.3 0 0  1.35 0 0  1.4 0 0  1.45 0 0  1.5 0 0  1.55 0 0  1.6 0 0  1.65 0 0  1.7 0 0  1.75 0 0  1.8 0 0  1.85 0 0  1.9 0 0  1.95 0 0  2 0 0  2.05 0 0  2.1 0 0  2.15 0 0  2.2 0 0  2.25 0 0  2.3 0 0  2.35 0 0  2.4 0 0  2.45 0 0  2.5 0 0  2.55 0 0  2.6 0 0  2.65 0 0  2.7 0 0  2.75 0 0  2.8 0 0  2.85 0 0  2.9 0 0  2.95 0 0  3 0 0  3.050000000000001 0 0  3.1 0 0  3.15 0 0  3.199999999999999 0 0  3.25 0 0  3.300000000000001 0 0  3.35 0 0  3.4 0 0  3.449999999999999 0 0  3.5 0 0  3.550000000000001 0 0  3.6 0 0  3.65 0 0  3.699999999999999 0 0  3.75 0 0  3.800000000000001 0 0  3.85 0 0  3.9 0 0  3.949999999999999 0 0  4 0 0  4.050000000000001 0 0  4.1 0 0  4.15 0 0  4.199999999999999 0 0  4.25 0 0  4.300000000000001 0 0  4.35 0 0  4.4 0 0  4.449999999999999 0 0  4.5 0 0  4.550000000000001 0 0  4.6 0 0  4.65 0 0  4.699999999999999 0 0  4.75 0 0  4.800000000000001 0 0  4.85 0 0  4.9 0 0  4.949999999999999 0 0  5 0 0  </DataArray>
</Points>
<Cells>
<DataArray  type="UInt32"  Name="connectivity"  format="ascii">0 1  1 2  2 3  3 4  4 5  5 6  6 7  7 8  8 9  9 10  10 11  11 12  12 13  13 14  14 15  15 16  16 17  17 18  18 19  19 20  20 21  21 22  22 23  23 24  24 25  25 26  26 27  27 28  28 29  29 30  30 31  31 32  32 33  33 34  34 35  35 36  36 37  37 38  38 39  39 40  40 41  41 42  42 43  43 44  44 45  45 46  46 47  47 48  48 49  49 50  50 51  51 52  52 53  53 54  54 55  55 56  56 57  57 58  58 59  59 60  60 61  61 62  62 63  63 64  64 65  65 66  66 67  67 68  68 69  69 70  70 71  71 72  72 73  73 74  74 75  75 76  76 77  77 78  78 79  79 80  80 81  81 82  82 83  83 84  84 85  85 86  86 87  87 88  88 89  89 90  90 91  91 92  92 93  93 94  94 95  95 96  96 97  97 98  98 99  99 100  100 101  101 102  102 103  103 104  104 105  105 106  106 107  107 108  108 109  109 110  110 111  111 112  112 113  113 114  114 115  115 116  116 117  117 118  118 119  119 120  120 121  121 122  122 123  123 124  124 125  125 126  126 127  127 128  128 129  129 130  130 131  131 132  132 133  133 134  134 135  135 136  136 137  137 138  138 139  139 140  140 141  141 142  142 143  143 144  144 145  145 146  146 147  147 148  148 149  149 150  150 151  151 152  152 153  153 154  154 155  155 156  156 157  157 158  158 159  159 160  160 161  161 162  162 163  163 164  164 165  165 166  166 167  167 168  168 169  169 170  170 171  171 172  172 173  173 174  174 175  175 176  176 177  177 178  178 179  179 180  180 181  181 182  182 183  183 184  184 185  185 186  186 187  187 188  188 189  189 190  190 191  191 192  192 193  193 194  194 195  195 196  196 197  197 198  198 199  199 200  </DataArray>
<DataArray  type="UInt32"  Name="offsets"  format="ascii">2 4 6 8 10 12 14 16 18 20 22 24 26 28 30 32 34 36 38 40 42 44 46 48 50 52 54 56 58 60 62 64 66 68 70 72 74 76 78 80 82 84 86 88 90 92 94 96 98 100 102 104 106 108 110 112 114 116 118 120 122 124 126 128 130 132 134 136 138 140 142 144 146 148 150 152 154 156 158 160 162 164 166 168 170 172 174 176 178 180 182 184 186 188 190 192 194 196 198 200 202 204 206 208 210 212 214 216 218 220 222 224 226 228 230 232 234 236 238 240 242 244 246 248 250 252 254 256 258 260 262 264 266 268 270 272 274 276 278 280 282 284 286 288 290 292 294 296 298 300 302 304 306 308 310 312 314 316 318 320 322 324 326 328 330 332 334 336 338 340 342 344 346 348 350 352 354 356 358 360 362 364 366 368 370 372 374 376 378 380 382 384 386 388 390 392 394 396 398 400 </DataArray>
<DataArray  type="UInt8"  Name="types"  format="ascii">3 3 3 3 3 3 3 3 3 3 3 3 3 3 3 3 3 3 3 3 3 3 3 3 3 3 3 3 3 3 3 3 3 3 3 3 3 3 3 3 3 3 3 3 3 3 3 3 3 3 3 3 3 3 3 3 3 3 3 3 3 3 3 3 3 3 3 3 3 3 3 3 3 3 3 3 3 3 3 3 3 3 3 3 3 3 3 3 3 3 3 3 3 3 3 3 3 3 3 3 3 3 3 3 3 3 3 3 3 3 3 3 3 3 3 3 3 3 3 3 3 3 3 3 3 3 3 3 3 3 3 3 3 3 3 3 3 3 3 3 3 3 3 3 3 3 3 3 3 3 3 3 3 3 3 3 3 3 3 3 3 3 3 3 3 3 3 3 3 3 3 3 3 3 3 3 3 3 3 3 3 3 3 3 3 3 3 3 3 3 3 3 3 3 3 3 3 3 3 3 </DataArray>
</Cells>
<PointData  Vectors="(h, u)"> 
<DataArray  type="Float64"  Name="(h, u)"  NumberOfComponents="3" format="ascii">1.1389710630346432e+00 0.0000000000000000e+00 0.0000000000000000e+00  1.1404413253237180e+00 -1.1204246683084443e-01 0.0000000000000000e+00  1.1445278610312348e+00 -2.1627858819310647e-01 0.0000000000000000e+00  1.1503967942223616e+00 -3.0691933726548598e-01 0.0000000000000000e+00  1.1570080985888662e+00 -3.8115839052301792e-01 0.0000000000000000e+00  1.1634321257781894e+00 -4.3889933414816690e-01 0.0000000000000000e+00  1.1690202299236885e+00 -4.8180775042668778e-01 0.0000000000000000e+00  1.1734394660025689e+00 -5.1233421604439633e-01 0.0000000000000000e+00  1.1766017187412370e+00 -5.3302606147052545e-01 0.0000000000000000e+00  1.1785793145410302e+00 -5.4616457618838576e-01 0.0000000000000000e+00  1.1795198986482833e+00 -5.5362884975194127e-01 0.0000000000000000e+00  1.1795991659203364e+00 -5.5689263698817904e-01 0.0000000000000000e+00  1.1789838660486212e+00 -5.5707356556738130e-01 0.0000000000000000e+00  1.1778235971773592e+00 -5.5500436801766706e-01 0.0000000000000000e+00  1.1762401149300028e+00 -5.5129517877947287e-01 0.0000000000000000e+00  1.1743339657818270e+00 -5.4639227873637597e-01 0.0000000000000000e+00  1.1721814874111778e+00 -5.4061791897950207e-01 0.0000000000000000e+00  1.1698442463191827e+00 -5.3420753709566771e-01 0.0000000000000000e+00  1.1673668406430153e+00 -5.2732991124775686e-01 0.0000000000000000e+00  1.1647855886609002e+00 -5.2010978485795967e-01 0.0000000000000000e+00  1.1621255719799248e+00 -5.1263585023235103e-01 0.0000000000000000e+00  1.1594080553434096e+00 -5.0497537261304370e-01 0.0000000000000000e+00  1.1566467918978032e+00 -4.9717532353746557e-01 0.0000000000000000e+00  1.1538543997011101e+00 -4.8927305288968531e-01 0.0000000000000000e+00  1.1510382391036880e+00 -4.8129360469087229e-01 0.0000000000000000e+00  1.1482060340234501e+00 -4.7325862029929394e-01 0.0000000000000000e+00  1.1453615869374454e+00 -4.6518144353364715e-01 0.0000000000000000e+00  1.1425098532377760e+00 -4.5707537027082601e-01 0.0000000000000000e+00  1.1396526689631177e+00 -4.4894737890283182e-01 0.0000000000000000e+00  1.1367934073298234e+00 -4.4080627861557975e-01 0.0000000000000000e+00  1.1339328235629631e+00 -4.3265550631949962e-01 0.0000000000000000e+00  1.1310733689096264e+00 -4.2450143694010695e-01 0.0000000000000000e+00  1.1282152111067096e+00 -4.1634549007836780e-01 0.0000000000000000e+00  1.1253602492301573e+00 -4.0819271754470882e-01 0.0000000000000000e+00  1.1225083406754355e+00 -4.0004336490285586e-01 0.0000000000000000e+00  1.1196610426346343e+00 -3.9190177466897896e-01 0.0000000000000000e+00  1.1168180601507169e+00 -3.8376749977621216e-01 0.0000000000000000e+00  1.1139807310185492e+00 -3.7564452022144013e-01 0.0000000000000000e+00  1.1111486997802522e+00 -3.6753198226821349e-01 0.0000000000000000e+00  1.1083231586732407e+00 -3.5943370427690585e-01 0.0000000000000000e+00  1.1055037464683111e+00 -3.5134860450680655e-01 0.0000000000000000e+00  1.1026915565286082e+00 -3.4328045960753950e-01 0.0000000000000000e+00  1.0998862554933424e+00 -3.3522807880154065e-01 0.0000000000000000e+00  1.0970888693232212e+00 -3.2719527162428824e-01 0.0000000000000000e+00  1.0942991140861638e+00 -3.1918082383396995e-01 0.0000000000000000e+00  1.0915179713664704e+00 -3.1118862723065982e-01 0.0000000000000000e+00  1.0887452213265607e+00 -3.0321751122108909e-01 0.0000000000000000e+00  1.0859818196794353e+00 -2.9527148577255885e-01 0.0000000000000000e+00  1.0832276215293883e+00 -2.8734948134919686e-01 0.0000000000000000e+00  1.0804835730463227e+00 -2.7945565564630420e-01 0.0000000000000000e+00  1.0777496132025273e+00 -2.7158909322901881e-01 0.0000000000000000e+00  1.0750266942253588e+00 -2.6375412728299774e-01 0.0000000000000000e+00  1.0723148471882120e+00 -2.5595004857233422e-01 0.0000000000000000e+00  1.0696150461813572e+00 -2.4818139478788287e-01 0.0000000000000000e+00  1.0669274227608203e+00 -2.4044771636709886e-01 0.0000000000000000e+00  1.0642529895149324e+00 -2.3275378793037921e-01 0.0000000000000000e+00  1.0615919876214304e+00 -2.2509947610713135e-01 0.0000000000000000e+00  1.0589454860610541e+00 -2.1748982985466381e-01 0.0000000000000000e+00  1.0563138459863901e+00 -2.0992509278274840e-01 0.0000000000000000e+00  1.0536982122128042e+00 -2.0241063168961276e-01 0.0000000000000000e+00  1.0510990777716178e+00 -1.9494713305448524e-01 0.0000000000000000e+00  1.0485176844679569e+00 -1.8754033174478890e-01 0.0000000000000000e+00  1.0459546708854663e+00 -1.8019142843056213e-01 0.0000000000000000e+00  1.0434113987217635e+00 -1.7290658295850833e-01 0.0000000000000000e+00  1.0408886676407345e+00 -1.6568758649034859e-01 0.0000000000000000e+00  1.0383879837684769e+00 -1.5854108634009609e-01 0.0000000000000000e+00  1.0359103251597601e+00 -1.5146954367039137e-01 0.0000000000000000e+00  1.0334573682599024e+00 -1.4448015847683332e-01 0.0000000000000000e+00  1.0310302883708875e+00 -1.3757614066394189e-01 0.0000000000000000e+00  1.0286309590685274e+00 -1.3076530515278761e-01 0.0000000000000000e+00  1.0262607729262943e+00 -1.2405168102422119e-01 0.0000000000000000e+00  1.0239218278441025e+00 -1.1744374724731832e-01 0.0000000000000000e+00  1.0216157544137601e+00 -1.1094640121991615e-01 0.0000000000000000e+00  1.0193449018913030e+00 -1.0456880524184556e-01 0.0000000000000000e+00  1.0171111599498306e+00 -9.8316732143495331e-02 0.0000000000000000e+00  1.0149171556253043e+00 -9.2199991385606625e-02 0.0000000000000000e+00  1.0127650587465789e+00 -8.6225165660317266e-02 0.0000000000000000e+00  1.0106577995835913e+00 -8.0402583721766743e-02 0.0000000000000000e+00  1.0085978488570715e+00 -7.4739458343318813e-02 0.0000000000000000e+00  1.0065884639407077e+00 -6.9246371503156767e-02 0.0000000000000000e+00  1.0046324358505732e+00 -6.3930821905029592e-02 0.0000000000000000e+00  1.0027333695700356e+00 -5.8803188434151610e-02 0.0000000000000000e+00  1.0008943915786643e+00 -5.3870696229830504e-02 0.0000000000000000e+00  9.9911946706158250e-01 -4.9142828432110583e-02 0.0000000000000000e+00  9.9741206220216050e-01 -4.4625725531395204e-02 0.0000000000000000e+00  9.9577649774097687e-01 -4.0327025460083446e-02 0.0000000000000000e+00  9.9421656051717122e-01 -3.6250723235467026e-02 0.0000000000000000e+00  9.9273688944542660e-01 -3.2401436530908580e-02 0.0000000000000000e+00  9.9134153118520896e-01 -2.8779771351698794e-02 0.0000000000000000e+00  9.9003535199599313e-01 -2.5386032959018562e-02 0.0000000000000000e+00  9.8882253397345266e-01 -2.2216165119889209e-02 0.0000000000000000e+00  9.8770800569407258e-01 -1.9264949459296379e-02 0.0000000000000000e+00  9.8669587938249748e-01 -1.6522603357289785e-02 0.0000000000000000e+00  9.8579089584688218e-01 -1.3977525556028885e-02 0.0000000000000000e+00  9.8499680980346849e-01 -1.1613640973661412e-02 0.0000000000000000e+00  9.8431785026711904e-01 -9.4127467024884316e-03 0.0000000000000000e+00  9.8375707003309920e-01 -7.3526721370357684e-03 0.0000000000000000e+00  9.8331782942890567e-01 -5.4092514735670106e-03 0.0000000000000000e+00  9.8300213366205369e-01 -3.5553229580715553e-03 0.0000000000000000e+00  9.8281215202155803e-01 -1.7623052846300986e-03 0.0000000000000000e+00  9.8274856956812684e-01 -7.0151869973098871e-16 0.0000000000000000e+00  9.8281215202155803e-01 1.7623052846282559e-03 0.0000000000000000e+00  9.8300213366205369e-01 3.5553229580704599e-03 0.0000000000000000e+00  9.8331782942890533e-01 5.4092514735657885e-03 0.0000000000000000e+00  9.8375707003309898e-01 7.3526721370345185e-03 0.0000000000000000e+00  9.8431785026711882e-01 9.4127467024869346e-03 0.0000000000000000e+00  9.8499680980346827e-01 1.1613640973660435e-02 0.0000000000000000e+00  9.8579089584688184e-01 1.3977525556027968e-02 0.0000000000000000e+00  9.8669587938249737e-01 1.6522603357290080e-02 0.0000000000000000e+00  9.8770800569407213e-01 1.9264949459296313e-02 0.0000000000000000e+00  9.8882253397345277e-01 2.2216165119888540e-02 0.0000000000000000e+00  9.9003535199599291e-01 2.5386032959018937e-02 0.0000000000000000e+00  9.9134153118520907e-01 2.8779771351698048e-02 0.0000000000000000e+00  9.9273688944542626e-01 3.2401436530908698e-02 0.0000000000000000e+00  9.9421656051717144e-01 3.6250723235466409e-02 0.0000000000000000e+00  9.9577649774097654e-01 4.0327025460084466e-02 0.0000000000000000e+00  9.9741206220216105e-01 4.4625725531394440e-02 0.0000000000000000e+00  9.9911946706158250e-01 4.9142828432110999e-02 0.0000000000000000e+00  1.0008943915786652e+00 5.3870696229829124e-02 0.0000000000000000e+00  1.0027333695700353e+00 5.8803188434150604e-02 0.0000000000000000e+00  1.0046324358505743e+00 6.3930821905027704e-02 0.0000000000000000e+00  1.0065884639407072e+00 6.9246371503155976e-02 0.0000000000000000e+00  1.0085978488570728e+00 7.4739458343315815e-02 0.0000000000000000e+00  1.0106577995835910e+00 8.0402583721767035e-02 0.0000000000000000e+00  1.0127650587465797e+00 8.6225165660314504e-02 0.0000000000000000e+00  1.0149171556253038e+00 9.2199991385607874e-02 0.0000000000000000e+00  1.0171111599498308e+00 9.8316732143493443e-02 0.0000000000000000e+00  1.0193449018913021e+00 1.0456880524184654e-01 0.0000000000000000e+00  1.0216157544137603e+00 1.1094640121991439e-01 0.0000000000000000e+00  1.0239218278441018e+00 1.1744374724731962e-01 0.0000000000000000e+00  1.0262607729262947e+00 1.2405168102421957e-01 0.0000000000000000e+00  1.0286309590685272e+00 1.3076530515278789e-01 0.0000000000000000e+00  1.0310302883708884e+00 1.3757614066393994e-01 0.0000000000000000e+00  1.0334573682599022e+00 1.4448015847683410e-01 0.0000000000000000e+00  1.0359103251597608e+00 1.5146954367039026e-01 0.0000000000000000e+00  1.0383879837684766e+00 1.5854108634009692e-01 0.0000000000000000e+00  1.0408886676407352e+00 1.6568758649034751e-01 0.0000000000000000e+00  1.0434113987217635e+00 1.7290658295850936e-01 0.0000000000000000e+00  1.0459546708854672e+00 1.8019142843056152e-01 0.0000000000000000e+00  1.0485176844679567e+00 1.8754033174479032e-01 0.0000000000000000e+00  1.0510990777716183e+00 1.9494713305448519e-01 0.0000000000000000e+00  1.0536982122128036e+00 2.0241063168961515e-01 0.0000000000000000e+00  1.0563138459863899e+00 2.0992509278274910e-01 0.0000000000000000e+00  1.0589454860610532e+00 2.1748982985466578e-01 0.0000000000000000e+00  1.0615919876214301e+00 2.2509947610713146e-01 0.0000000000000000e+00  1.0642529895149317e+00 2.3275378793038032e-01 0.0000000000000000e+00  1.0669274227608203e+00 2.4044771636709936e-01 0.0000000000000000e+00  1.0696150461813567e+00 2.4818139478788345e-01 0.0000000000000000e+00  1.0723148471882120e+00 2.5595004857233489e-01 0.0000000000000000e+00  1.0750266942253586e+00 2.6375412728299913e-01 0.0000000000000000e+00  1.0777496132025270e+00 2.7158909322901931e-01 0.0000000000000000e+00  1.0804835730463223e+00 2.7945565564630476e-01 0.0000000000000000e+00  1.0832276215293881e+00 2.8734948134919702e-01 0.0000000000000000e+00  1.0859818196794351e+00 2.9527148577255913e-01 0.0000000000000000e+00  1.0887452213265605e+00 3.0321751122108775e-01 0.0000000000000000e+00  1.0915179713664700e+00 3.1118862723065899e-01 0.0000000000000000e+00  1.0942991140861640e+00 3.1918082383396729e-01 0.0000000000000000e+00  1.0970888693232210e+00 3.2719527162428763e-01 0.0000000000000000e+00  1.0998862554933431e+00 3.3522807880153743e-01 0.0000000000000000e+00  1.1026915565286084e+00 3.4328045960753878e-01 0.0000000000000000e+00  1.1055037464683111e+00 3.5134860450680361e-01 0.0000000000000000e+00  1.1083231586732412e+00 3.5943370427690413e-01 0.0000000000000000e+00  1.1111486997802522e+00 3.6753198226821110e-01 0.0000000000000000e+00  1.1139807310185492e+00 3.7564452022143885e-01 0.0000000000000000e+00  1.1168180601507169e+00 3.8376749977620961e-01 0.0000000000000000e+00  1.1196610426346341e+00 3.9190177466897774e-01 0.0000000000000000e+00  1.1225083406754355e+00 4.0004336490285419e-01 0.0000000000000000e+00  1.1253602492301571e+00 4.0819271754470832e-01 0.0000000000000000e+00  1.1282152111067099e+00 4.1634549007836724e-01 0.0000000000000000e+00  1.1310733689096260e+00 4.2450143694010650e-01 0.0000000000000000e+00  1.1339328235629633e+00 4.3265550631949806e-01 0.0000000000000000e+00  1.1367934073298231e+00 4.4080627861557881e-01 0.0000000000000000e+00  1.1396526689631179e+00 4.4894737890282993e-01 0.0000000000000000e+00  1.1425098532377755e+00 4.5707537027082501e-01 0.0000000000000000e+00  1.1453615869374456e+00 4.6518144353364610e-01 0.0000000000000000e+00  1.1482060340234499e+00 4.7325862029929378e-01 0.0000000000000000e+00  1.1510382391036880e+00 4.8129360469087118e-01 0.0000000000000000e+00  1.1538543997011097e+00 4.8927305288968564e-01 0.0000000000000000e+00  1.1566467918978032e+00 4.9717532353746424e-01 0.0000000000000000e+00  1.1594080553434094e+00 5.0497537261304326e-01 0.0000000000000000e+00  1.1621255719799251e+00 5.1263585023235092e-01 0.0000000000000000e+00  1.1647855886609002e+00 5.2010978485796000e-01 0.0000000000000000e+00  1.1673668406430160e+00 5.2732991124775686e-01 0.0000000000000000e+00  1.1698442463191823e+00 5.3420753709566826e-01 0.0000000000000000e+00  1.1721814874111787e+00 5.4061791897950062e-01 0.0000000000000000e+00  1.1743339657818272e+00 5.4639227873637619e-01 0.0000000000000000e+00  1.1762401149300035e+00 5.5129517877947232e-01 0.0000000000000000e+00  1.1778235971773592e+00 5.5500436801766784e-01 0.0000000000000000e+00  1.1789838660486216e+00 5.5707356556738119e-01 0.0000000000000000e+00  1.1795991659203364e+00 5.5689263698818048e-01 0.0000000000000000e+00  1.1795198986482838e+00 5.5362884975194193e-01 0.0000000000000000e+00  1.1785793145410299e+00 5.4616457618838643e-01 0.0000000000000000e+00  1.1766017187412372e+00 5.3302606147052622e-01 0.0000000000000000e+00  1.1734394660025689e+00 5.1233421604439766e-01 0.0000000000000000e+00  1.1690202299236885e+00 4.8180775042668950e-01 0.0000000000000000e+00  1.1634321257781897e+00 4.3889933414816823e-01 0.0000000000000000e+00  1.1570080985888660e+00 3.8115839052301720e-01 0.0000000000000000e+00  1.1503967942223621e+00 3.0691933726548520e-01 0.0000000000000000e+00  1.1445278610312350e+00 2.1627858819310658e-01 0.0000000000000000e+00  1.1404413253237184e+00 1.1204246683084557e-01 0.0000000000000000e+00  1.1389710630346435e+00 0.0000000000000000e+00 0.0000000000000000e+00  </DataArray> 
</PointData> 
</Piece>
</UnstructuredGrid>
</VTKFile>