<?xml version="1.0"?>
<VTKFile type="UnstructuredGrid"  version="0.1"  >
<UnstructuredGrid>
<Piece  NumberOfPoints="201" NumberOfCells="200">
<Points>
<DataArray  type="Float64"  NumberOfComponents="3"  format="ascii">-5 0 0  -4.95 0 0  -4.9 0 0  -4.85 0 0  -4.8 0 0  -4.75 0 0  -4.7 0 0  -4.65 0 0  -4.6 0 0  -4.55 0 0  -4.5 0 0  -4.45 0 0  -4.4 0 0  -4.35 0 0  -4.3 0 0  -4.25 0 0  -4.2 0 0  -4.15 0 0  -4.1 0 0  -4.05 0 0  -4 0 0  -3.95 0 0  -3.9 0 0  -3.85 0 0  -3.8 0 0  -3.75 0 0  -3.7 0 0  -3.65 0 0  -3.6 0 0  -3.55 0 0  -3.5 0 0  -3.45 0 0  -3.4 0 0  -3.35 0 0  -3.3 0 0  -3.25 0 0  -3.2 0 0  -3.15 0 0  -3.1 0 0  -3.05 0 0  -3 0 0  -2.95 0 0  -2.9 0 0  -2.85 0 0  -2.8 0 0  -2.75 0 0  -2.7 0 0  -2.65 0 0  -2.6 0 0  -2.55 0 0  -2.5 0 0  -2.45 0 0  -2.4 0 0  -2.35 0 0  -2.3 0 0  -2.25 0 0  -2.2 0 0  -2.15 0 0  -2.1 0 0  -2.05 0 0  -2 0 0  -1.95 0 0  -1.9 0 0  -1.85 0 0  -1.8 0 0  -1.75 0 0  -1.7 0 0  -1.65 0 0  -1.6 0 0  -1.55 0 0  -1.5 0 0  -1.45 0 0  -1.4 0 0  -1.35 0 0  -1.3 0 0  -1.25 0 0  -1.2 0 0  -1.15 0 0  -1.1 0 0  -1.05 0 0  -1 0 0  -0.9500000000000002 0 0  -0.9000000000000004 0 0  -0.8499999999999996 0 0  -0.7999999999999998 0 0  -0.75 0 0  -0.7000000000000002 0 0  -0.6500000000000004 0 0  -0.5999999999999996 0 0  -0.5499999999999998 0 0  -0.5 0 0  -0.4500000000000002 0 0  -0.4000000000000004 0 0  -0.3499999999999996 0 0  -0.2999999999999998 0 0  -0.25 0 0  -0.2000000000000002 0 0  -0.1500000000000004 0 0  -0.09999999999999964 0 0  -0.04999999999999982 0 0  0 0 0  0.04999999999999982 0 0  0.09999999999999964 0 0  0.1500000000000004 0 0  0.2000000000000002 0 0  0.25 0 0  0.2999999999999998 0 0  0.3499999999999996 0 0  0.4000000000000004 0 0  0.4500000000000002 0 0  0.5 0 0  0.5499999999999998 0 0  0.5999999999999996 0 0  0.6500000000000004 0 0  0.7000000000000002 0 0  0.75 0 0  0.7999999999999998 0 0  0.8499999999999996 0 0  0.9000000000000004 0 0  0.9500000000000002 0 0  1 0 0  1.05 0 0  1.1 0 0  1.15 0 0  1.2 0 0  1.25 0 0  1.3 0 0  1.35 0 0  1.4 0 0  1.45 0 0  1.5 0 0  1.55 0 0  1.6 0 0  1.65 0 0  1.7 0 0  1.75 0 0  1.8 0 0  1.85 0 0  1.9 0 0  1.95 0 0  2 0 0  2.05 0 0  2.1 0 0  2.15 0 0  2.2 0 0  2.25 0 0  2.3 0 0  2.35 0 0  2.4 0 0  2.45 0 0  2.5 0 0  2.55 0 0  2.6 0 0  2.65 0 0  2.7 0 0  2.75 0 0  2.8 0 0  2.85 0 0  2.9 0 0  2.95 0 0  3 0 0  3.050000000000001 0 0  3.1 0 0  3.15 0 0  3.199999999999999 0 0  3.25 0 0  3.300000000000001 0 0  3.35 0 0  3.4 0 0  3.449999999999999 0 0  3.5 0 0  3.550000000000001 0 0  3.6 0 0  3.65 0 0  3.699999999999999 0 0  3.75 0 0  3.800000000000001 0 0  3.85 0 0  3.9 0 0  3.949999999999999 0 0  4 0 0  4.050000000000001 0 0  4.1 0 0  4.15 0 0  4.199999999999999 0 0  4.25 0 0  4.300000000000001 0 0  4.35 0 0  4.4 0 0  4.449999999999999 0 0  4.5 0 0  4.550000000000001 0 0  4.6 0 0  4.65 0 0  4.699999999999999 0 0  4.75 0 0  4.800000000000001 0 0  4.85 0 0  4.9 0 0  4.949999999999999 0 0  5 0 0  </DataArray>
</Points>
<Cells>
<DataArray  type="UInt32"  Name="connectivity"  format="ascii">0 1  1 2  2 3  3 4  4 5  5 6  6 7  7 8  8 9  9 10  10 11  11 12  12 13  13 14  14 15  15 16  16 17  17 18  18 19  19 20  20 21  21 22  22 23  23 24  24 25  25 26  26 27  27 28  28 29  29 30  30 31  31 32  32 33  33 34  34 35  35 36  36 37  37 38  38 39  39 40  40 41  41 42  42 43  43 44  44 45  45 46  46 47  47 48  48 49  49 50  50 51  51 52  52 53  53 54  54 55  55 56  56 57  57 58  58 59  59 60  60 61  61 62  62 63  63 64  64 65  65 66  66 67  67 68  68 69  69 70  70 71  71 72  72 73  73 74  74 75  75 76  76 77  77 78  78 79  79 80  80 81  81 82  82 83  83 84  84 85  85 86  86 87  87 88  88 89  89 90  90 91  91 92  92 93  93 94  94 95  95 96  96 97  97 98  98 99  99 100  100 101  101 102  102 103  103 104  104 105  105 106  106 107  107 108  108 109  109 110  110 111  111 112  112 113  113 114  114 115  115 116  116 117  117 118  118 119  119 120  120 121  121 122  122 123  123 124  124 125  125 126  126 127  127 128  128 129  129 130  130 131  131 132  132 133  133 134  134 135  135 136  136 137  137 138  138 139  139 140  140 141  141 142  142 143  143 144  144 145  145 146  146 147  147 148  148 149  149 150  150 151  151 152  152 153  153 154  154 155  155 156  156 157  157 158  158 159  159 160  160 161  161 162  162 163  163 164  164 165  165 166  166 167  167 168  168 169  169 170  170 171  171 172  172 173  173 174  174 175  175 176  176 177  177 178  178 179  179 180  180 181  181 182  182 183  183 184  184 185  185 186  186 187  187 188  188 189  189 190  190 191  191 192  192 193  193 194  194 195  195 196  196 197  197 198  198 199  199 200  </DataArray>
<DataArray  type="UInt32"  Name="offsets"  format="ascii">2 4 6 8 10 12 14 16 18 20 22 24 26 28 30 32 34 36 38 40 42 44 46 48 50 52 54 56 58 60 62 64 66 68 70 72 74 76 78 80 82 84 86 88 90 92 94 96 98 100 102 104 106 108 110 112 114 116 118 120 122 124 126 128 130 132 134 136 138 140 142 144 146 148 150 152 154 156 158 160 162 164 166 168 170 172 174 176 178 180 182 184 186 188 190 192 194 196 198 200 202 204 206 208 210 212 214 216 218 220 222 224 226 228 230 232 234 236 238 240 242 244 246 248 250 252 254 256 258 260 262 264 266 268 270 272 274 276 278 280 282 284 286 288 290 292 294 296 298 300 302 304 306 308 310 312 314 316 318 320 322 324 326 328 330 332 334 336 338 340 342 344 346 348 350 352 354 356 358 360 362 364 366 368 370 372 374 376 378 380 382 384 386 388 390 392 394 396 398 400 </DataArray>
<DataArray  type="UInt8"  Name="types"  format="ascii">3 3 3 3 3 3 3 3 3 3 3 3 3 3 3 3 3 3 3 3 3 3 3 3 3 3 3 3 3 3 3 3 3 3 3 3 3 3 3 3 3 3 3 3 3 3 3 3 3 3 3 3 3 3 3 3 3 3 3 3 3 3 3 3 3 3 3 3 3 3 3 3 3 3 3 3 3 3 3 3 3 3 3 3 3 3 3 3 3 3 3 3 3 3 3 3 3 3 3 3 3 3 3 3 3 3 3 3 3 3 3 3 3 3 3 3 3 3 3 3 3 3 3 3 3 3 3 3 3 3 3 3 3 3 3 3 3 3 3 3 3 3 3 3 3 3 3 3 3 3 3 3 3 3 3 3 3 3 3 3 3 3 3 3 3 3 3 3 3 3 3 3 3 3 3 3 3 3 3 3 3 3 3 3 3 3 3 3 3 3 3 3 3 3 3 3 3 3 3 3 </DataArray>
</Cells>
<PointData  Vectors="(h, u)"> 
<DataArray  type="Float64"  Name="(h, u)"  NumberOfComponents="3" format="ascii">1.0000000000399039e+00 0.0000000000000000e+00 0.0000000000000000e+00  9.9999999995938271e-01 -2.5230336181499349e-11 0.0000000000000000e+00  1.0000000000427629e+00 5.1076148416751938e-11 0.0000000000000000e+00  9.9999999995364852e-01 -7.8129497816043459e-11 0.0000000000000000e+00  1.0000000000513982e+00 1.0693830042102186e-10 0.0000000000000000e+00  9.9999999994209210e-01 -1.3796373625898086e-10 0.0000000000000000e+00  1.0000000000658655e+00 1.7154852896225933e-10 0.0000000000000000e+00  9.9999999992478839e-01 -2.0784111955182171e-10 0.0000000000000000e+00  1.0000000000858167e+00 2.4672311798750182e-10 0.0000000000000000e+00  9.9999999990255883e-01 -2.8769016356933481e-10 0.0000000000000000e+00  1.0000000001096891e+00 3.2970035539140335e-10 0.0000000000000000e+00  9.9999999987806154e-01 -3.7098234195987555e-10 0.0000000000000000e+00  1.0000000001332638e+00 4.0877188854876354e-10 0.0000000000000000e+00  9.9999999985767662e-01 -4.3898939641635168e-10 0.0000000000000000e+00  1.0000000001472331e+00 4.5582231640495925e-10 0.0000000000000000e+00  9.9999999985460886e-01 -4.5120793392214705e-10 0.0000000000000000e+00  1.0000000001332801e+00 4.1418589762297029e-10 0.0000000000000000e+00  9.9999999989379518e-01 -3.3010961114048285e-10 0.0000000000000000e+00  1.0000000000579954e+00 1.7969556400031472e-10 0.0000000000000000e+00  1.0000000000193709e+00 6.2145587405056547e-11 0.0000000000000000e+00  9.9999999986380217e-01 -4.2765802621685774e-10 0.0000000000000000e+00  1.0000000003055931e+00 9.5786494101643367e-10 0.0000000000000000e+00  9.9999999945594242e-01 -1.7044270605103826e-09 0.0000000000000000e+00  1.0000000008721752e+00 2.7317870565006524e-09 0.0000000000000000e+00  9.9999999868461809e-01 -4.1195930190445763e-09 0.0000000000000000e+00  1.0000000019048281e+00 5.9653825271796084e-09 0.0000000000000000e+00  9.9999999732168288e-01 -8.3875366164094551e-09 0.0000000000000000e+00  1.0000000036813097e+00 1.1528408203803123e-08 0.0000000000000000e+00  9.9999999503202874e-01 -1.5557622069652434e-08 0.0000000000000000e+00  1.0000000066022272e+00 2.0675352563562206e-08 0.0000000000000000e+00  9.9999999134122097e-01 -2.7115540375379001e-08 0.0000000000000000e+00  1.0000000112240284e+00 3.5148743209035311e-08 0.0000000000000000e+00  9.9999998560318615e-01 -4.5084490035313570e-08 0.0000000000000000e+00  1.0000000182888955e+00 5.7272752928380476e-08 0.0000000000000000e+00  9.9999997697496024e-01 -7.2104252951969010e-08 0.0000000000000000e+00  1.0000000287426130e+00 9.0009149899467787e-08 0.0000000000000000e+00  9.9999996440949579e-01 -1.1145371585543381e-07 0.0000000000000000e+00  1.0000000437272614e+00 1.3693441457819389e-07 0.0000000000000000e+00  9.9999994668177361e-01 -1.6696911068592116e-07 0.0000000000000000e+00  1.0000000645316349e+00 2.0208441827016434e-07 0.0000000000000000e+00  9.9999992246677050e-01 -2.4279999547291386e-07 0.0000000000000000e+00  1.0000000924801846e+00 2.8960622746221220e-07 0.0000000000000000e+00  9.9999989048839011e-01 -3.4294413744770577e-07 0.0000000000000000e+00  1.0000001287436975e+00 4.0316141428040254e-07 0.0000000000000000e+00  9.9999984975465095e-01 -4.7052231581542161e-07 0.0000000000000000e+00  1.0000001740674789e+00 5.4504159510388126e-07 0.0000000000000000e+00  9.9999979989172672e-01 -6.2682930895438007e-07 0.0000000000000000e+00  1.0000002284618505e+00 7.1491828209629374e-07 0.0000000000000000e+00  9.9999974165337935e-01 -8.1054511330498668e-07 0.0000000000000000e+00  1.0000002911759118e+00 9.0746329181206036e-07 0.0000000000000000e+00  9.9999967834483838e-01 -1.0197704372918736e-06 0.0000000000000000e+00  1.0000003632494556e+00 1.1021157811056449e-06 0.0000000000000000e+00  9.9999962423322419e-01 -1.2764711354798518e-06 0.0000000000000000e+00  1.0000004697368061e+00 1.1921197139624105e-06 0.0000000000000000e+00  9.9999966637558901e-01 -1.8194244244289099e-06 0.0000000000000000e+00  1.0000008284425019e+00 4.5627040790237664e-07 0.0000000000000000e+00  1.0000004229170421e+00 -4.5404139901612098e-06 0.0000000000000000e+00  1.0000030888767306e+00 -6.3192291416732617e-06 0.0000000000000000e+00  1.0000063703842608e+00 -2.3405761549776803e-05 0.0000000000000000e+00  1.0000192196158038e+00 -5.6670852821602743e-05 0.0000000000000000e+00  1.0000494339858073e+00 -1.5832809107772919e-04 0.0000000000000000e+00  1.0001337058665694e+00 -4.1523635001184691e-04 0.0000000000000000e+00  1.0003517339346222e+00 -1.1047552952995090e-03 0.0000000000000000e+00  1.0009252970047324e+00 -2.8942698744920071e-03 0.0000000000000000e+00  1.0024038093193539e+00 -7.5283142837342422e-03 0.0000000000000000e+00  1.0061607142002889e+00 -1.9277627985802740e-02 0.0000000000000000e+00  1.0153957179215973e+00 -4.8130552632555737e-02 0.0000000000000000e+00  1.0367069847383106e+00 -1.1447454057871893e-01 0.0000000000000000e+00  1.0802946521237315e+00 -2.4910160750878049e-01 0.0000000000000000e+00  1.1535296658454159e+00 -4.7175663596663886e-01 0.0000000000000000e+00  1.2490705875999353e+00 -7.5392926886675382e-01 0.0000000000000000e+00  1.3455540558342320e+00 -1.0278603764924359e+00 0.0000000000000000e+00  1.4241511840231997e+00 -1.2423964495371120e+00 0.0000000000000000e+00  1.4777200386491367e+00 -1.3841971386081238e+00 0.0000000000000000e+00  1.5076364797461281e+00 -1.4619909416907133e+00 0.0000000000000000e+00  1.5186454111415086e+00 -1.4907201821605258e+00 0.0000000000000000e+00  1.5157144394501152e+00 -1.4840428326599595e+00 0.0000000000000000e+00  1.5029008628871998e+00 -1.4523952602772512e+00 0.0000000000000000e+00  1.4831972556351176e+00 -1.4031685616793412e+00 0.0000000000000000e+00  1.4587182309176916e+00 -1.3414708301412908e+00 0.0000000000000000e+00  1.4309484294967083e+00 -1.2708189419511464e+00 0.0000000000000000e+00  1.4009366037922453e+00 -1.1936904981095007e+00 0.0000000000000000e+00  1.3694474076315182e+00 -1.1118777318975228e+00 0.0000000000000000e+00  1.3370540092890175e+00 -1.0267436513952486e+00 0.0000000000000000e+00  1.3042082928868282e+00 -9.3937650827782748e-01 0.0000000000000000e+00  1.2712815473288761e+00 -8.5070244237128634e-01 0.0000000000000000e+00  1.2385976780898897e+00 -7.6156103662902008e-01 0.0000000000000000e+00  1.2064531114008803e+00 -6.7276504159099393e-01 0.0000000000000000e+00  1.1751376818724992e+00 -5.8514762543698884e-01 0.0000000000000000e+00  1.1449461251891313e+00 -4.9961090617191450e-01 0.0000000000000000e+00  1.1161958739448286e+00 -4.1716259605977518e-01 0.0000000000000000e+00  1.0892330508699921e+00 -3.3895714395861543e-01 0.0000000000000000e+00  1.0644418704994312e+00 -2.6630865087932515e-01 0.0000000000000000e+00  1.0422328590391288e+00 -2.0067182885298596e-01 0.0000000000000000e+00  1.0230171260827063e+00 -1.4354079731874464e-01 0.0000000000000000e+00  1.0071409872568189e+00 -9.6235940820156587e-02 0.0000000000000000e+00  9.9479805866587023e-01 -5.9561966988749472e-02 0.0000000000000000e+00  9.8593097607883196e-01 -3.3418193287949122e-02 0.0000000000000000e+00  9.8020425813844714e-01 -1.6525690514000730e-02 0.0000000000000000e+00  9.7709578902837080e-01 -6.4624050851257017e-03 0.0000000000000000e+00  9.7612542232502320e-01 -7.3001526945010818e-16 0.0000000000000000e+00  9.7709578902837091e-01 6.4624050851251180e-03 0.0000000000000000e+00  9.8020425813844747e-01 1.6525690514000303e-02 0.0000000000000000e+00  9.8593097607883196e-01 3.3418193287949212e-02 0.0000000000000000e+00  9.9479805866587079e-01 5.9561966988749930e-02 0.0000000000000000e+00  1.0071409872568189e+00 9.6235940820156241e-02 0.0000000000000000e+00  1.0230171260827070e+00 1.4354079731874547e-01 0.0000000000000000e+00  1.0422328590391285e+00 2.0067182885298512e-01 0.0000000000000000e+00  1.0644418704994316e+00 2.6630865087932609e-01 0.0000000000000000e+00  1.0892330508699914e+00 3.3895714395861415e-01 0.0000000000000000e+00  1.1161958739448286e+00 4.1716259605977524e-01 0.0000000000000000e+00  1.1449461251891311e+00 4.9961090617191206e-01 0.0000000000000000e+00  1.1751376818724992e+00 5.8514762543698962e-01 0.0000000000000000e+00  1.2064531114008805e+00 6.7276504159099104e-01 0.0000000000000000e+00  1.2385976780898897e+00 7.6156103662902097e-01 0.0000000000000000e+00  1.2712815473288765e+00 8.5070244237128356e-01 0.0000000000000000e+00  1.3042082928868286e+00 9.3937650827782759e-01 0.0000000000000000e+00  1.3370540092890177e+00 1.0267436513952477e+00 0.0000000000000000e+00  1.3694474076315184e+00 1.1118777318975237e+00 0.0000000000000000e+00  1.4009366037922455e+00 1.1936904981095005e+00 0.0000000000000000e+00  1.4309484294967081e+00 1.2708189419511480e+00 0.0000000000000000e+00  1.4587182309176920e+00 1.3414708301412916e+00 0.0000000000000000e+00  1.4831972556351174e+00 1.4031685616793401e+00 0.0000000000000000e+00  1.5029008628871998e+00 1.4523952602772532e+00 0.0000000000000000e+00  1.5157144394501152e+00 1.4840428326599591e+00 0.0000000000000000e+00  1.5186454111415091e+00 1.4907201821605267e+00 0.0000000000000000e+00  1.5076364797461275e+00 1.4619909416907135e+00 0.0000000000000000e+00  1.4777200386491369e+00 1.3841971386081264e+00 0.0000000000000000e+00  1.4241511840231988e+00 1.2423964495371109e+00 0.0000000000000000e+00  1.3455540558342318e+00 1.0278603764924366e+00 0.0000000000000000e+00  1.2490705875999357e+00 7.5392926886675249e-01 0.0000000000000000e+00  1.1535296658454162e+00 4.7175663596664064e-01 0.0000000000000000e+00  1.0802946521237329e+00 2.4910160750878141e-01 0.0000000000000000e+00  1.0367069847383099e+00 1.1447454057871957e-01 0.0000000000000000e+00  1.0153957179215982e+00 4.8130552632554204e-02 0.0000000000000000e+00  1.0061607142002884e+00 1.9277627985804322e-02 0.0000000000000000e+00  1.0024038093193546e+00 7.5283142837332230e-03 0.0000000000000000e+00  1.0009252970047322e+00 2.8942698744939804e-03 0.0000000000000000e+00  1.0003517339346226e+00 1.1047552952991797e-03 0.0000000000000000e+00  1.0001337058665691e+00 4.1523635001271031e-04 0.0000000000000000e+00  1.0000494339858075e+00 1.5832809107728531e-04 0.0000000000000000e+00  1.0000192196158035e+00 5.6670852823866876e-05 0.0000000000000000e+00  1.0000063703842610e+00 2.3405761548804693e-05 0.0000000000000000e+00  1.0000030888767304e+00 6.3192291426225587e-06 0.0000000000000000e+00  1.0000004229170418e+00 4.5404139887997652e-06 0.0000000000000000e+00  1.0000008284425017e+00 -4.5627040828074080e-07 0.0000000000000000e+00  9.9999966637558890e-01 1.8194244234504376e-06 0.0000000000000000e+00  1.0000004697368063e+00 -1.1921197143439425e-06 0.0000000000000000e+00  9.9999962423322419e-01 1.2764711353490288e-06 0.0000000000000000e+00  1.0000003632494558e+00 -1.1021157813214471e-06 0.0000000000000000e+00  9.9999967834483827e-01 1.0197704382429706e-06 0.0000000000000000e+00  1.0000002911759120e+00 -9.0746329210131068e-07 0.0000000000000000e+00  9.9999974165337913e-01 8.1054511442197855e-07 0.0000000000000000e+00  1.0000002284618505e+00 -7.1491828208044035e-07 0.0000000000000000e+00  9.9999979989172649e-01 6.2682930993024016e-07 0.0000000000000000e+00  1.0000001740674787e+00 -5.4504159460016305e-07 0.0000000000000000e+00  9.9999984975465050e-01 4.7052231642543039e-07 0.0000000000000000e+00  1.0000001287436973e+00 -4.0316141490930714e-07 0.0000000000000000e+00  9.9999989048838955e-01 3.4294413773711422e-07 0.0000000000000000e+00  1.0000000924801842e+00 -2.8960622888163142e-07 0.0000000000000000e+00  9.9999992246677016e-01 2.4279999446376807e-07 0.0000000000000000e+00  1.0000000645316345e+00 -2.0208441893631629e-07 0.0000000000000000e+00  9.9999994668177350e-01 1.6696911055683577e-07 0.0000000000000000e+00  1.0000000437272614e+00 -1.3693441466217721e-07 0.0000000000000000e+00  9.9999996440949579e-01 1.1145371683551256e-07 0.0000000000000000e+00  1.0000000287426130e+00 -9.0009150129854118e-08 0.0000000000000000e+00  9.9999997697496035e-01 7.2104254700350217e-08 0.0000000000000000e+00  1.0000000182888953e+00 -5.7272752924329269e-08 0.0000000000000000e+00  9.9999998560318615e-01 4.5084491267744444e-08 0.0000000000000000e+00  1.0000000112240277e+00 -3.5148743261226430e-08 0.0000000000000000e+00  9.9999999134122064e-01 2.7115540048819080e-08 0.0000000000000000e+00  1.0000000066022268e+00 -2.0675353765217643e-08 0.0000000000000000e+00  9.9999999503202897e-01 1.5557621619884020e-08 0.0000000000000000e+00  1.0000000036813097e+00 -1.1528409618000895e-08 0.0000000000000000e+00  9.9999999732168310e-01 8.3875361541564244e-09 0.0000000000000000e+00  1.0000000019048281e+00 -5.9653835875802403e-09 0.0000000000000000e+00  9.9999999868461831e-01 4.1195928270885569e-09 0.0000000000000000e+00  1.0000000008721752e+00 -2.7317877276214861e-09 0.0000000000000000e+00  9.9999999945594265e-01 1.7044266906716576e-09 0.0000000000000000e+00  1.0000000003055929e+00 -9.5786496407722867e-10 0.0000000000000000e+00  9.9999999986380228e-01 4.2765756497169084e-10 0.0000000000000000e+00  1.0000000000193705e+00 -6.2145574261941776e-11 0.0000000000000000e+00  1.0000000000579952e+00 -1.7969607190951041e-10 0.0000000000000000e+00  9.9999999989379507e-01 3.3011073940586553e-10 0.0000000000000000e+00  1.0000000001332798e+00 -4.1418630869542941e-10 0.0000000000000000e+00  9.9999999985460875e-01 4.5120773917788954e-10 0.0000000000000000e+00  1.0000000001472331e+00 -4.5582362640337927e-10 0.0000000000000000e+00  9.9999999985767640e-01 4.3898905585296428e-10 0.0000000000000000e+00  1.0000000001332636e+00 -4.0877225334624964e-10 0.0000000000000000e+00  9.9999999987806154e-01 3.7098281990178558e-10 0.0000000000000000e+00  1.0000000001096889e+00 -3.2970061438735763e-10 0.0000000000000000e+00  9.9999999990255894e-01 2.8768995939713944e-10 0.0000000000000000e+00  1.0000000000858167e+00 -2.4672344319732461e-10 0.0000000000000000e+00  9.9999999992478850e-01 2.0784141179854033e-10 0.0000000000000000e+00  1.0000000000658655e+00 -1.7154833774548167e-10 0.0000000000000000e+00  9.9999999994209210e-01 1.3796424048142478e-10 0.0000000000000000e+00  1.0000000000513980e+00 -1.0693769230039806e-10 0.0000000000000000e+00  9.9999999995364852e-01 7.8130696616277649e-11 0.0000000000000000e+00  1.0000000000427627e+00 -5.1075422611656261e-11 0.0000000000000000e+00  9.9999999995938271e-01 2.5230361846555194e-11 0.0000000000000000e+00  1.0000000000399036e+00 0.0000000000000000e+00 0.0000000000000000e+00  </DataArray> 
</PointData> 
</Piece>
</UnstructuredGrid>
</VTKFile>