<?xml version="1.0"?>
<VTKFile type="UnstructuredGrid"  version="0.1"  >
<UnstructuredGrid>
<Piece  NumberOfPoints="201" NumberOfCells="200">
<Points>
<DataArray  type="Float64"  NumberOfComponents="3"  format="ascii">-5 0 0  -4.95 0 0  -4.9 0 0  -4.85 0 0  -4.8 0 0  -4.75 0 0  -4.7 0 0  -4.65 0 0  -4.6 0 0  -4.55 0 0  -4.5 0 0  -4.45 0 0  -4.4 0 0  -4.35 0 0  -4.3 0 0  -4.25 0 0  -4.2 0 0  -4.15 0 0  -4.1 0 0  -4.05 0 0  -4 0 0  -3.95 0 0  -3.9 0 0  -3.85 0 0  -3.8 0 0  -3.75 0 0  -3.7 0 0  -3.65 0 0  -3.6 0 0  -3.55 0 0  -3.5 0 0  -3.45 0 0  -3.4 0 0  -3.35 0 0  -3.3 0 0  -3.25 0 0  -3.2 0 0  -3.15 0 0  -3.1 0 0  -3.05 0 0  -3 0 0  -2.95 0 0  -2.9 0 0  -2.85 0 0  -2.8 0 0  -2.75 0 0  -2.7 0 0  -2.65 0 0  -2.6 0 0  -2.55 0 0  -2.5 0 0  -2.45 0 0  -2.4 0 0  -2.35 0 0  -2.3 0 0  -2.25 0 0  -2.2 0 0  -2.15 0 0  -2.1 0 0  -2.05 0 0  -2 0 0  -1.95 0 0  -1.9 0 0  -1.85 0 0  -1.8 0 0  -1.75 0 0  -1.7 0 0  -1.65 0 0  -1.6 0 0  -1.55 0 0  -1.5 0 0  -1.45 0 0  -1.4 0 0  -1.35 0 0  -1.3 0 0  -1.25 0 0  -1.2 0 0  -1.15 0 0  -1.1 0 0  -1.05 0 0  -1 0 0  -0.9500000000000002 0 0  -0.9000000000000004 0 0  -0.8499999999999996 0 0  -0.7999999999999998 0 0  -0.75 0 0  -0.7000000000000002 0 0  -0.6500000000000004 0 0  -0.5999999999999996 0 0  -0.5499999999999998 0 0  -0.5 0 0  -0.4500000000000002 0 0  -0.4000000000000004 0 0  -0.3499999999999996 0 0  -0.2999999999999998 0 0  -0.25 0 0  -0.2000000000000002 0 0  -0.1500000000000004 0 0  -0.09999999999999964 0 0  -0.04999999999999982 0 0  0 0 0  0.04999999999999982 0 0  0.09999999999999964 0 0  0.1500000000000004 0 0  0.2000000000000002 0 0  0.25 0 0  0.2999999999999998 0 0  0.3499999999999996 0 0  0.4000000000000004 0 0  0.4500000000000002 0 0  0.5 0 0  0.5499999999999998 0 0  0.5999999999999996 0 0  0.6500000000000004 0 0  0.7000000000000002 0 0  0.75 0 0  0.7999999999999998 0 0  0.8499999999999996 0 0  0.9000000000000004 0 0  0.9500000000000002 0 0  1 0 0  1.05 0 0  1.1 0 0  1.15 0 0  1.2 0 0  1.25 0 0  1.3 0 0  1.35 0 0  1.4 0 0  1.45 0 0  1.5 0 0  1.55 0 0  1.6 0 0  1.65 0 0  1.7 0 0  1.75 0 0  1.8 0 0  1.85 0 0  1.9 0 0  1.95 0 0  2 0 0  2.05 0 0  2.1 0 0  2.15 0 0  2.2 0 0  2.25 0 0  2.3 0 0  2.35 0 0  2.4 0 0  2.45 0 0  2.5 0 0  2.55 0 0  2.6 0 0  2.65 0 0  2.7 0 0  2.75 0 0  2.8 0 0  2.85 0 0  2.9 0 0  2.95 0 0  3 0 0  3.050000000000001 0 0  3.1 0 0  3.15 0 0  3.199999999999999 0 0  3.25 0 0  3.300000000000001 0 0  3.35 0 0  3.4 0 0  3.449999999999999 0 0  3.5 0 0  3.550000000000001 0 0  3.6 0 0  3.65 0 0  3.699999999999999 0 0  3.75 0 0  3.800000000000001 0 0  3.85 0 0  3.9 0 0  3.949999999999999 0 0  4 0 0  4.050000000000001 0 0  4.1 0 0  4.15 0 0  4.199999999999999 0 0  4.25 0 0  4.300000000000001 0 0  4.35 0 0  4.4 0 0  4.449999999999999 0 0  4.5 0 0  4.550000000000001 0 0  4.6 0 0  4.65 0 0  4.699999999999999 0 0  4.75 0 0  4.800000000000001 0 0  4.85 0 0  4.9 0 0  4.949999999999999 0 0  5 0 0  </DataArray>
</Points>
<Cells>
<DataArray  type="UInt32"  Name="connectivity"  format="ascii">0 1  1 2  2 3  3 4  4 5  5 6  6 7  7 8  8 9  9 10  10 11  11 12  12 13  13 14  14 15  15 16  16 17  17 18  18 19  19 20  20 21  21 22  22 23  23 24  24 25  25 26  26 27  27 28  28 29  29 30  30 31  31 32  32 33  33 34  34 35  35 36  36 37  37 38  38 39  39 40  40 41  41 42  42 43  43 44  44 45  45 46  46 47  47 48  48 49  49 50  50 51  51 52  52 53  53 54  54 55  55 56  56 57  57 58  58 59  59 60  60 61  61 62  62 63  63 64  64 65  65 66  66 67  67 68  68 69  69 70  70 71  71 72  72 73  73 74  74 75  75 76  76 77  77 78  78 79  79 80  80 81  81 82  82 83  83 84  84 85  85 86  86 87  87 88  88 89  89 90  90 91  91 92  92 93  93 94  94 95  95 96  96 97  97 98  98 99  99 100  100 101  101 102  102 103  103 104  104 105  105 106  106 107  107 108  108 109  109 110  110 111  111 112  112 113  113 114  114 115  115 116  116 117  117 118  118 119  119 120  120 121  121 122  122 123  123 124  124 125  125 126  126 127  127 128  128 129  129 130  130 131  131 132  132 133  133 134  134 135  135 136  136 137  137 138  138 139  139 140  140 141  141 142  142 143  143 144  144 145  145 146  146 147  147 148  148 149  149 150  150 151  151 152  152 153  153 154  154 155  155 156  156 157  157 158  158 159  159 160  160 161  161 162  162 163  163 164  164 165  165 166  166 167  167 168  168 169  169 170  170 171  171 172  172 173  173 174  174 175  175 176  176 177  177 178  178 179  179 180  180 181  181 182  182 183  183 184  184 185  185 186  186 187  187 188  188 189  189 190  190 191  191 192  192 193  193 194  194 195  195 196  196 197  197 198  198 199  199 200  </DataArray>
<DataArray  type="UInt32"  Name="offsets"  format="ascii">2 4 6 8 10 12 14 16 18 20 22 24 26 28 30 32 34 36 38 40 42 44 46 48 50 52 54 56 58 60 62 64 66 68 70 72 74 76 78 80 82 84 86 88 90 92 94 96 98 100 102 104 106 108 110 112 114 116 118 120 122 124 126 128 130 132 134 136 138 140 142 144 146 148 150 152 154 156 158 160 162 164 166 168 170 172 174 176 178 180 182 184 186 188 190 192 194 196 198 200 202 204 206 208 210 212 214 216 218 220 222 224 226 228 230 232 234 236 238 240 242 244 246 248 250 252 254 256 258 260 262 264 266 268 270 272 274 276 278 280 282 284 286 288 290 292 294 296 298 300 302 304 306 308 310 312 314 316 318 320 322 324 326 328 330 332 334 336 338 340 342 344 346 348 350 352 354 356 358 360 362 364 366 368 370 372 374 376 378 380 382 384 386 388 390 392 394 396 398 400 </DataArray>
<DataArray  type="UInt8"  Name="types"  format="ascii">3 3 3 3 3 3 3 3 3 3 3 3 3 3 3 3 3 3 3 3 3 3 3 3 3 3 3 3 3 3 3 3 3 3 3 3 3 3 3 3 3 3 3 3 3 3 3 3 3 3 3 3 3 3 3 3 3 3 3 3 3 3 3 3 3 3 3 3 3 3 3 3 3 3 3 3 3 3 3 3 3 3 3 3 3 3 3 3 3 3 3 3 3 3 3 3 3 3 3 3 3 3 3 3 3 3 3 3 3 3 3 3 3 3 3 3 3 3 3 3 3 3 3 3 3 3 3 3 3 3 3 3 3 3 3 3 3 3 3 3 3 3 3 3 3 3 3 3 3 3 3 3 3 3 3 3 3 3 3 3 3 3 3 3 3 3 3 3 3 3 3 3 3 3 3 3 3 3 3 3 3 3 3 3 3 3 3 3 3 3 3 3 3 3 3 3 3 3 3 3 </DataArray>
</Cells>
<PointData  Vectors="(h, u)"> 
<DataArray  type="Float64"  Name="(h, u)"  NumberOfComponents="3" format="ascii">9.9132891180673577e-01 0.0000000000000000e+00 0.0000000000000000e+00  9.9132782304908462e-01 -2.9382065743693776e-04 0.0000000000000000e+00  9.9132514794438509e-01 -5.8783586125051089e-04 0.0000000000000000e+00  9.9132029253468712e-01 -8.8217232732188127e-04 0.0000000000000000e+00  9.9131383837794274e-01 -1.1770935785852062e-03 0.0000000000000000e+00  9.9130519548986362e-01 -1.4726606763699344e-03 0.0000000000000000e+00  9.9129492896223359e-01 -1.7692062605278078e-03 0.0000000000000000e+00  9.9128245946746241e-01 -2.0667289597123984e-03 0.0000000000000000e+00  9.9126832876221738e-01 -2.3656296990119089e-03 0.0000000000000000e+00  9.9125197475316651e-01 -2.6658489510567127e-03 0.0000000000000000e+00  9.9123390900383723e-01 -2.9678541683440291e-03 0.0000000000000000e+00  9.9121359309962676e-01 -3.2715330028034372e-03 0.0000000000000000e+00  9.9119150159232061e-01 -3.5774168147622732e-03 0.0000000000000000e+00  9.9116712602885826e-01 -3.8853468361974924e-03 0.0000000000000000e+00  9.9114089720887788e-01 -4.1959149529225649e-03 0.0000000000000000e+00  9.9111234273965709e-01 -4.5089234785104090e-03 0.0000000000000000e+00  9.9108184307098079e-01 -4.8250208585379128e-03 0.0000000000000000e+00  9.9104896779326235e-01 -5.1439792338795988e-03 0.0000000000000000e+00  9.9101404068612586e-01 -5.4664994560999318e-03 0.0000000000000000e+00  9.9097667918283938e-01 -5.7923339715897047e-03 0.0000000000000000e+00  9.9093714468515282e-01 -6.1222327092483163e-03 0.0000000000000000e+00  9.9089510870541953e-01 -6.4559421609196397e-03 0.0000000000000000e+00  9.9085076608833633e-01 -6.7942616390207280e-03 0.0000000000000000e+00  9.9080385045101249e-01 -7.1369532700930006e-03 0.0000000000000000e+00  9.9075449002483884e-01 -7.4848777074553851e-03 0.0000000000000000e+00  9.9070249458994120e-01 -7.8378555783566190e-03 0.0000000000000000e+00  9.9064793723276090e-01 -8.1968554412956366e-03 0.0000000000000000e+00  9.9059073631856343e-01 -8.5618592058721438e-03 0.0000000000000000e+00  9.9053095378981471e-01 -8.9340898114411739e-03 0.0000000000000000e+00  9.9046870248283470e-01 -9.3139627651315070e-03 0.0000000000000000e+00  9.9040416873263493e-01 -9.7033855360716612e-03 0.0000000000000000e+00  9.9033789742882972e-01 -1.0103955751292630e-02 0.0000000000000000e+00  9.9027058985064598e-01 -1.0519489345196276e-02 0.0000000000000000e+00  9.9020388254040359e-01 -1.0954835562967306e-02 0.0000000000000000e+00  9.9014008271592946e-01 -1.1419129076278059e-02 0.0000000000000000e+00  9.9008372961985625e-01 -1.1926144168681690e-02 0.0000000000000000e+00  9.9004171523698548e-01 -1.2499649481326975e-02 0.0000000000000000e+00  9.9002636125850962e-01 -1.3177630546912233e-02 0.0000000000000000e+00  9.9005707625682760e-01 -1.4023320677785080e-02 0.0000000000000000e+00  9.9016674654266501e-01 -1.5138973463241986e-02 0.0000000000000000e+00  9.9040765809471409e-01 -1.6691066133855334e-02 0.0000000000000000e+00  9.9086516961662341e-01 -1.8946076354875468e-02 0.0000000000000000e+00  9.9167327754299783e-01 -2.2326503647006512e-02 0.0000000000000000e+00  9.9304182144329711e-01 -2.7487853103643267e-02 0.0000000000000000e+00  9.9528638373617340e-01 -3.5418887338660734e-02 0.0000000000000000e+00  9.9886518812082170e-01 -4.7544978109528888e-02 0.0000000000000000e+00  1.0043958810081473e+00 -6.5780542384063875e-02 0.0000000000000000e+00  1.0126263172703247e+00 -9.2411720166663852e-02 0.0000000000000000e+00  1.0242934575589793e+00 -1.2963862684082819e-01 0.0000000000000000e+00  1.0398460675156684e+00 -1.7867766896880535e-01 0.0000000000000000e+00  1.0590829400040016e+00 -2.3865710491489628e-01 0.0000000000000000e+00  1.0809367866315283e+00 -3.0602181361802749e-01 0.0000000000000000e+00  1.1036317702796912e+00 -3.7516999499594572e-01 0.0000000000000000e+00  1.1252187871960406e+00 -4.4018638362101353e-01 0.0000000000000000e+00  1.1441532584245686e+00 -4.9658461485070077e-01 0.0000000000000000e+00  1.1596027163099576e+00 -5.4210061801076226e-01 0.0000000000000000e+00  1.1714111317480189e+00 -5.7646741321147899e-01 0.0000000000000000e+00  1.1798857120388029e+00 -6.0070496390363781e-01 0.0000000000000000e+00  1.1855561130430243e+00 -6.1640969903854104e-01 0.0000000000000000e+00  1.1890049602122166e+00 -6.2526714071395673e-01 0.0000000000000000e+00  1.1907664419522761e+00 -6.2879031749645953e-01 0.0000000000000000e+00  1.1912902684242590e+00 -6.2822453503142572e-01 0.0000000000000000e+00  1.1909308154360103e+00 -6.2453925259706955e-01 0.0000000000000000e+00  1.1899610339016005e+00 -6.1846523395027186e-01 0.0000000000000000e+00  1.1885828196635393e+00 -6.1053991640769534e-01 0.0000000000000000e+00  1.1869467849404054e+00 -6.0115518451048133e-01 0.0000000000000000e+00  1.1851604177249313e+00 -5.9059389991406075e-01 0.0000000000000000e+00  1.1833034346694036e+00 -5.7906216126951893e-01 0.0000000000000000e+00  1.1814305978753965e+00 -5.6671001036518986e-01 0.0000000000000000e+00  1.1795828646049675e+00 -5.5364992420109183e-01 0.0000000000000000e+00  1.1777863622848923e+00 -5.3996663936775136e-01 0.0000000000000000e+00  1.1760610726400706e+00 -5.2572731821201868e-01 0.0000000000000000e+00  1.1744175467391040e+00 -5.1098534739598356e-01 0.0000000000000000e+00  1.1728643753751551e+00 -4.9578609469878271e-01 0.0000000000000000e+00  1.1714036110702581e+00 -4.8016768994085812e-01 0.0000000000000000e+00  1.1700377085254952e+00 -4.6416458903865626e-01 0.0000000000000000e+00  1.1687641640765818e+00 -4.4780695172639834e-01 0.0000000000000000e+00  1.1675822651703405e+00 -4.3112314942141511e-01 0.0000000000000000e+00  1.1664872104488531e+00 -4.1413855108686243e-01 0.0000000000000000e+00  1.1654768325128972e+00 -3.9687752348087452e-01 0.0000000000000000e+00  1.1645453417627891e+00 -3.7936201711947959e-01 0.0000000000000000e+00  1.1636901030543527e+00 -3.6161330758083615e-01 0.0000000000000000e+00  1.1629050891590273e+00 -3.4365056506792185e-01 0.0000000000000000e+00  1.1621877508717633e+00 -3.2549243839434333e-01 0.0000000000000000e+00  1.1615322372499270e+00 -3.0715569206841770e-01 0.0000000000000000e+00  1.1609363768827694e+00 -2.8865666549327995e-01 0.0000000000000000e+00  1.1603947064122289e+00 -2.7001001626029364e-01 0.0000000000000000e+00  1.1599055678418213e+00 -2.5123005673528032e-01 0.0000000000000000e+00  1.1594639776280951e+00 -2.3232962315266886e-01 0.0000000000000000e+00  1.1590688367759499e+00 -2.1332128002915637e-01 0.0000000000000000e+00  1.1587156671461620e+00 -1.9421632739199526e-01 0.0000000000000000e+00  1.1584039257126242e+00 -1.7502586027978970e-01 0.0000000000000000e+00  1.1581296312692058e+00 -1.5575992399795308e-01 0.0000000000000000e+00  1.1578927706193358e+00 -1.3642841645673195e-01 0.0000000000000000e+00  1.1576898367995927e+00 -1.1704040046013955e-01 0.0000000000000000e+00  1.1575213125500268e+00 -9.7604838557806675e-02 0.0000000000000000e+00  1.1573841399991474e+00 -7.8130070655779080e-02 0.0000000000000000e+00  1.1572792651486901e+00 -5.8624373468426361e-02 0.0000000000000000e+00  1.1572040583406851e+00 -3.9095610698478250e-02 0.0000000000000000e+00  1.1571599024311836e+00 -1.9551611697639956e-02 0.0000000000000000e+00  1.1571445830437845e+00 -9.6991601792039277e-16 0.0000000000000000e+00  1.1571599024311834e+00 1.9551611697638568e-02 0.0000000000000000e+00  1.1572040583406851e+00 3.9095610698477078e-02 0.0000000000000000e+00  1.1572792651486901e+00 5.8624373468426576e-02 0.0000000000000000e+00  1.1573841399991474e+00 7.8130070655777525e-02 0.0000000000000000e+00  1.1575213125500268e+00 9.7604838557806828e-02 0.0000000000000000e+00  1.1576898367995925e+00 1.1704040046013824e-01 0.0000000000000000e+00  1.1578927706193358e+00 1.3642841645673218e-01 0.0000000000000000e+00  1.1581296312692053e+00 1.5575992399795138e-01 0.0000000000000000e+00  1.1584039257126240e+00 1.7502586027978900e-01 0.0000000000000000e+00  1.1587156671461616e+00 1.9421632739199349e-01 0.0000000000000000e+00  1.1590688367759490e+00 2.1332128002915604e-01 0.0000000000000000e+00  1.1594639776280944e+00 2.3232962315266753e-01 0.0000000000000000e+00  1.1599055678418202e+00 2.5123005673527971e-01 0.0000000000000000e+00  1.1603947064122284e+00 2.7001001626029186e-01 0.0000000000000000e+00  1.1609363768827685e+00 2.8865666549327923e-01 0.0000000000000000e+00  1.1615322372499268e+00 3.0715569206841664e-01 0.0000000000000000e+00  1.1621877508717628e+00 3.2549243839434255e-01 0.0000000000000000e+00  1.1629050891590273e+00 3.4365056506792041e-01 0.0000000000000000e+00  1.1636901030543527e+00 3.6161330758083543e-01 0.0000000000000000e+00  1.1645453417627891e+00 3.7936201711947942e-01 0.0000000000000000e+00  1.1654768325128970e+00 3.9687752348087491e-01 0.0000000000000000e+00  1.1664872104488533e+00 4.1413855108686143e-01 0.0000000000000000e+00  1.1675822651703407e+00 4.3112314942141627e-01 0.0000000000000000e+00  1.1687641640765822e+00 4.4780695172639734e-01 0.0000000000000000e+00  1.1700377085254954e+00 4.6416458903865665e-01 0.0000000000000000e+00  1.1714036110702584e+00 4.8016768994085685e-01 0.0000000000000000e+00  1.1728643753751551e+00 4.9578609469878299e-01 0.0000000000000000e+00  1.1744175467391045e+00 5.1098534739598223e-01 0.0000000000000000e+00  1.1760610726400706e+00 5.2572731821201857e-01 0.0000000000000000e+00  1.1777863622848928e+00 5.3996663936774969e-01 0.0000000000000000e+00  1.1795828646049669e+00 5.5364992420109149e-01 0.0000000000000000e+00  1.1814305978753969e+00 5.6671001036518753e-01 0.0000000000000000e+00  1.1833034346694031e+00 5.7906216126951837e-01 0.0000000000000000e+00  1.1851604177249322e+00 5.9059389991405808e-01 0.0000000000000000e+00  1.1869467849404047e+00 6.0115518451048156e-01 0.0000000000000000e+00  1.1885828196635397e+00 6.1053991640769367e-01 0.0000000000000000e+00  1.1899610339015998e+00 6.1846523395027198e-01 0.0000000000000000e+00  1.1909308154360105e+00 6.2453925259706922e-01 0.0000000000000000e+00  1.1912902684242583e+00 6.2822453503142517e-01 0.0000000000000000e+00  1.1907664419522763e+00 6.2879031749645786e-01 0.0000000000000000e+00  1.1890049602122161e+00 6.2526714071395662e-01 0.0000000000000000e+00  1.1855561130430243e+00 6.1640969903854148e-01 0.0000000000000000e+00  1.1798857120388024e+00 6.0070496390363848e-01 0.0000000000000000e+00  1.1714111317480187e+00 5.7646741321147987e-01 0.0000000000000000e+00  1.1596027163099574e+00 5.4210061801076392e-01 0.0000000000000000e+00  1.1441532584245688e+00 4.9658461485070265e-01 0.0000000000000000e+00  1.1252187871960413e+00 4.4018638362101542e-01 0.0000000000000000e+00  1.1036317702796914e+00 3.7516999499594794e-01 0.0000000000000000e+00  1.0809367866315285e+00 3.0602181361802927e-01 0.0000000000000000e+00  1.0590829400040016e+00 2.3865710491489819e-01 0.0000000000000000e+00  1.0398460675156687e+00 1.7867766896880538e-01 0.0000000000000000e+00  1.0242934575589795e+00 1.2963862684082850e-01 0.0000000000000000e+00  1.0126263172703245e+00 9.2411720166662784e-02 0.0000000000000000e+00  1.0043958810081468e+00 6.5780542384063334e-02 0.0000000000000000e+00  9.9886518812082170e-01 4.7544978109526952e-02 0.0000000000000000e+00  9.9528638373617295e-01 3.5418887338660769e-02 0.0000000000000000e+00  9.9304182144329700e-01 2.7487853103641650e-02 0.0000000000000000e+00  9.9167327754299728e-01 2.2326503647006380e-02 0.0000000000000000e+00  9.9086516961662330e-01 1.8946076354873529e-02 0.0000000000000000e+00  9.9040765809471387e-01 1.6691066133855542e-02 0.0000000000000000e+00  9.9016674654266490e-01 1.5138973463240425e-02 0.0000000000000000e+00  9.9005707625682704e-01 1.4023320677785448e-02 0.0000000000000000e+00  9.9002636125850951e-01 1.3177630546911342e-02 0.0000000000000000e+00  9.9004171523698503e-01 1.2499649481327681e-02 0.0000000000000000e+00  9.9008372961985636e-01 1.1926144168680411e-02 0.0000000000000000e+00  9.9014008271592913e-01 1.1419129076278218e-02 0.0000000000000000e+00  9.9020388254040359e-01 1.0954835562965753e-02 0.0000000000000000e+00  9.9027058985064553e-01 1.0519489345196880e-02 0.0000000000000000e+00  9.9033789742882961e-01 1.0103955751292108e-02 0.0000000000000000e+00  9.9040416873263448e-01 9.7033855360730264e-03 0.0000000000000000e+00  9.9046870248283481e-01 9.3139627651312208e-03 0.0000000000000000e+00  9.9053095378981448e-01 8.9340898114424472e-03 0.0000000000000000e+00  9.9059073631856365e-01 8.5618592058720380e-03 0.0000000000000000e+00  9.9064793723276046e-01 8.1968554412968891e-03 0.0000000000000000e+00  9.9070249458994131e-01 7.8378555783567491e-03 0.0000000000000000e+00  9.9075449002483851e-01 7.4848777074573271e-03 0.0000000000000000e+00  9.9080385045101271e-01 7.1369532700929512e-03 0.0000000000000000e+00  9.9085076608833622e-01 6.7942616390214957e-03 0.0000000000000000e+00  9.9089510870541975e-01 6.4559421609194610e-03 0.0000000000000000e+00  9.9093714468515270e-01 6.1222327092491030e-03 0.0000000000000000e+00  9.9097667918283971e-01 5.7923339715896457e-03 0.0000000000000000e+00  9.9101404068612575e-01 5.4664994561012311e-03 0.0000000000000000e+00  9.9104896779326268e-01 5.1439792338792943e-03 0.0000000000000000e+00  9.9108184307098079e-01 4.8250208585408549e-03 0.0000000000000000e+00  9.9111234273965709e-01 4.5089234785109103e-03 0.0000000000000000e+00  9.9114089720887777e-01 4.1959149529249926e-03 0.0000000000000000e+00  9.9116712602885859e-01 3.8853468361976736e-03 0.0000000000000000e+00  9.9119150159232072e-01 3.5774168147650973e-03 0.0000000000000000e+00  9.9121359309962720e-01 3.2715330028042109e-03 0.0000000000000000e+00  9.9123390900383723e-01 2.9678541683468489e-03 0.0000000000000000e+00  9.9125197475316706e-01 2.6658489510578967e-03 0.0000000000000000e+00  9.9126832876221727e-01 2.3656296990143414e-03 0.0000000000000000e+00  9.9128245946746274e-01 2.0667289597134570e-03 0.0000000000000000e+00  9.9129492896223326e-01 1.7692062605296692e-03 0.0000000000000000e+00  9.9130519548986396e-01 1.4726606763697731e-03 0.0000000000000000e+00  9.9131383837794274e-01 1.1770935785858944e-03 0.0000000000000000e+00  9.9132029253468734e-01 8.8217232732231679e-04 0.0000000000000000e+00  9.9132514794438498e-01 5.8783586125155552e-04 0.0000000000000000e+00  9.9132782304908473e-01 2.9382065743678516e-04 0.0000000000000000e+00  9.9132891180673566e-01 0.0000000000000000e+00 0.0000000000000000e+00  </DataArray> 
</PointData> 
</Piece>
</UnstructuredGrid>
</VTKFile>